<LesHouchesEvents version="3.0">
<!--
file generated with POWHEG-BOX-V2
Input file powheg.input contained:
! ggHH production parameters:
mtdep 0              ! 0: Higgs effective field theory (HEFT)

hmass 125            ! Higgs boson mass
topmass 173          ! top quark mass (THIS VALUE IS HARD CODED IN THE VIRTUAL
hdecaymode -1        ! PDG code for Higgs boson decay products (it affects only the SMC)
!                      allowed values are:
!                      0 all decay channels open
!                      1-6 d dbar, u ubar,..., t tbar (as in HERWIG)
!                      7-9 e+ e-, mu+ mu-, tau+ tau-
!                      10  W+W-
!                      11  ZZ
!                      12  gamma gamma
!                      -1  all decay channels closed

! general parameters:
numevts  3000        ! number of events to be generated
ih1         1        ! hadron 1 (1 for protons, -1 for antiprotons)
ih2         1        ! hadron 2 (1 for protons, -1 for antiprotons)
ebeam1 7000d0        ! energy of beam 1
ebeam2 7000d0        ! energy of beam 2
! To be set only if using LHA pdfs
lhans1 90200         ! pdf set for hadron 1 (LHA numbering)
lhans2 90200 	     ! pdf set for hadron 2 (LHA numbering)
! To be set only if using internal mlm pdf
# ndns1 131          ! pdf set for hadron 1 (mlm numbering)
# ndns2 131          ! pdf set for hadron 2 (mlm numbering)
! To be set only if using different pdf sets for the two incoming hadrons
! QCDLambda5 0.25    ! for not equal pdf sets

! Parameters to allow or not the use of stored data
use-old-grid    1    ! if 1 use old grid if file pwggrids.dat is present (<> 1 regenerate)
use-old-ubound  1    ! if 1 use norm of upper bounding function stored in pwgubound.dat, if present;
!
ncall1  10000        ! number of calls for initializing the integration grid
itmx1       3        ! number of iterations for initializing the integration grid
ncall2  10000        ! number of calls for computing the integral and finding upper bound
itmx2       3        ! number of iterations for computing the integral and finding upper bound
foldcsi     1        ! number of folds on csi integration
foldy       1        ! number of folds on  y  integration
foldphi     1        ! number of folds on phi integration
nubound 10000        ! number of bbarra calls to setup norm of upper bounding function
# icsimax   1        ! <= 100, number of csi subdivision when computing the upper bounds
# iymax     1        ! <= 100, number of y subdivision when computing the upper bounds
# xupbound 2d0       ! increase upper bound for radiation generation

! OPTIONAL PARAMETERS

! scale settings:
#fixedscale   1      ! (dafault 0) Use muren = mufac = 2*m_H
facscfact   1d0      ! (default 1d0) fac scale factor: mufact = muref * facscfact
renscfact   1d0      ! (default 1d0) ren scale factor: muren  = muref * renscfact

! Born, plots and powheg strategy:
#bornonly         1  ! (default 0) if 1 do Born only
# testplots 1
fastbtlbound      1  ! fast evaluation of Btilde upper bounds
storemintupb      1  ! store function calls in binary file for more precise generation
ubexcess_correct  1  ! corrects for error in upper bound estimate
storeinfo_rwgt    1  ! store info to allow for reweighting
softtest          0  ! no check of the soft limit in the real
colltest          0  ! no check of the collinear limit in the real

! PARAMETERS needed for ggHH
hdamp           250

! PARAMETERS for parallel runnning
! -- non parallel (for testing purposes only)
#iseed    547        !  Start the random number generator with seed iseed
#rand1     0         !  skipping  rand2*100000000+rand1 numbers.
#rand2     0         !  (see RM48 short writeup in CERNLIB)

! -- parallel
manyseeds 1          ! Used to perform multiple runs with different random
                     ! seeds in the same directory.
                     ! If set to 1, the program asks for an integer j;
                     ! The file pwgseeds.dat at line j is read, and the
                     ! integer at line j is used to initialize the random
                     ! sequence for the generation of the event.
                     ! The event file is called pwgevents-'j'.lhe
parallelstage 4
xgriditeration 1
maxseeds    1000

! PARAMETERS for reweighting
#rwl_file 'reweight_setup.xml'


! PARAMETERS for Pythia8
#py8tune  xxx
#py8hepmc 1
#py8nohad 1
#py8nompi 1
End of powheg.input content
PDF package: lha
 Random number generator initialized with:            3             0             0
-->
<init>
     2212     2212  7.00000E+03  7.00000E+03     -1     -1     -1     -1     -4      1
  3.19670E-02  5.76697E-06  1.00000E+00   9999
</init>
<event>
      5   9999  3.19816E-02  3.19960E+02 -1.00000E+00  1.04691E-01
      21    -1     0     0   502   501  0.000000000E+00  0.000000000E+00  8.123705064E+02  8.123705064E+02  0.000000000E+00  0.00000E+00  9.000E+00
       1    -1     0     0   501     0  0.000000000E+00  0.000000000E+00 -1.478245896E+03  1.478245896E+03  0.000000000E+00  0.00000E+00  9.000E+00
      25     1     1     2     0     0 -4.389957487E+02 -5.510317831E+01  3.776850309E+02  5.949996725E+02  1.250000000E+02  0.00000E+00  9.000E+00
      25     1     1     2     0     0  2.613678609E+02 -2.110220770E+02  2.007586833E+02  4.108193333E+02  1.250000000E+02  0.00000E+00  9.000E+00
       1     1     1     2   502     0  1.776278878E+02  2.661252554E+02 -1.244319104E+03  1.284797397E+03  1.525878906E-05  0.00000E+00  9.000E+00
#rwgt            2          12   1.9769103199066295E-003           3         121           0
</event>
<event>
      5   9999  3.19816E-02  5.71320E+01 -1.00000E+00  1.35850E-01
      21    -1     0     0   502   511  0.000000000E+00  0.000000000E+00  1.322168160E+03  1.322168160E+03  0.000000000E+00  0.00000E+00  9.000E+00
      21    -1     0     0   501   502  0.000000000E+00  0.000000000E+00 -4.806696472E+02  4.806696472E+02  0.000000000E+00  0.00000E+00  9.000E+00
      25     1     1     2     0     0 -5.953847146E+02 -2.642280664E+02  7.649464992E+02  1.012456209E+03  1.250000000E+02  0.00000E+00  9.000E+00
      25     1     1     2     0     0  6.517565946E+02  2.549393121E+02  2.180507727E+01  7.112532410E+02  1.250000000E+02  0.00000E+00  9.000E+00
      21     1     1     2   501   511 -5.637187997E+01  9.288754290E+00  5.474693658E+01  7.912835695E+01  6.743495762E-07  0.00000E+00  9.000E+00
#rwgt            1           1   2.6340175180945641E-002           3         170           0
</event>
<event>
      5   9999  3.19816E-02  1.04889E+02 -1.00000E+00  1.22903E-01
      21    -1     0     0   502   501  0.000000000E+00  0.000000000E+00  1.815693326E+02  1.815693326E+02  0.000000000E+00  0.00000E+00  9.000E+00
      21    -1     0     0   501   512  0.000000000E+00  0.000000000E+00 -5.457106429E+02  5.457106429E+02  0.000000000E+00  0.00000E+00  9.000E+00
      25     1     1     2     0     0  1.751277773E+02  5.416792548E+01 -1.200638468E+02  2.522780804E+02  1.250000000E+02  0.00000E+00  9.000E+00
      25     1     1     2     0     0 -2.747426415E+02 -2.132581613E+01 -1.796137744E+02  3.518869385E+02  1.250000000E+02  0.00000E+00  9.000E+00
      21     1     1     2   502   512  9.961486422E+01 -3.284210935E+01 -6.446368919E+01  1.231149566E+02  1.348699152E-06  0.00000E+00  9.000E+00
#rwgt            1           1   3.0643824901538500E-002           3         272           0
</event>
<event>
      5   9999  3.19816E-02  1.11680E+02 -1.00000E+00  1.21708E-01
      21    -1     0     0   511   501  0.000000000E+00  0.000000000E+00  2.194766119E+02  2.194766119E+02  0.000000000E+00  0.00000E+00  9.000E+00
      21    -1     0     0   501   502  0.000000000E+00  0.000000000E+00 -5.683621921E+02  5.683621921E+02  0.000000000E+00  0.00000E+00  9.000E+00
      25     1     1     2     0     0  1.853818066E+02 -1.655121137E+02 -3.950115671E+01  2.809733357E+02  1.250000000E+02  0.00000E+00  9.000E+00
      25     1     1     2     0     0 -2.167134350E+02  5.831688744E+01 -2.997556718E+02  3.947708639E+02  1.250000000E+02  0.00000E+00  9.000E+00
      21     1     1     2   511   502  3.133162834E+01  1.071952262E+02 -9.628751762E+00  1.120946043E+02  1.186117455E-06  0.00000E+00  9.000E+00
#rwgt            1           1   2.8586843910943464E-002           3         318           0
</event>
<event>
      5   9999  3.19816E-02  6.42661E+00 -1.00000E+00  2.20937E-01
      21    -1     0     0   502   501  0.000000000E+00  0.000000000E+00  1.006055560E+03  1.006055560E+03  0.000000000E+00  0.00000E+00  9.000E+00
      21    -1     0     0   512   502  0.000000000E+00  0.000000000E+00 -1.011647530E+03  1.011647530E+03  0.000000000E+00  0.00000E+00  9.000E+00
      25     1     1     2     0     0 -1.496574440E+02 -1.005748548E+02  7.331842754E+02  7.653083259E+02  1.250000000E+02  0.00000E+00  9.000E+00
      25     1     1     2     0     0  1.560687373E+02  1.001314491E+02  2.081135041E+02  3.054832049E+02  1.250000000E+02  0.00000E+00  9.000E+00
      21     1     1     2   512   501 -6.411293268E+00  4.434057744E-01 -9.468897499E+02  9.469115585E+02  0.000000000E+00  0.00000E+00  9.000E+00
#rwgt            1           1   2.8310256927494833E-002           3         358           0
</event>
<event>
      5   9999  3.19816E-02  1.53772E+01 -1.00000E+00  1.76374E-01
      21    -1     0     0   502   501  0.000000000E+00  0.000000000E+00  1.556579763E+02  1.556579763E+02  0.000000000E+00  0.00000E+00  9.000E+00
      21    -1     0     0   511   502  0.000000000E+00  0.000000000E+00 -8.339287681E+02  8.339287681E+02  0.000000000E+00  0.00000E+00  9.000E+00
      25     1     1     2     0     0 -2.967046583E+02  1.145176919E+01 -1.967414894E+02  3.774877626E+02  1.250000000E+02  0.00000E+00  9.000E+00
      25     1     1     2     0     0  3.082480936E+02 -2.161082020E+01 -3.639822413E+02  4.935503893E+02  1.250000000E+02  0.00000E+00  9.000E+00
      21     1     1     2   511   501 -1.154343532E+01  1.015905101E+01 -1.175470611E+02  1.185485926E+02  1.907348633E-06  0.00000E+00  9.000E+00
#rwgt            1           1   3.1688947771734449E-002           3         674           0
</event>
<event>
      5   9999  3.19816E-02  2.08508E+01 -1.00000E+00  1.64890E-01
      21    -1     0     0   502   512  0.000000000E+00  0.000000000E+00  8.790699775E+01  8.790699775E+01  0.000000000E+00  0.00000E+00  9.000E+00
      21    -1     0     0   501   502  0.000000000E+00  0.000000000E+00 -9.198753406E+02  9.198753406E+02  0.000000000E+00  0.00000E+00  9.000E+00
      25     1     1     2     0     0  1.041887204E+02  1.494550363E+02 -7.244392329E+02  7.573831920E+02  1.250000000E+02  0.00000E+00  9.000E+00
      25     1     1     2     0     0 -9.640990722E+01 -1.301096485E+02 -9.150202037E+01  2.241004475E+02  1.250000000E+02  0.00000E+00  9.000E+00
      21     1     1     2   501   512 -7.778813143E+00 -1.934538779E+01 -1.602708959E+01  2.629869889E+01  3.371747881E-07  0.00000E+00  9.000E+00
#rwgt            1           1   2.8449330143458025E-002           3         897           0
</event>
<event>
      5   9999  3.19816E-02  1.33612E+02 -1.00000E+00  1.18420E-01
      21    -1     0     0   502   501  0.000000000E+00  0.000000000E+00  6.271855187E+02  6.271855187E+02  0.000000000E+00  0.00000E+00  9.000E+00
      21    -1     0     0   501   511  0.000000000E+00  0.000000000E+00 -2.170815663E+02  2.170815663E+02  0.000000000E+00  0.00000E+00  9.000E+00
      25     1     1     2     0     0  1.110325401E+02 -2.485964392E+01 -1.121533170E+02  2.028536255E+02  1.250000000E+02  0.00000E+00  9.000E+00
      25     1     1     2     0     0 -3.590643075E+01 -8.563160042E+01  4.747046677E+02  4.995913973E+02  1.250000000E+02  0.00000E+00  9.000E+00
      21     1     1     2   502   511 -7.512610934E+01  1.104912443E+02  4.755260170E+01  1.418220621E+02  2.023048729E-06  0.00000E+00  9.000E+00
#rwgt            1           1   2.7991128194012480E-002           3        1094           0
</event>
<event>
      5   9999  3.19816E-02  3.57062E+01 -1.00000E+00  1.47967E-01
      21    -1     0     0   502   501  0.000000000E+00  0.000000000E+00  1.031906170E+03  1.031906170E+03  0.000000000E+00  0.00000E+00  9.000E+00
      21    -1     0     0   512   502  0.000000000E+00  0.000000000E+00 -4.426808047E+02  4.426808047E+02  0.000000000E+00  0.00000E+00  9.000E+00
      25     1     1     2     0     0  1.705914154E+02  3.013516303E+02 -2.534192087E+02  4.469457813E+02  1.250000000E+02  0.00000E+00  9.000E+00
      25     1     1     2     0     0 -1.352934314E+02 -2.959678004E+02  8.971401374E+02  9.624898325E+02  1.250000000E+02  0.00000E+00  9.000E+00
      21     1     1     2   512   501 -3.529798399E+01 -5.383829849E+00 -5.449556383E+01  6.515136049E+01  6.743495762E-07  0.00000E+00  9.000E+00
#rwgt            1           1   2.9736037824622818E-002           3        1146           0
</event>
<event>
      5   9999  3.19816E-02  9.38074E+01 -1.00000E+00  1.25090E-01
      21    -1     0     0   502   501  0.000000000E+00  0.000000000E+00  4.667094254E+02  4.667094254E+02  0.000000000E+00  0.00000E+00  9.000E+00
      21    -1     0     0   501   511  0.000000000E+00  0.000000000E+00 -1.773932847E+02  1.773932847E+02  0.000000000E+00  0.00000E+00  9.000E+00
      25     1     1     2     0     0  9.070706944E+00 -1.268659689E+02  2.417055117E+02  3.003727787E+02  1.250000000E+02  0.00000E+00  9.000E+00
      25     1     1     2     0     0 -8.320686431E+01  1.843434488E+02  6.888584214E+01  2.475401960E+02  1.250000000E+02  0.00000E+00  9.000E+00
      21     1     1     2   502   511  7.413615737E+01 -5.747747985E+01 -2.127521307E+01  9.618973547E+01  1.634515429E-06  0.00000E+00  9.000E+00
#rwgt            1           1   2.4816559300043138E-002           3        1306           0
</event>
<event>
      5   9999  3.19816E-02  5.75889E+01 -1.00000E+00  1.35662E-01
      21    -1     0     0   502   501  0.000000000E+00  0.000000000E+00  3.347520639E+02  3.347520639E+02  0.000000000E+00  0.00000E+00  9.000E+00
      21    -1     0     0   501   512  0.000000000E+00  0.000000000E+00 -3.259810272E+03  3.259810272E+03  0.000000000E+00  0.00000E+00  9.000E+00
      25     1     1     2     0     0 -4.525032068E+02  6.852770606E+02 -5.226304356E+02  9.813925688E+02  1.250000000E+02  0.00000E+00  9.000E+00
      25     1     1     2     0     0  4.749959941E+02 -6.322624362E+02 -1.428679921E+03  1.637720458E+03  1.250000000E+02  0.00000E+00  9.000E+00
      21     1     1     2   502   512 -2.249278727E+01 -5.301462433E+01 -9.737478511E+02  9.754493085E+02  1.078959322E-05  0.00000E+00  9.000E+00
#rwgt            1           1   2.7437639845157531E-002           3        1389           0
</event>
<event>
      5   9999  3.19816E-02  3.41393E+01 -1.00000E+00  1.49241E-01
      21    -1     0     0   502   501  0.000000000E+00  0.000000000E+00  2.389990006E+03  2.389990006E+03  0.000000000E+00  0.00000E+00  9.000E+00
      21    -1     0     0   501   511  0.000000000E+00  0.000000000E+00 -3.690884155E+02  3.690884155E+02  0.000000000E+00  0.00000E+00  9.000E+00
      25     1     1     2     0     0  3.809416092E+01  1.176654130E+02  3.253378152E+02  3.698188861E+02  1.250000000E+02  0.00000E+00  9.000E+00
      25     1     1     2     0     0 -7.012986311E+01 -1.294639715E+02  2.036992295E+03  2.046128472E+03  1.250000000E+02  0.00000E+00  9.000E+00
      21     1     1     2   502   511  3.203570219E+01  1.179855851E+01 -3.414285196E+02  3.431310627E+02  5.394796609E-06  0.00000E+00  9.000E+00
#rwgt            1           1   9.2173176939603821E-002           3        1498           0
</event>
<event>
      5   9999  3.19816E-02  3.63540E+01 -1.00000E+00  1.47462E-01
      21    -1     0     0   502   501  0.000000000E+00  0.000000000E+00  3.360061581E+02  3.360061581E+02  0.000000000E+00  0.00000E+00  9.000E+00
      21    -1     0     0   512   502  0.000000000E+00  0.000000000E+00 -1.200925997E+02  1.200925997E+02  0.000000000E+00  0.00000E+00  9.000E+00
      25     1     1     2     0     0 -3.499627209E+01 -9.386194371E+01  2.914096527E+01  1.628158450E+02  1.250000000E+02  0.00000E+00  9.000E+00
      25     1     1     2     0     0  5.775913381E+01  1.222074242E+02  1.775598391E+02  2.557797266E+02  1.250000000E+02  0.00000E+00  9.000E+00
      21     1     1     2   512   501 -2.276286172E+01 -2.834548051E+01  9.212754072E+00  3.750318622E+01  8.920806376E-07  0.00000E+00  9.000E+00
#rwgt            1           1   2.7947405471663665E-002           3        1603           0
</event>
<event>
      5   9999  3.19816E-02  2.64386E+01 -1.00000E+00  1.56952E-01
      21    -1     0     0   502   501  0.000000000E+00  0.000000000E+00  2.653518411E+03  2.653518411E+03  0.000000000E+00  0.00000E+00  9.000E+00
      21    -1     0     0   501   511  0.000000000E+00  0.000000000E+00 -1.035374619E+03  1.035374619E+03  0.000000000E+00  0.00000E+00  9.000E+00
      25     1     1     2     0     0 -9.375681328E+02  8.927680611E+02 -2.594019648E+02  1.326266638E+03  1.250000000E+02  0.00000E+00  9.000E+00
      25     1     1     2     0     0  9.608194570E+02 -9.053527052E+02  1.907197142E+03  2.322899802E+03  1.250000000E+02  0.00000E+00  9.000E+00
      21     1     1     2   502   511 -2.325132418E+01  1.258464402E+01 -2.965138502E+01  3.972659027E+01  8.259061849E-07  0.00000E+00  9.000E+00
#rwgt            1           1   1.8884179091861089E-002           3        1757           0
</event>
<event>
      5   9999  3.19816E-02  3.01877E+02 -1.00000E+00  1.05504E-01
      21    -1     0     0   502   501  0.000000000E+00  0.000000000E+00  4.752733427E+02  4.752733427E+02  0.000000000E+00  0.00000E+00  9.000E+00
      21    -1     0     0   512   502  0.000000000E+00  0.000000000E+00 -9.598147009E+02  9.598147009E+02  0.000000000E+00  0.00000E+00  9.000E+00
      25     1     1     2     0     0 -3.024389185E+02  7.627005668E+01 -3.298335994E+02  4.708520195E+02  1.250000000E+02  0.00000E+00  9.000E+00
      25     1     1     2     0     0  5.723482727E+02 -2.114695400E+02  4.699548512E+00  6.228555188E+02  1.250000000E+02  0.00000E+00  9.000E+00
      21     1     1     2   512   501 -2.699093542E+02  1.351994833E+02 -1.594073072E+02  3.413805053E+02  5.722045898E-06  0.00000E+00  9.000E+00
#rwgt            2          11   3.3148383253701311E-003           3        2197           0
</event>
<event>
      5   9999  3.19816E-02  4.69824E+01 -1.00000E+00  1.40636E-01
      21    -1     0     0   511   501  0.000000000E+00  0.000000000E+00  8.929285579E+02  8.929285579E+02  0.000000000E+00  0.00000E+00  9.000E+00
      21    -1     0     0   501   502  0.000000000E+00  0.000000000E+00 -2.159487791E+02  2.159487791E+02  0.000000000E+00  0.00000E+00  9.000E+00
      25     1     1     2     0     0  2.824756457E+02 -1.954318610E+02  5.103224442E+02  6.277261344E+02  1.250000000E+02  0.00000E+00  9.000E+00
      25     1     1     2     0     0 -2.370043726E+02  1.836120045E+02  1.808268378E+01  3.253251055E+02  1.250000000E+02  0.00000E+00  9.000E+00
      21     1     1     2   511   502 -4.547127313E+01  1.181985650E+01  1.485746508E+02  1.558260971E+02  2.697398305E-06  0.00000E+00  9.000E+00
#rwgt            1           1   2.7612227932067974E-002           3        2232           0
</event>
<event>
      5   9999  3.19816E-02  6.66048E+02 -1.00000E+00  9.54383E-02
       2    -1     0     0   502     0  0.000000000E+00  0.000000000E+00  2.986453147E+03  2.986453147E+03  0.000000000E+00  0.00000E+00  9.000E+00
      21    -1     0     0   501   502  0.000000000E+00  0.000000000E+00 -5.438259958E+02  5.438259958E+02  0.000000000E+00  0.00000E+00  9.000E+00
      25     1     1     2     0     0  5.787995957E+02 -4.639698940E+02 -1.285113500E+02  7.631626311E+02  1.250000000E+02  0.00000E+00  9.000E+00
      25     1     1     2     0     0 -2.460926381E+02 -1.130280717E+02  4.193463186E+02  5.146001034E+02  1.250000000E+02  0.00000E+00  9.000E+00
       2     1     1     2   501     0 -3.327069576E+02  5.769979657E+02  2.151792182E+03  2.252516408E+03  0.000000000E+00  0.00000E+00  9.000E+00
#rwgt            2          18   1.3209170317377179E-003           3        2406           0
</event>
<event>
      5   9999  3.19816E-02  1.12879E+02 -1.00000E+00  1.21507E-01
      21    -1     0     0   502   501  0.000000000E+00  0.000000000E+00  1.162266005E+02  1.162266005E+02  0.000000000E+00  0.00000E+00  9.000E+00
      21    -1     0     0   501   511  0.000000000E+00  0.000000000E+00 -1.733165868E+03  1.733165868E+03  0.000000000E+00  0.00000E+00  9.000E+00
      25     1     1     2     0     0 -4.531240374E+01 -1.679603788E+02 -6.062695864E+01  2.226309298E+02  1.250000000E+02  0.00000E+00  9.000E+00
      25     1     1     2     0     0  1.459664563E+02  2.190519376E+02 -6.363175380E+02  6.998678210E+02  1.250000000E+02  0.00000E+00  9.000E+00
      21     1     1     2   502   511 -1.006540526E+02 -5.109155873E+01 -9.199947709E+02  9.268937178E+02  1.078959322E-05  0.00000E+00  9.000E+00
#rwgt            1           1   2.9046267502027649E-002           3        2425           0
</event>
<event>
      5   9999  3.19816E-02  8.05418E+01 -1.00000E+00  1.28208E-01
      21    -1     0     0   512   501  0.000000000E+00  0.000000000E+00  4.192154123E+03  4.192154123E+03  0.000000000E+00  0.00000E+00  9.000E+00
      21    -1     0     0   501   502  0.000000000E+00  0.000000000E+00 -9.062263438E+02  9.062263438E+02  0.000000000E+00  0.00000E+00  9.000E+00
      25     1     1     2     0     0  1.342609639E+03 -6.484444761E+02  3.025844605E+03  3.375565353E+03  1.250000000E+02  0.00000E+00  9.000E+00
      25     1     1     2     0     0 -1.398897463E+03  5.908367094E+02  8.028596834E+01  1.525802400E+03  1.250000000E+02  0.00000E+00  9.000E+00
      21     1     1     2   512   502  5.628782359E+01  5.760776673E+01  1.797972064E+02  1.970127135E+02  0.000000000E+00  0.00000E+00  9.000E+00
#rwgt            1           1   9.5452115927536167E-003           3        2472           0
</event>
<event>
      5   9999  3.19816E-02  4.32542E+01 -1.00000E+00  1.42765E-01
      21    -1     0     0   502   501  0.000000000E+00  0.000000000E+00  3.641930182E+01  3.641930182E+01  0.000000000E+00  0.00000E+00  9.000E+00
      21    -1     0     0   511   502  0.000000000E+00  0.000000000E+00 -1.632351863E+03  1.632351863E+03  0.000000000E+00  0.00000E+00  9.000E+00
      25     1     1     2     0     0 -1.347289240E+02  2.710255912E+01 -1.140856254E+03  1.155882531E+03  1.250000000E+02  0.00000E+00  9.000E+00
      25     1     1     2     0     0  1.239845643E+02  1.479593750E+01 -2.688755542E+02  3.217299421E+02  1.250000000E+02  0.00000E+00  9.000E+00
      21     1     1     2   511   501  1.074435969E+01 -4.189849661E+01 -1.862007530E+02  1.911586925E+02  2.697398305E-06  0.00000E+00  9.000E+00
#rwgt            1           1   3.4266968556667762E-002           3        2623           0
</event>
<event>
      5   9999  3.19816E-02  9.05699E+01 -1.00000E+00  1.25794E-01
      21    -1     0     0   502   501  0.000000000E+00  0.000000000E+00  3.093330136E+02  3.093330136E+02  0.000000000E+00  0.00000E+00  9.000E+00
      21    -1     0     0   512   502  0.000000000E+00  0.000000000E+00 -1.228404954E+03  1.228404954E+03  0.000000000E+00  0.00000E+00  9.000E+00
      25     1     1     2     0     0 -6.393092320E+01  1.958582930E+02  1.022394890E+02  2.617738470E+02  1.250000000E+02  0.00000E+00  9.000E+00
      25     1     1     2     0     0  6.084372474E+01 -1.053410171E+02  6.480827040E+01  1.860747179E+02  1.250000000E+02  0.00000E+00  9.000E+00
      21     1     1     2   512   501  3.087198462E+00 -9.051727586E+01 -1.086119700E+03  1.089889403E+03  2.157918644E-05  0.00000E+00  9.000E+00
#rwgt            2          11   4.6273912960913309E-003           3        2881           0
</event>
<event>
      5   9999  3.19816E-02  2.43997E+02 -1.00000E+00  1.08592E-01
       1    -1     0     0   502     0  0.000000000E+00  0.000000000E+00  9.839634966E+02  9.839634966E+02  0.000000000E+00  0.00000E+00  9.000E+00
      21    -1     0     0   501   502  0.000000000E+00  0.000000000E+00 -2.591431687E+02  2.591431687E+02  0.000000000E+00  0.00000E+00  9.000E+00
      25     1     1     2     0     0  1.608003965E+02 -2.428580296E+02  6.501907662E+01  3.235572134E+02  1.250000000E+02  0.00000E+00  9.000E+00
      25     1     1     2     0     0 -1.724214732E+02 -8.621485157E-01 -3.288803398E+00  2.129923096E+02  1.250000000E+02  0.00000E+00  9.000E+00
       1     1     1     2   501     0  1.162107673E+01  2.437201781E+02  6.630900547E+02  7.065571423E+02  0.000000000E+00  0.00000E+00  9.000E+00
#rwgt            1           1   2.5669897526904798E-002           3        2946           0
</event>
<event>
      5   9999  3.19816E-02  1.23861E+02 -1.00000E+00  1.19787E-01
      21    -1     0     0   511   501  0.000000000E+00  0.000000000E+00  2.004830178E+02  2.004830178E+02  0.000000000E+00  0.00000E+00  9.000E+00
      21    -1     0     0   501   502  0.000000000E+00  0.000000000E+00 -1.736207307E+03  1.736207307E+03  0.000000000E+00  0.00000E+00  9.000E+00
      25     1     1     2     0     0 -8.891653080E+01 -3.612776348E+02 -4.407571873E+02  5.901860529E+02  1.250000000E+02  0.00000E+00  9.000E+00
      25     1     1     2     0     0  9.938862118E+01  4.846951411E+02 -1.110040695E+03  1.221729439E+03  1.250000000E+02  0.00000E+00  9.000E+00
      21     1     1     2   511   502 -1.047209038E+01 -1.234175063E+02  1.507359370E+01  1.247748323E+02  2.826039694E-06  0.00000E+00  9.000E+00
#rwgt            1           1   2.7731414375153082E-002           3        3026           0
</event>
<event>
      5   9999  3.19816E-02  5.97708E+01 -1.00000E+00  1.34792E-01
      21    -1     0     0   502   501  0.000000000E+00  0.000000000E+00  1.453340741E+02  1.453340741E+02  0.000000000E+00  0.00000E+00  9.000E+00
      21    -1     0     0   512   502  0.000000000E+00  0.000000000E+00 -3.847926812E+02  3.847926812E+02  0.000000000E+00  0.00000E+00  9.000E+00
      25     1     1     2     0     0  7.121181897E+01  1.276014801E+02  1.032984068E+01  1.925745739E+02  1.250000000E+02  0.00000E+00  9.000E+00
      25     1     1     2     0     0 -5.521234109E+01 -7.001188087E+01 -1.207213439E+02  1.953169448E+02  1.250000000E+02  0.00000E+00  9.000E+00
      21     1     1     2   512   501 -1.599947788E+01 -5.758959926E+01 -1.290671039E+02  1.422352367E+02  2.697398305E-06  0.00000E+00  9.000E+00
#rwgt            1           1   2.9633880640938970E-002           3        3072           0
</event>
<event>
      5   9999  3.19816E-02  3.22828E+02 -1.00000E+00  1.04567E-01
      21    -1     0     0   502   501  0.000000000E+00  0.000000000E+00  1.062422536E+03  1.062422536E+03  0.000000000E+00  0.00000E+00  9.000E+00
       2    -1     0     0   501     0  0.000000000E+00  0.000000000E+00 -1.588323689E+03  1.588323689E+03  0.000000000E+00  0.00000E+00  9.000E+00
      25     1     1     2     0     0 -3.706861862E+02  3.979326557E+02  7.883133345E+02  9.658268791E+02  1.250000000E+02  0.00000E+00  9.000E+00
      25     1     1     2     0     0  4.802752848E+01 -4.083918754E+02 -1.176878606E+02  4.456074505E+02  1.250000000E+02  0.00000E+00  9.000E+00
       2     1     1     2   502     0  3.226586577E+02  1.045921975E+01 -1.196526627E+03  1.239311896E+03  1.525878906E-05  0.00000E+00  9.000E+00
#rwgt            1           1   3.0059293789779215E-002           3        3131           0
</event>
<event>
      5   9999  3.19816E-02  3.18093E+01 -1.00000E+00  1.51294E-01
      21    -1     0     0   502   501  0.000000000E+00  0.000000000E+00  1.670314031E+03  1.670314031E+03  0.000000000E+00  0.00000E+00  9.000E+00
      21    -1     0     0   511   502  0.000000000E+00  0.000000000E+00 -3.682847986E+02  3.682847986E+02  0.000000000E+00  0.00000E+00  9.000E+00
      25     1     1     2     0     0 -4.352859481E+02 -3.793806870E+02  1.046413232E+03  1.201669345E+03  1.250000000E+02  0.00000E+00  9.000E+00
      25     1     1     2     0     0  4.294743031E+02  3.481068136E+02  3.970089435E+02  6.920026242E+02  1.250000000E+02  0.00000E+00  9.000E+00
      21     1     1     2   511   501  5.811644956E+00  3.127387338E+01 -1.413929434E+02  1.449268602E+02  1.907348633E-06  0.00000E+00  9.000E+00
#rwgt            1           1   2.8341403263721386E-002           3        3180           0
</event>
<event>
      5   9999  3.19816E-02  1.10769E+02 -1.00000E+00  1.21862E-01
      -2    -1     0     0     0   501  0.000000000E+00  0.000000000E+00  6.405533584E+02  6.405533584E+02  0.000000000E+00  0.00000E+00  9.000E+00
      21    -1     0     0   501   502  0.000000000E+00  0.000000000E+00 -9.498267112E+02  9.498267112E+02  0.000000000E+00  0.00000E+00  9.000E+00
      25     1     1     2     0     0 -1.428346020E+02 -2.410123360E+02 -6.626001455E+02  7.301730086E+02  1.250000000E+02  0.00000E+00  9.000E+00
      25     1     1     2     0     0  5.204328583E+01  1.775553774E+02 -1.976518742E+02  2.982040895E+02  1.250000000E+02  0.00000E+00  9.000E+00
      -2     1     1     2     0   502  9.079131615E+01  6.345695856E+01  5.509786669E+02  5.620029716E+02  7.629394531E-06  0.00000E+00  9.000E+00
#rwgt            1           1   3.1183180521743566E-002           3        3341           0
</event>
<event>
      5   9999  3.19816E-02  1.09231E+01 -1.00000E+00  1.91426E-01
      21    -1     0     0   502   501  0.000000000E+00  0.000000000E+00  4.568958205E+02  4.568958205E+02  0.000000000E+00  0.00000E+00  9.000E+00
      21    -1     0     0   511   502  0.000000000E+00  0.000000000E+00 -3.857992521E+02  3.857992521E+02  0.000000000E+00  0.00000E+00  9.000E+00
      25     1     1     2     0     0  2.640885309E+02 -2.937708153E+01 -1.736389783E+02  3.411469769E+02  1.250000000E+02  0.00000E+00  9.000E+00
      25     1     1     2     0     0 -2.746037114E+02  2.641995024E+01  3.111642274E+02  4.342273466E+02  1.250000000E+02  0.00000E+00  9.000E+00
      21     1     1     2   511   501  1.051518051E+01  2.957131290E+00 -6.642868064E+01  6.732074909E+01  0.000000000E+00  0.00000E+00  9.000E+00
#rwgt            1           1   2.8112386907306892E-002           3        3402           0
</event>
<event>
      5   9999  3.19816E-02  1.39794E+02 -1.00000E+00  1.17620E-01
      21    -1     0     0   502   501  0.000000000E+00  0.000000000E+00  1.820897031E+02  1.820897031E+02  0.000000000E+00  0.00000E+00  9.000E+00
      21    -1     0     0   501   512  0.000000000E+00  0.000000000E+00 -5.933975710E+02  5.933975710E+02  0.000000000E+00  0.00000E+00  9.000E+00
      25     1     1     2     0     0  3.067719957E+01 -7.281576856E+01 -1.462780134E+02  2.080035671E+02  1.250000000E+02  0.00000E+00  9.000E+00
      25     1     1     2     0     0  6.408369006E+01  1.755903666E+02  4.325332042E+01  2.289859077E+02  1.250000000E+02  0.00000E+00  9.000E+00
      21     1     1     2   502   512 -9.476088963E+01 -1.027745981E+02 -3.082831749E+02  3.384977993E+02  5.394796609E-06  0.00000E+00  9.000E+00
#rwgt            1           1   2.6967194338158661E-002           3        3563           0
</event>
<event>
      5   9999  3.19816E-02  7.07392E+01 -1.00000E+00  1.30990E-01
      21    -1     0     0   502   511  0.000000000E+00  0.000000000E+00  3.151983802E+02  3.151983802E+02  0.000000000E+00  0.00000E+00  9.000E+00
      21    -1     0     0   501   502  0.000000000E+00  0.000000000E+00 -5.291188492E+02  5.291188492E+02  0.000000000E+00  0.00000E+00  9.000E+00
      25     1     1     2     0     0  1.089224938E+02  2.776938997E+02 -1.327413437E+01  3.236961758E+02  1.250000000E+02  0.00000E+00  9.000E+00
      25     1     1     2     0     0 -8.385941952E+01 -2.115434954E+02 -3.012144013E+02  3.976659003E+02  1.250000000E+02  0.00000E+00  9.000E+00
      21     1     1     2   501   511 -2.506307427E+01 -6.615040433E+01  1.005680666E+02  1.229551533E+02  0.000000000E+00  0.00000E+00  9.000E+00
#rwgt            1           1   2.8330983173028419E-002           3        3627           0
</event>
<event>
      5   9999  3.19816E-02  2.80738E+02 -1.00000E+00  1.06537E-01
       1    -1     0     0   502     0  0.000000000E+00  0.000000000E+00  9.550869794E+02  9.550869794E+02  0.000000000E+00  0.00000E+00  9.000E+00
      21    -1     0     0   501   502  0.000000000E+00  0.000000000E+00 -6.469670555E+02  6.469670555E+02  0.000000000E+00  0.00000E+00  9.000E+00
      25     1     1     2     0     0 -2.712547045E+02 -1.827021903E+02 -5.356957580E+02  6.399641789E+02  1.250000000E+02  0.00000E+00  9.000E+00
      25     1     1     2     0     0  7.309466089E+01 -1.616019056E+01  1.308119221E+02  1.958079165E+02  1.250000000E+02  0.00000E+00  9.000E+00
       1     1     1     2   501     0  1.981600436E+02  1.988623809E+02  7.130037598E+02  7.662819396E+02  1.078959322E-05  0.00000E+00  9.000E+00
#rwgt            1           1   2.7698911263246716E-002           3        3709           0
</event>
<event>
      5   9999  3.19816E-02  1.85131E+01 -1.00000E+00  1.69186E-01
      21    -1     0     0   511   501  0.000000000E+00  0.000000000E+00  1.190345359E+03  1.190345359E+03  0.000000000E+00  0.00000E+00  9.000E+00
      21    -1     0     0   501   502  0.000000000E+00  0.000000000E+00 -7.726517889E+01  7.726517889E+01  0.000000000E+00  0.00000E+00  9.000E+00
      25     1     1     2     0     0 -1.571639683E+01  2.585328350E+02  6.950159920E+02  7.521691705E+02  1.250000000E+02  0.00000E+00  9.000E+00
      25     1     1     2     0     0  2.752121019E+01 -2.442716680E+02  3.539042583E+02  4.486638930E+02  1.250000000E+02  0.00000E+00  9.000E+00
      21     1     1     2   511   502 -1.180481336E+01 -1.426116704E+01  6.415993001E+01  6.677747467E+01  9.536743164E-07  0.00000E+00  9.000E+00
#rwgt            1           1   3.0204640952422198E-002           3        3751           0
</event>
<event>
      5   9999  3.19816E-02  1.63008E+01 -1.00000E+00  1.74047E-01
      21    -1     0     0   502   501  0.000000000E+00  0.000000000E+00  6.540410517E+02  6.540410517E+02  0.000000000E+00  0.00000E+00  9.000E+00
      21    -1     0     0   501   512  0.000000000E+00  0.000000000E+00 -5.699580322E+02  5.699580322E+02  0.000000000E+00  0.00000E+00  9.000E+00
      25     1     1     2     0     0 -3.967002275E+02 -7.219461878E+01 -3.571668897E+02  5.529704518E+02  1.250000000E+02  0.00000E+00  9.000E+00
      25     1     1     2     0     0  3.858219772E+02  8.433467001E+01  4.769845240E+02  6.317516686E+02  1.250000000E+02  0.00000E+00  9.000E+00
      21     1     1     2   502   512  1.087825031E+01 -1.214005123E+01 -3.573461467E+01  3.927696347E+01  6.743495762E-07  0.00000E+00  9.000E+00
#rwgt            2          11   6.5902305019766945E-003           3        3947           0
</event>
<event>
      5   9999  3.19816E-02  5.63667E+01 -1.00000E+00  1.36169E-01
      21    -1     0     0   502   501  0.000000000E+00  0.000000000E+00  1.575963898E+03  1.575963898E+03  0.000000000E+00  0.00000E+00  9.000E+00
      21    -1     0     0   511   502  0.000000000E+00  0.000000000E+00 -2.301450347E+02  2.301450347E+02  0.000000000E+00  0.00000E+00  9.000E+00
      25     1     1     2     0     0  2.755907599E+02  3.553025043E+02  5.278973579E+02  7.046210024E+02  1.250000000E+02  0.00000E+00  9.000E+00
      25     1     1     2     0     0 -2.284179551E+02 -3.244491292E+02  9.059831069E+02  9.969314869E+02  1.250000000E+02  0.00000E+00  9.000E+00
      21     1     1     2   511   501 -4.717280483E+01 -3.085337505E+01 -8.806160136E+01  1.045564436E+02  3.568322551E-06  0.00000E+00  9.000E+00
#rwgt            1           1   2.6668992270567144E-002           3        3997           0
</event>
<event>
      5   9999  3.19816E-02  3.45838E+01 -1.00000E+00  1.48871E-01
      21    -1     0     0   502   501  0.000000000E+00  0.000000000E+00  9.447543031E+01  9.447543031E+01  0.000000000E+00  0.00000E+00  9.000E+00
       1    -1     0     0   501     0  0.000000000E+00  0.000000000E+00 -1.647795947E+03  1.647795947E+03  0.000000000E+00  0.00000E+00  9.000E+00
      25     1     1     2     0     0  2.291911349E+01  5.258568133E+01  1.591845096E+01  1.384519293E+02  1.250000000E+02  0.00000E+00  9.000E+00
      25     1     1     2     0     0  8.950248295E+00 -3.915504187E+01 -2.354553923E+02  2.695875851E+02  1.250000000E+02  0.00000E+00  9.000E+00
       1     1     1     2   502     0 -3.186936178E+01 -1.343063946E+01 -1.333783575E+03  1.334231863E+03  0.000000000E+00  0.00000E+00  9.000E+00
#rwgt            1           1   2.2311160717056772E-002           3        4062           0
</event>
<event>
      5   9999  3.19816E-02  2.03005E+02 -1.00000E+00  1.11413E-01
      21    -1     0     0   502   501  0.000000000E+00  0.000000000E+00  2.024931387E+02  2.024931387E+02  0.000000000E+00  0.00000E+00  9.000E+00
       2    -1     0     0   501     0  0.000000000E+00  0.000000000E+00 -1.429435438E+03  1.429435438E+03  0.000000000E+00  0.00000E+00  9.000E+00
      25     1     1     2     0     0 -2.619701011E+02  3.087908157E+01 -3.161797783E+02  4.303213959E+02  1.250000000E+02  0.00000E+00  9.000E+00
      25     1     1     2     0     0  6.236074613E+01  6.093540226E+00 -9.778562331E+02  9.878025139E+02  1.250000000E+02  0.00000E+00  9.000E+00
       2     1     1     2   502     0  1.996093550E+02 -3.697262180E+01  6.709371218E+01  2.138046669E+02  2.336015456E-06  0.00000E+00  9.000E+00
#rwgt            1           1   2.6866218645558982E-002           3        4146           0
</event>
<event>
      5   9999  3.19816E-02  3.68875E+01 -1.00000E+00  1.47056E-01
      21    -1     0     0   502   501  0.000000000E+00  0.000000000E+00  2.015327368E+02  2.015327368E+02  0.000000000E+00  0.00000E+00  9.000E+00
      21    -1     0     0   511   502  0.000000000E+00  0.000000000E+00 -1.046841218E+03  1.046841218E+03  0.000000000E+00  0.00000E+00  9.000E+00
      25     1     1     2     0     0 -1.446724050E+01  3.049880516E+02 -3.860616023E+02  5.078341988E+02  1.250000000E+02  0.00000E+00  9.000E+00
      25     1     1     2     0     0 -2.237043468E+01 -3.069046368E+02 -5.747076067E+01  3.370738506E+02  1.250000000E+02  0.00000E+00  9.000E+00
      21     1     1     2   511   501  3.683767518E+01  1.916585182E+00 -4.017761178E+02  4.034659050E+02  0.000000000E+00  0.00000E+00  9.000E+00
#rwgt            1           1   2.9969549252544362E-002           3        4181           0
</event>
<event>
      5   9999  3.19816E-02  3.64532E+01 -1.00000E+00  1.47386E-01
      21    -1     0     0   502   501  0.000000000E+00  0.000000000E+00  2.000712020E+03  2.000712020E+03  0.000000000E+00  0.00000E+00  9.000E+00
      -2    -1     0     0     0   502  0.000000000E+00  0.000000000E+00 -2.446770033E+02  2.446770033E+02  0.000000000E+00  0.00000E+00  9.000E+00
      25     1     1     2     0     0 -8.287569457E+00  4.618723785E+01 -4.033300325E+01  1.394765066E+02  1.250000000E+02  0.00000E+00  9.000E+00
      25     1     1     2     0     0 -1.675908850E+01 -1.970140399E+01  1.946874364E+03  1.951054536E+03  1.250000000E+02  0.00000E+00  9.000E+00
      -2     1     1     2     0   501  2.504665796E+01 -2.648583385E+01 -1.505063444E+02  1.548579806E+02  6.031565972E-06  0.00000E+00  9.000E+00
#rwgt            1           1   2.8560477980435785E-002           3        4348           0
</event>
<event>
      5   9999  3.19816E-02  8.94205E+01 -1.00000E+00  1.26052E-01
      21    -1     0     0   502   501  0.000000000E+00  0.000000000E+00  1.420542581E+03  1.420542581E+03  0.000000000E+00  0.00000E+00  9.000E+00
      21    -1     0     0   501   511  0.000000000E+00  0.000000000E+00 -1.745356067E+03  1.745356067E+03  0.000000000E+00  0.00000E+00  9.000E+00
      25     1     1     2     0     0 -5.144504102E+02 -1.095922819E+03  8.073689995E+02  1.460539541E+03  1.250000000E+02  0.00000E+00  9.000E+00
      25     1     1     2     0     0  4.251050296E+02  1.099586638E+03 -1.063123207E+03  1.592375902E+03  1.250000000E+02  0.00000E+00  9.000E+00
      21     1     1     2   502   511  8.934538059E+01 -3.663819417E+00 -6.905927838E+01  1.129832047E+02  1.651812370E-06  0.00000E+00  9.000E+00
#rwgt            1           1   3.0730022894029822E-002           3        4449           0
</event>
<event>
      5   9999  3.19816E-02  6.12422E+01 -1.00000E+00  1.34230E-01
      21    -1     0     0   502   501  0.000000000E+00  0.000000000E+00  1.620416975E+03  1.620416975E+03  0.000000000E+00  0.00000E+00  9.000E+00
      21    -1     0     0   512   502  0.000000000E+00  0.000000000E+00 -6.521439218E+02  6.521439218E+02  0.000000000E+00  0.00000E+00  9.000E+00
      25     1     1     2     0     0 -7.913397640E+02  3.150050888E+01  1.076473701E+03  1.342248686E+03  1.250000000E+02  0.00000E+00  9.000E+00
      25     1     1     2     0     0  8.502109596E+02 -4.837619308E+01 -8.529753789E+01  8.649275125E+02  1.250000000E+02  0.00000E+00  9.000E+00
      21     1     1     2   512   501 -5.887119557E+01  1.687568421E+01 -2.290311015E+01  6.538469882E+01  9.536743164E-07  0.00000E+00  9.000E+00
#rwgt            1           1   3.0301357804959086E-002           3        4622           0
</event>
<event>
      5   9999  3.19816E-02  6.97843E+01 -1.00000E+00  1.31289E-01
      21    -1     0     0   502   511  0.000000000E+00  0.000000000E+00  4.152207670E+02  4.152207670E+02  0.000000000E+00  0.00000E+00  9.000E+00
      21    -1     0     0   501   502  0.000000000E+00  0.000000000E+00 -8.992599504E+02  8.992599504E+02  0.000000000E+00  0.00000E+00  9.000E+00
      25     1     1     2     0     0  2.879221500E+02 -3.930436533E+02 -1.193335282E+02  5.169603165E+02  1.250000000E+02  0.00000E+00  9.000E+00
      25     1     1     2     0     0 -3.187807202E+02  4.556343469E+02 -4.204076834E+02  7.082311953E+02  1.250000000E+02  0.00000E+00  9.000E+00
      21     1     1     2   501   511  3.085857027E+01 -6.259069358E+01  5.570202831E+01  8.928920562E+01  1.507891493E-06  0.00000E+00  9.000E+00
#rwgt            1           1   2.9241449418635192E-002           3        4730           0
</event>
<event>
      5   9999  3.19816E-02  2.58816E+01 -1.00000E+00  1.57632E-01
      21    -1     0     0   512   501  0.000000000E+00  0.000000000E+00  1.504935902E+02  1.504935902E+02  0.000000000E+00  0.00000E+00  9.000E+00
      21    -1     0     0   501   502  0.000000000E+00  0.000000000E+00 -2.914077544E+02  2.914077544E+02  0.000000000E+00  0.00000E+00  9.000E+00
      25     1     1     2     0     0  7.475083117E+01  1.178673336E+02 -2.573399799E+01  1.891233294E+02  1.250000000E+02  0.00000E+00  9.000E+00
      25     1     1     2     0     0 -5.283189392E+01 -1.041043688E+02 -1.368301126E+02  2.190351760E+02  1.250000000E+02  0.00000E+00  9.000E+00
      21     1     1     2   512   502 -2.191893725E+01 -1.376296477E+01  2.164994638E+01  3.374283906E+01  6.743495762E-07  0.00000E+00  9.000E+00
#rwgt            1           1   3.0388821793397289E-002           3        4794           0
</event>
<event>
      5   9999  3.19816E-02  7.58405E+01 -1.00000E+00  1.29482E-01
      21    -1     0     0   502   501  0.000000000E+00  0.000000000E+00  4.286886171E+02  4.286886171E+02  0.000000000E+00  0.00000E+00  9.000E+00
      21    -1     0     0   501   511  0.000000000E+00  0.000000000E+00 -7.125744596E+02  7.125744596E+02  0.000000000E+00  0.00000E+00  9.000E+00
      25     1     1     2     0     0  9.726121081E+01  2.629061134E+01 -5.314835817E+02  5.552033294E+02  1.250000000E+02  0.00000E+00  9.000E+00
      25     1     1     2     0     0 -4.320159734E+01  2.690087325E+01  3.965629043E+02  4.188999547E+02  1.250000000E+02  0.00000E+00  9.000E+00
      21     1     1     2   502   511 -5.405961347E+01 -5.319148459E+01 -1.489651651E+02  1.671597926E+02  0.000000000E+00  0.00000E+00  9.000E+00
#rwgt            1           1   2.7497367559055505E-002           3        4938           0
</event>
<event>
      5   9999  3.19816E-02  1.83924E+02 -1.00000E+00  1.12989E-01
       2    -1     0     0   502     0  0.000000000E+00  0.000000000E+00  1.152398554E+03  1.152398554E+03  0.000000000E+00  0.00000E+00  9.000E+00
      21    -1     0     0   501   502  0.000000000E+00  0.000000000E+00 -3.438922081E+02  3.438922081E+02  0.000000000E+00  0.00000E+00  9.000E+00
      25     1     1     2     0     0 -2.981624913E+02 -3.542540664E+02  1.943979205E+02  5.175059094E+02  1.250000000E+02  0.00000E+00  9.000E+00
      25     1     1     2     0     0  2.061659711E+02  1.949909133E+02 -2.753409844E+01  3.113020888E+02  1.250000000E+02  0.00000E+00  9.000E+00
       2     1     1     2   501     0  9.199652021E+01  1.592631531E+02  6.416425242E+02  6.674827642E+02  7.629394531E-06  0.00000E+00  9.000E+00
#rwgt            1           1   2.5440853651460968E-002           3        5055           0
</event>
<event>
      5   9999  3.19816E-02  2.29223E+01 -1.00000E+00  1.61626E-01
      21    -1     0     0   511   501  0.000000000E+00  0.000000000E+00  3.494046398E+02  3.494046398E+02  0.000000000E+00  0.00000E+00  9.000E+00
      21    -1     0     0   501   502  0.000000000E+00  0.000000000E+00 -1.671803919E+02  1.671803919E+02  0.000000000E+00  0.00000E+00  9.000E+00
      25     1     1     2     0     0  8.016141142E+01  9.797264820E+01 -6.471034722E+01  1.893064202E+02  1.250000000E+02  0.00000E+00  9.000E+00
      25     1     1     2     0     0 -7.035552242E+01 -1.186916728E+02  1.905160026E+02  2.663812305E+02  1.250000000E+02  0.00000E+00  9.000E+00
      21     1     1     2   511   502 -9.805888994E+00  2.071902457E+01  5.641859247E+01  6.089738101E+01  6.743495762E-07  0.00000E+00  9.000E+00
#rwgt            1           1   2.9865189594840597E-002           3        5113           0
</event>
<event>
      5   9999  3.19816E-02  8.16837E+01 -1.00000E+00  1.27913E-01
      21    -1     0     0   502   512  0.000000000E+00  0.000000000E+00  7.349661391E+02  7.349661391E+02  0.000000000E+00  0.00000E+00  9.000E+00
      21    -1     0     0   501   502  0.000000000E+00  0.000000000E+00 -1.927000952E+02  1.927000952E+02  0.000000000E+00  0.00000E+00  9.000E+00
      25     1     1     2     0     0 -1.248252676E+02 -7.834876970E+01  4.892380394E+02  5.260216120E+02  1.250000000E+02  0.00000E+00  9.000E+00
      25     1     1     2     0     0  1.718385231E+02  1.451467770E+02 -5.801595678E+01  2.637933209E+02  1.250000000E+02  0.00000E+00  9.000E+00
      21     1     1     2   501   512 -4.701325548E+01 -6.679800729E+01  1.110439613E+02  1.378513014E+02  1.348699152E-06  0.00000E+00  9.000E+00
#rwgt            2          11   3.1939017998970508E-003           3        5278           0
</event>
<event>
      5   9999  3.19816E-02  5.81089E+01 -1.00000E+00  1.35451E-01
      21    -1     0     0   511   501  0.000000000E+00  0.000000000E+00  2.489332267E+02  2.489332267E+02  0.000000000E+00  0.00000E+00  9.000E+00
      21    -1     0     0   501   502  0.000000000E+00  0.000000000E+00 -2.356059586E+02  2.356059586E+02  0.000000000E+00  0.00000E+00  9.000E+00
      25     1     1     2     0     0  1.764801555E+02 -6.277687064E+01  5.031259751E+01  2.307434468E+02  1.250000000E+02  0.00000E+00  9.000E+00
      25     1     1     2     0     0 -1.198960468E+02  7.600135054E+01 -4.683394076E+01  1.948581159E+02  1.250000000E+02  0.00000E+00  9.000E+00
      21     1     1     2   511   502 -5.658410867E+01 -1.322447990E+01  9.848611345E+00  5.893762269E+01  1.143415337E-06  0.00000E+00  9.000E+00
#rwgt            2          11   2.1136404335974864E-003           3        5298           0
</event>
<event>
      5   9999  3.19816E-02  7.45432E+02 -1.00000E+00  9.41625E-02
      21    -1     0     0   502   501  0.000000000E+00  0.000000000E+00  8.116423366E+02  8.116423366E+02  0.000000000E+00  0.00000E+00  9.000E+00
      21    -1     0     0   512   502  0.000000000E+00  0.000000000E+00 -2.401863273E+03  2.401863273E+03  0.000000000E+00  0.00000E+00  9.000E+00
      25     1     1     2     0     0 -4.119757885E+01  5.810921011E+02  3.494326178E+02  6.907194980E+02  1.250000000E+02  0.00000E+00  9.000E+00
      25     1     1     2     0     0 -2.475257222E+02  1.061545488E+02  1.291414235E+02  3.237904858E+02  1.250000000E+02  0.00000E+00  9.000E+00
      21     1     1     2   512   501  2.887233011E+02 -6.872466500E+02 -2.068794978E+03  2.198995626E+03  0.000000000E+00  0.00000E+00  9.000E+00
#rwgt            2          11   6.4345694884084823E-003           3        5363           0
</event>
<event>
      5   9999  3.19816E-02  8.83415E+01 -1.00000E+00  1.26299E-01
      21    -1     0     0   511   501  0.000000000E+00  0.000000000E+00  3.975993047E+02  3.975993047E+02  0.000000000E+00  0.00000E+00  9.000E+00
      21    -1     0     0   501   502  0.000000000E+00  0.000000000E+00 -1.963790435E+03  1.963790435E+03  0.000000000E+00  0.00000E+00  9.000E+00
      25     1     1     2     0     0 -3.660037784E+01  1.212181396E+02  1.485438672E+02  2.317837473E+02  1.250000000E+02  0.00000E+00  9.000E+00
      25     1     1     2     0     0  9.347149720E+01 -1.888191558E+02 -1.904549704E+03  1.920240654E+03  1.250000000E+02  0.00000E+00  9.000E+00
      21     1     1     2   511   502 -5.687111935E+01  6.760101615E+01  1.898147072E+02  2.093653378E+02  3.814697266E-06  0.00000E+00  9.000E+00
#rwgt            1           1   2.9014058128526395E-003           3        5398           0
</event>
<event>
      5   9999  3.19816E-02  1.01271E+01 -1.00000E+00  1.95125E-01
      21    -1     0     0   502   501  0.000000000E+00  0.000000000E+00  1.150611782E+02  1.150611782E+02  0.000000000E+00  0.00000E+00  9.000E+00
      21    -1     0     0   501   512  0.000000000E+00  0.000000000E+00 -8.407665854E+02  8.407665854E+02  0.000000000E+00  0.00000E+00  9.000E+00
      25     1     1     2     0     0  6.598939888E+01  1.734435655E+02 -5.275155406E+01  2.298803986E+02  1.250000000E+02  0.00000E+00  9.000E+00
      25     1     1     2     0     0 -6.321944512E+01 -1.637026149E+02 -4.132195687E+02  4.660157254E+02  1.250000000E+02  0.00000E+00  9.000E+00
      21     1     1     2   502   512 -2.769953757E+00 -9.740950628E+00 -2.597342844E+02  2.599316396E+02  3.814697266E-06  0.00000E+00  9.000E+00
#rwgt            1           1   2.8289062019068442E-002           3        5514           0
</event>
<event>
      5   9999  3.31734E-02  1.11912E+02 -1.00000E+00  1.21669E-01
       1    -1     0     0   502     0  0.000000000E+00  0.000000000E+00  4.493452062E+02  4.493452062E+02  0.000000000E+00  0.00000E+00  9.000E+00
      21    -1     0     0   501   502  0.000000000E+00  0.000000000E+00 -2.195215558E+03  2.195215558E+03  0.000000000E+00  0.00000E+00  9.000E+00
      25     1     1     2     0     0  2.342151678E+02  1.566290601E+02 -9.393822336E+02  9.886624237E+02  1.250000000E+02  0.00000E+00  9.000E+00
      25     1     1     2     0     0 -2.054417267E+02 -4.847912529E+01 -1.211305073E+03  1.235897046E+03  1.250000000E+02  0.00000E+00  9.000E+00
       1     1     1     2   501     0 -2.877344110E+01 -1.081499348E+02  4.048169555E+02  4.200012937E+02  7.629394531E-06  0.00000E+00  9.000E+00
#rwgt            1           1  0.10218384108030627                3        5670           0
</event>
<event>
      5   9999  3.19816E-02  2.00961E+02 -1.00000E+00  1.11572E-01
      21    -1     0     0   502   501  0.000000000E+00  0.000000000E+00  5.071388079E+02  5.071388079E+02  0.000000000E+00  0.00000E+00  9.000E+00
      21    -1     0     0   511   502  0.000000000E+00  0.000000000E+00 -6.447146579E+02  6.447146579E+02  0.000000000E+00  0.00000E+00  9.000E+00
      25     1     1     2     0     0 -3.281402097E+02  1.123918057E+02  4.405452632E+01  3.713135016E+02  1.250000000E+02  0.00000E+00  9.000E+00
      25     1     1     2     0     0  4.155893946E+02 -2.933285799E+02 -2.266062024E+01  5.243040191E+02  1.250000000E+02  0.00000E+00  9.000E+00
      21     1     1     2   511   501 -8.744918500E+01  1.809367742E+02 -1.589697561E+02  2.562359451E+02  3.814697266E-06  0.00000E+00  9.000E+00
#rwgt            1           1   2.8127493278347744E-002           3        5713           0
</event>
<event>
      5   9999  3.19816E-02  2.08113E+02 -1.00000E+00  1.11023E-01
      21    -1     0     0   502   512  0.000000000E+00  0.000000000E+00  4.105005075E+03  4.105005075E+03  0.000000000E+00  0.00000E+00  9.000E+00
      21    -1     0     0   501   502  0.000000000E+00  0.000000000E+00 -1.941927335E+02  1.941927335E+02  0.000000000E+00  0.00000E+00  9.000E+00
      25     1     1     2     0     0 -1.234942460E+02  1.242698953E+02  2.252833099E+03  2.263089881E+03  1.250000000E+02  0.00000E+00  9.000E+00
      25     1     1     2     0     0  2.698199356E+02  2.371616968E+01 -6.107658116E+01  3.045005799E+02  1.250000000E+02  0.00000E+00  9.000E+00
      21     1     1     2   501   512 -1.463256896E+02 -1.479860650E+02  1.719055824E+03  1.731607348E+03  0.000000000E+00  0.00000E+00  9.000E+00
#rwgt            1           1   3.4117740844160381E-002           3        5804           0
</event>
<event>
      5   9999  3.19816E-02  1.74170E+01 -1.00000E+00  1.71482E-01
      21    -1     0     0   502   511  0.000000000E+00  0.000000000E+00  2.314032081E+02  2.314032081E+02  0.000000000E+00  0.00000E+00  9.000E+00
      21    -1     0     0   501   502  0.000000000E+00  0.000000000E+00 -1.696748306E+02  1.696748306E+02  0.000000000E+00  0.00000E+00  9.000E+00
      25     1     1     2     0     0 -5.458019413E+01 -1.045658419E+01 -1.053385363E+02  1.726544091E+02  1.250000000E+02  0.00000E+00  9.000E+00
      25     1     1     2     0     0  5.822967722E+01 -6.573748194E+00  1.526134668E+02  2.057906211E+02  1.250000000E+02  0.00000E+00  9.000E+00
      21     1     1     2   501   511 -3.649483088E+00  1.703033238E+01  1.445344692E+01  2.263300854E+01  1.685873940E-07  0.00000E+00  9.000E+00
#rwgt            1           1   3.1735264219478421E-002           3        5861           0
</event>
<event>
      5   9999  3.19816E-02  4.19788E+01 -1.00000E+00  1.43552E-01
      21    -1     0     0   512   501  0.000000000E+00  0.000000000E+00  1.827610738E+02  1.827610738E+02  0.000000000E+00  0.00000E+00  9.000E+00
      21    -1     0     0   501   502  0.000000000E+00  0.000000000E+00 -4.158414808E+02  4.158414808E+02  0.000000000E+00  0.00000E+00  9.000E+00
      25     1     1     2     0     0 -3.929541467E+01  1.657686145E+02 -9.727583947E+01  2.326176092E+02  1.250000000E+02  0.00000E+00  9.000E+00
      25     1     1     2     0     0  3.439576278E+01 -2.074604651E+02 -1.809882486E+02  3.043101366E+02  1.250000000E+02  0.00000E+00  9.000E+00
      21     1     1     2   512   502  4.899651898E+00  4.169185065E+01  4.518368113E+01  6.167480879E+01  6.743495762E-07  0.00000E+00  9.000E+00
#rwgt            1           1   2.7494177362883572E-002           3        6001           0
</event>
<event>
      5   9999  3.19816E-02  4.88881E+01 -1.00000E+00  1.39635E-01
      21    -1     0     0   511   501  0.000000000E+00  0.000000000E+00  1.048413632E+02  1.048413632E+02  0.000000000E+00  0.00000E+00  9.000E+00
      21    -1     0     0   501   502  0.000000000E+00  0.000000000E+00 -8.121533220E+02  8.121533220E+02  0.000000000E+00  0.00000E+00  9.000E+00
      25     1     1     2     0     0 -7.061011012E+00 -1.601797755E+02 -5.461430065E+02  5.827560398E+02  1.250000000E+02  0.00000E+00  9.000E+00
      25     1     1     2     0     0  3.934543914E+01  1.234678425E+02 -2.019623873E+02  2.705664015E+02  1.250000000E+02  0.00000E+00  9.000E+00
      21     1     1     2   511   502 -3.228442813E+01  3.671193298E+01  4.079343495E+01  6.367224401E+01  1.168007728E-06  0.00000E+00  9.000E+00
#rwgt            1           1   2.6356548610979171E-002           3        6112           0
</event>
<event>
      5   9999  3.19816E-02  1.36067E+02 -1.00000E+00  1.18097E-01
      21    -1     0     0   502   512  0.000000000E+00  0.000000000E+00  1.883941838E+02  1.883941838E+02  0.000000000E+00  0.00000E+00  9.000E+00
      21    -1     0     0   501   502  0.000000000E+00  0.000000000E+00 -1.379070988E+03  1.379070988E+03  0.000000000E+00  0.00000E+00  9.000E+00
      25     1     1     2     0     0 -1.611698724E+02 -2.471710529E+02 -3.977008046E+02  5.107447377E+02  1.250000000E+02  0.00000E+00  9.000E+00
      25     1     1     2     0     0  2.972110781E+02  2.498287032E+02 -8.219593598E+02  9.176006729E+02  1.250000000E+02  0.00000E+00  9.000E+00
      21     1     1     2   501   512 -1.360412057E+02 -2.657650247E+00  2.898336013E+01  1.391197610E+02  1.719260824E-06  0.00000E+00  9.000E+00
#rwgt            1           1   2.8101196263689940E-002           3        6270           0
</event>
<event>
      5   9999  3.19816E-02  1.02965E+02 -1.00000E+00  1.23260E-01
      -1    -1     0     0     0   501  0.000000000E+00  0.000000000E+00  9.689056689E+02  9.689056689E+02  0.000000000E+00  0.00000E+00  9.000E+00
      21    -1     0     0   501   502  0.000000000E+00  0.000000000E+00 -3.505882213E+02  3.505882213E+02  0.000000000E+00  0.00000E+00  9.000E+00
      25     1     1     2     0     0  3.579235136E+02  2.359125680E+02  1.065670936E+02  4.590702852E+02  1.250000000E+02  0.00000E+00  9.000E+00
      25     1     1     2     0     0 -4.053782300E+02 -3.272895134E+02  5.324864526E+02  7.553917905E+02  1.250000000E+02  0.00000E+00  9.000E+00
      -1     1     1     2     0   502  4.745471632E+01  9.137694546E+01 -2.073609865E+01  1.050318145E+02  1.238859277E-06  0.00000E+00  9.000E+00
#rwgt            2           5   1.2042409934844610E-005           3        6320           0
</event>
<event>
      5   9999  3.19816E-02  8.07558E+01 -1.00000E+00  1.28152E-01
      21    -1     0     0   511   501  0.000000000E+00  0.000000000E+00  5.632735085E+02  5.632735085E+02  0.000000000E+00  0.00000E+00  9.000E+00
      21    -1     0     0   501   502  0.000000000E+00  0.000000000E+00 -2.130237451E+02  2.130237451E+02  0.000000000E+00  0.00000E+00  9.000E+00
      25     1     1     2     0     0 -1.634447881E+01 -6.763371236E+01  1.654235878E+02  2.187039653E+02  1.250000000E+02  0.00000E+00  9.000E+00
      25     1     1     2     0     0  2.649987012E+01  1.477484190E+02 -1.286405168E+02  2.338914727E+02  1.250000000E+02  0.00000E+00  9.000E+00
      21     1     1     2   511   502 -1.015539131E+01 -8.011470661E+01  3.134666925E+02  3.237018157E+02  3.814697266E-06  0.00000E+00  9.000E+00
#rwgt            1           1   3.6615413483420386E-002           3        6384           0
</event>
<event>
      5   9999  3.19816E-02  1.59312E+02 -1.00000E+00  1.15366E-01
       2    -1     0     0   502     0  0.000000000E+00  0.000000000E+00  3.434524638E+02  3.434524638E+02  0.000000000E+00  0.00000E+00  9.000E+00
      21    -1     0     0   501   502  0.000000000E+00  0.000000000E+00 -1.552013267E+03  1.552013267E+03  0.000000000E+00  0.00000E+00  9.000E+00
      25     1     1     2     0     0  2.445726318E+02 -2.803123331E+02 -3.795511897E+02  5.459623447E+02  1.250000000E+02  0.00000E+00  9.000E+00
      25     1     1     2     0     0 -2.293218753E+02  4.388927490E+02 -9.956268794E+02  1.118978664E+03  1.250000000E+02  0.00000E+00  9.000E+00
       2     1     1     2   501     0 -1.525075649E+01 -1.585804160E+02  1.666172662E+02  2.305247217E+02  1.907348633E-06  0.00000E+00  9.000E+00
#rwgt            1           1   2.5040842403920540E-002           3        6489           0
</event>
<event>
      5   9999  3.19816E-02  4.46154E+01 -1.00000E+00  1.41959E-01
      21    -1     0     0   502   511  0.000000000E+00  0.000000000E+00  1.088871899E+02  1.088871899E+02  0.000000000E+00  0.00000E+00  9.000E+00
      21    -1     0     0   501   502  0.000000000E+00  0.000000000E+00 -8.709014378E+02  8.709014378E+02  0.000000000E+00  0.00000E+00  9.000E+00
      25     1     1     2     0     0  1.092381086E+00  1.160624063E+02 -2.866528311E+02  3.335663668E+02  1.250000000E+02  0.00000E+00  9.000E+00
      25     1     1     2     0     0  3.969118056E+01 -1.341520407E+02 -5.377417774E+02  5.695290853E+02  1.250000000E+02  0.00000E+00  9.000E+00
      21     1     1     2   501   511 -4.078356164E+01  1.808963436E+01  6.238036070E+01  7.669317553E+01  9.536743164E-07  0.00000E+00  9.000E+00
#rwgt            1           1   2.6977236384410293E-002           3        6627           0
</event>
<event>
      5   9999  3.19816E-02  1.08241E+02 -1.00000E+00  1.22301E-01
      21    -1     0     0   512   501  0.000000000E+00  0.000000000E+00  1.649529826E+02  1.649529826E+02  0.000000000E+00  0.00000E+00  9.000E+00
      21    -1     0     0   501   502  0.000000000E+00  0.000000000E+00 -1.647523676E+03  1.647523676E+03  0.000000000E+00  0.00000E+00  9.000E+00
      25     1     1     2     0     0  2.443795379E+01  4.760486571E+02 -9.630794595E+02  1.081834822E+03  1.250000000E+02  0.00000E+00  9.000E+00
      25     1     1     2     0     0  2.327908352E+01 -3.788930889E+02 -4.507672403E+02  6.024267537E+02  1.250000000E+02  0.00000E+00  9.000E+00
      21     1     1     2   512   502 -4.771703731E+01 -9.715556823E+01 -6.872399333E+01  1.282150824E+02  1.907348633E-06  0.00000E+00  9.000E+00
#rwgt            1           1   2.9239637876086202E-002           3        6722           0
</event>
<event>
      5   9999  3.19816E-02  3.64686E+02 -1.00000E+00  1.02908E-01
      21    -1     0     0   502   501  0.000000000E+00  0.000000000E+00  2.001216533E+03  2.001216533E+03  0.000000000E+00  0.00000E+00  9.000E+00
       2    -1     0     0   501     0  0.000000000E+00  0.000000000E+00 -1.303909692E+03  1.303909692E+03  0.000000000E+00  0.00000E+00  9.000E+00
      25     1     1     2     0     0 -7.098710328E+02 -5.973422349E+02  1.438039114E+00  9.361419213E+02  1.250000000E+02  0.00000E+00  9.000E+00
      25     1     1     2     0     0  3.878282190E+02  7.684678312E+02  1.358223332E+03  1.612869850E+03  1.250000000E+02  0.00000E+00  9.000E+00
       2     1     1     2   502     0  3.220428138E+02 -1.711255963E+02 -6.623545301E+02  7.561144537E+02  0.000000000E+00  0.00000E+00  9.000E+00
#rwgt            2          13   1.6590079265000768E-003           3        6811           0
</event>
<event>
      5   9999  3.19816E-02  5.58437E+00 -1.00000E+00  2.30425E-01
      21    -1     0     0   502   501  0.000000000E+00  0.000000000E+00  2.154216594E+01  2.154216594E+01  0.000000000E+00  0.00000E+00  9.000E+00
      21    -1     0     0   501   511  0.000000000E+00  0.000000000E+00 -3.115669729E+03  3.115669729E+03  0.000000000E+00  0.00000E+00  9.000E+00
      25     1     1     2     0     0  4.798218110E+01 -1.720811440E+02 -7.299268679E+02  7.617955384E+02  1.250000000E+02  0.00000E+00  9.000E+00
      25     1     1     2     0     0 -4.499616777E+01  1.768001426E+02 -2.192581138E+03  2.203705968E+03  1.250000000E+02  0.00000E+00  9.000E+00
      21     1     1     2   502   511 -2.986013328E+00 -4.718998541E+00 -1.716195569E+02  1.717103886E+02  1.907348633E-06  0.00000E+00  9.000E+00
#rwgt            1           1   3.5687022843605962E-002           3        6830           0
</event>
<event>
      5   9999  3.19816E-02  1.77490E+02 -1.00000E+00  1.13569E-01
      21    -1     0     0   502   501  0.000000000E+00  0.000000000E+00  1.488260073E+03  1.488260073E+03  0.000000000E+00  0.00000E+00  9.000E+00
      21    -1     0     0   512   502  0.000000000E+00  0.000000000E+00 -3.240655996E+02  3.240655996E+02  0.000000000E+00  0.00000E+00  9.000E+00
      25     1     1     2     0     0  2.853687176E+02 -1.668248685E+02  1.742298859E+02  3.940138257E+02  1.250000000E+02  0.00000E+00  9.000E+00
      25     1     1     2     0     0 -4.500099534E+02  1.005222365E+02  1.107012985E+03  1.205701633E+03  1.250000000E+02  0.00000E+00  9.000E+00
      21     1     1     2   512   501  1.646412358E+02  6.630263202E+01 -1.170483979E+02  2.126102138E+02  3.015782986E-06  0.00000E+00  9.000E+00
#rwgt            1           1   2.8163700038771097E-002           3        7092           0
</event>
<event>
      5   9999  3.19816E-02  9.01572E+01 -1.00000E+00  1.25886E-01
      21    -1     0     0   502   501  0.000000000E+00  0.000000000E+00  2.751880391E+02  2.751880391E+02  0.000000000E+00  0.00000E+00  9.000E+00
      21    -1     0     0   501   511  0.000000000E+00  0.000000000E+00 -1.182956932E+03  1.182956932E+03  0.000000000E+00  0.00000E+00  9.000E+00
      25     1     1     2     0     0  8.173622110E+01  1.469796096E+02  1.039462443E+02  2.339094637E+02  1.250000000E+02  0.00000E+00  9.000E+00
      25     1     1     2     0     0 -1.459962795E+02 -2.102169181E+02 -9.085781750E+01  2.989752654E+02  1.250000000E+02  0.00000E+00  9.000E+00
      21     1     1     2   502   511  6.426005845E+01  6.323730849E+01 -9.208573193E+02  9.252602417E+02  1.078959322E-05  0.00000E+00  9.000E+00
#rwgt            1           1   2.3496128066437999E-002           3        7128           0
</event>
<event>
      5   9999  3.19816E-02  8.66012E+00 -1.00000E+00  2.03268E-01
      21    -1     0     0   512   501  0.000000000E+00  0.000000000E+00  5.458740331E+01  5.458740331E+01  0.000000000E+00  0.00000E+00  9.000E+00
      21    -1     0     0   501   502  0.000000000E+00  0.000000000E+00 -8.928419225E+02  8.928419225E+02  0.000000000E+00  0.00000E+00  9.000E+00
      25     1     1     2     0     0 -1.198157006E+01  1.644450734E+02 -5.008166288E+02  5.418745573E+02  1.250000000E+02  0.00000E+00  9.000E+00
      25     1     1     2     0     0  1.484545157E+01 -1.726179508E+02 -3.334531040E+02  3.960218642E+02  1.250000000E+02  0.00000E+00  9.000E+00
      21     1     1     2   512   502 -2.863881517E+00  8.172877388E+00 -3.984786448E+00  9.532904341E+00  7.300048300E-08  0.00000E+00  9.000E+00
#rwgt            1           1   2.7563613037152043E-002           3        7207           0
</event>
<event>
      5   9999  3.19816E-02  1.38043E+02 -1.00000E+00  1.17842E-01
      21    -1     0     0   502   501  0.000000000E+00  0.000000000E+00  6.537223642E+02  6.537223642E+02  0.000000000E+00  0.00000E+00  9.000E+00
      21    -1     0     0   511   502  0.000000000E+00  0.000000000E+00 -3.000551175E+02  3.000551175E+02  0.000000000E+00  0.00000E+00  9.000E+00
      25     1     1     2     0     0 -3.241340705E+01 -1.983964350E+02  1.839929598E+02  2.998169169E+02  1.250000000E+02  0.00000E+00  9.000E+00
      25     1     1     2     0     0 -1.054899840E+02  1.921868953E+02  3.471073009E+02  4.291531403E+02  1.250000000E+02  0.00000E+00  9.000E+00
      21     1     1     2   511   501  1.379033911E+02  6.209539643E+00 -1.774330141E+02  2.248074245E+02  1.907348633E-06  0.00000E+00  9.000E+00
#rwgt            1           1   2.5651450367660596E-002           3        7381           0
</event>
<event>
      5   9999  3.19816E-02  1.00544E+02 -1.00000E+00  1.23722E-01
      21    -1     0     0   502   501  0.000000000E+00  0.000000000E+00  1.036405487E+03  1.036405487E+03  0.000000000E+00  0.00000E+00  9.000E+00
      21    -1     0     0   501   512  0.000000000E+00  0.000000000E+00 -6.459616743E+02  6.459616743E+02  0.000000000E+00  0.00000E+00  9.000E+00
      25     1     1     2     0     0 -2.319625710E+02  4.590165243E+01  9.487952076E+02  9.857742855E+02  1.250000000E+02  0.00000E+00  9.000E+00
      25     1     1     2     0     0  1.320685650E+02 -5.731809340E+01 -7.828274479E+01  2.061083643E+02  1.250000000E+02  0.00000E+00  9.000E+00
      21     1     1     2   502   512  9.989400596E+01  1.141644097E+01 -4.800686499E+02  4.904845116E+02  0.000000000E+00  0.00000E+00  9.000E+00
#rwgt            1           1   3.1038828268757972E-002           3        7470           0
</event>
<event>
      5   9999  3.19816E-02  1.86394E+02 -1.00000E+00  1.12773E-01
       2    -1     0     0   502     0  0.000000000E+00  0.000000000E+00  9.096099831E+02  9.096099831E+02  0.000000000E+00  0.00000E+00  9.000E+00
      21    -1     0     0   501   502  0.000000000E+00  0.000000000E+00 -4.188039610E+02  4.188039610E+02  0.000000000E+00  0.00000E+00  9.000E+00
      25     1     1     2     0     0  2.186300607E+01 -2.571843034E+02  6.328244370E+01  2.936859285E+02  1.250000000E+02  0.00000E+00  9.000E+00
      25     1     1     2     0     0 -2.081838834E+02  2.519484388E+02 -1.840569955E+02  3.953739024E+02  1.250000000E+02  0.00000E+00  9.000E+00
       2     1     1     2   501     0  1.863208773E+02  5.235864583E+00  6.115805739E+02  6.393541131E+02  7.629394531E-06  0.00000E+00  9.000E+00
#rwgt            1           1   2.8211041276654386E-002           3        7553           0
</event>
<event>
      5   9999  3.19816E-02  3.56253E+02 -1.00000E+00  1.03222E-01
       1    -1     0     0   502     0  0.000000000E+00  0.000000000E+00  6.858150560E+02  6.858150560E+02  0.000000000E+00  0.00000E+00  9.000E+00
      21    -1     0     0   501   502  0.000000000E+00  0.000000000E+00 -1.244935404E+03  1.244935404E+03  0.000000000E+00  0.00000E+00  9.000E+00
      25     1     1     2     0     0  4.584528898E+02  5.217384562E+02 -5.291557839E+02  8.820549373E+02  1.250000000E+02  0.00000E+00  9.000E+00
      25     1     1     2     0     0 -1.326760436E+02 -6.659096726E+02 -4.725511496E+01  6.920236054E+02  1.250000000E+02  0.00000E+00  9.000E+00
       1     1     1     2   501     0 -3.257768462E+02  1.441712164E+02  1.729055118E+01  3.566719170E+02  3.242843272E-06  0.00000E+00  9.000E+00
#rwgt            2          17   1.9681508016124166E-004           3        7592           0
</event>
<event>
      5   9999  3.19816E-02  6.39558E+01 -1.00000E+00  1.33238E-01
       2    -1     0     0   502     0  0.000000000E+00  0.000000000E+00  2.039841942E+03  2.039841942E+03  0.000000000E+00  0.00000E+00  9.000E+00
      21    -1     0     0   501   502  0.000000000E+00  0.000000000E+00 -5.956716102E+02  5.956716102E+02  0.000000000E+00  0.00000E+00  9.000E+00
      25     1     1     2     0     0  5.880997412E+02 -8.464409960E+00  1.705375816E+01  6.015386791E+02  1.250000000E+02  0.00000E+00  9.000E+00
      25     1     1     2     0     0 -6.508333665E+02  2.090766493E+01  6.044497015E+01  6.658076267E+02  1.250000000E+02  0.00000E+00  9.000E+00
       2     1     1     2   501     0  6.273362530E+01 -1.244325497E+01  1.366671603E+03  1.368167246E+03  0.000000000E+00  0.00000E+00  9.000E+00
#rwgt            1           1   3.5734277002482995E-002           3        7611           0
</event>
<event>
      5   9999  3.19816E-02  1.31350E+02 -1.00000E+00  1.18726E-01
      21    -1     0     0   502   501  0.000000000E+00  0.000000000E+00  3.525945937E+02  3.525945937E+02  0.000000000E+00  0.00000E+00  9.000E+00
      21    -1     0     0   511   502  0.000000000E+00  0.000000000E+00 -7.809120422E+02  7.809120422E+02  0.000000000E+00  0.00000E+00  9.000E+00
      25     1     1     2     0     0  1.662599863E+02 -3.795812924E+02 -1.538426033E+02  4.593657444E+02  1.250000000E+02  0.00000E+00  9.000E+00
      25     1     1     2     0     0 -2.945162856E+02  3.512408178E+02 -1.643640602E+02  5.027429750E+02  1.250000000E+02  0.00000E+00  9.000E+00
      21     1     1     2   511   501  1.282562993E+02  2.834047459E+01 -1.101107850E+02  1.713979166E+02  1.348699152E-06  0.00000E+00  9.000E+00
#rwgt            1           1   2.9111112125307176E-002           3        7736           0
</event>
<event>
      5   9999  3.19816E-02  5.61467E+01 -1.00000E+00  1.36262E-01
      21    -1     0     0   502   501  0.000000000E+00  0.000000000E+00  1.193804803E+03  1.193804803E+03  0.000000000E+00  0.00000E+00  9.000E+00
      21    -1     0     0   501   512  0.000000000E+00  0.000000000E+00 -7.168750971E+01  7.168750971E+01  0.000000000E+00  0.00000E+00  9.000E+00
      25     1     1     2     0     0 -1.332759558E+02  2.235826075E+01  4.706170639E+02  5.053392851E+02  1.250000000E+02  0.00000E+00  9.000E+00
      25     1     1     2     0     0  9.037437494E+01  1.386204272E+01  6.798418456E+02  6.972586457E+02  1.250000000E+02  0.00000E+00  9.000E+00
      21     1     1     2   502   512  4.290158087E+01 -3.622030348E+01 -2.834161650E+01  6.289438171E+01  2.185142372E-06  0.00000E+00  9.000E+00
#rwgt            1           1   2.4068430044172209E-002           3        7826           0
</event>
<event>
      5   9999  3.19816E-02  1.99752E+01 -1.00000E+00  1.66414E-01
      21    -1     0     0   502   511  0.000000000E+00  0.000000000E+00  5.031238318E+02  5.031238318E+02  0.000000000E+00  0.00000E+00  9.000E+00
      21    -1     0     0   501   502  0.000000000E+00  0.000000000E+00 -1.937699575E+02  1.937699575E+02  0.000000000E+00  0.00000E+00  9.000E+00
      25     1     1     2     0     0  2.167379060E+02 -8.153806419E+01 -3.112950696E+01  2.649864563E+02  1.250000000E+02  0.00000E+00  9.000E+00
      25     1     1     2     0     0 -1.979697074E+02  7.469962115E+01  3.152749862E+02  3.997441124E+02  1.250000000E+02  0.00000E+00  9.000E+00
      21     1     1     2   501   511 -1.876819865E+01  6.838443041E+00  2.520839500E+01  3.216322065E+01  5.840038640E-07  0.00000E+00  9.000E+00
#rwgt            1           1   2.8058837420398341E-002           3        7934           0
</event>
<event>
      5   9999  3.19816E-02  1.43534E+01 -1.00000E+00  1.79206E-01
      21    -1     0     0   512   501  0.000000000E+00  0.000000000E+00  5.362213354E+02  5.362213354E+02  0.000000000E+00  0.00000E+00  9.000E+00
      21    -1     0     0   501   502  0.000000000E+00  0.000000000E+00 -1.387834440E+02  1.387834440E+02  0.000000000E+00  0.00000E+00  9.000E+00
      25     1     1     2     0     0 -5.924470560E+01 -1.077144643E+02 -5.657486521E+01  1.842228442E+02  1.250000000E+02  0.00000E+00  9.000E+00
      25     1     1     2     0     0  4.496516519E+01  1.091687613E+02  4.148348746E+02  4.490575216E+02  1.250000000E+02  0.00000E+00  9.000E+00
      21     1     1     2   512   502  1.427954041E+01 -1.454297012E+00  3.917788200E+01  4.172441362E+01  9.536743164E-07  0.00000E+00  9.000E+00
#rwgt            1           1   2.6501776081138954E-002           3        8082           0
</event>
<event>
      5   9999  3.19816E-02  4.01899E+01 -1.00000E+00  1.44713E-01
      21    -1     0     0   502   501  0.000000000E+00  0.000000000E+00  5.129696662E+02  5.129696662E+02  0.000000000E+00  0.00000E+00  9.000E+00
      21    -1     0     0   511   502  0.000000000E+00  0.000000000E+00 -1.658237636E+02  1.658237636E+02  0.000000000E+00  0.00000E+00  9.000E+00
      25     1     1     2     0     0 -7.548921890E+01  7.231631759E+01 -7.354885729E+01  1.787811689E+02  1.250000000E+02  0.00000E+00  9.000E+00
      25     1     1     2     0     0  1.119045556E+02 -8.932082519E+01  4.186438223E+02  4.597700396E+02  1.250000000E+02  0.00000E+00  9.000E+00
      21     1     1     2   511   501 -3.641533673E+01  1.700450760E+01  2.050937613E+00  4.024222127E+01  8.570434954E-07  0.00000E+00  9.000E+00
#rwgt            1           1   2.7805979875563210E-002           3        8223           0
</event>
<event>
      5   9999  3.19816E-02  9.70201E+01 -1.00000E+00  1.24422E-01
      21    -1     0     0   502   501  0.000000000E+00  0.000000000E+00  3.309988061E+02  3.309988061E+02  0.000000000E+00  0.00000E+00  9.000E+00
       2    -1     0     0   501     0  0.000000000E+00  0.000000000E+00 -1.064903438E+03  1.064903438E+03  0.000000000E+00  0.00000E+00  9.000E+00
      25     1     1     2     0     0 -2.226822096E+02 -2.131090072E+02  6.467518729E+01  3.388372696E+02  1.250000000E+02  0.00000E+00  9.000E+00
      25     1     1     2     0     0  1.820236913E+02  3.011986601E+02 -1.519480792E+02  4.031953321E+02  1.250000000E+02  0.00000E+00  9.000E+00
       2     1     1     2   502     0  4.065851832E+01 -8.808965283E+01 -6.466317404E+02  6.538696428E+02  7.629394531E-06  0.00000E+00  9.000E+00
#rwgt            1           1   2.6209122788629968E-002           3        8334           0
</event>
<event>
      5   9999  3.19816E-02  1.33994E+02 -1.00000E+00  1.18370E-01
      21    -1     0     0   502   501  0.000000000E+00  0.000000000E+00  3.391537925E+02  3.391537925E+02  0.000000000E+00  0.00000E+00  9.000E+00
      21    -1     0     0   501   511  0.000000000E+00  0.000000000E+00 -8.798312213E+02  8.798312213E+02  0.000000000E+00  0.00000E+00  9.000E+00
      25     1     1     2     0     0  1.804648589E+02  9.922075854E+01 -2.899393756E+02  3.769644091E+02  1.250000000E+02  0.00000E+00  9.000E+00
      25     1     1     2     0     0 -3.136960191E+02 -1.134944687E+02  1.741290143E+02  3.965250313E+02  1.250000000E+02  0.00000E+00  9.000E+00
      21     1     1     2   502   511  1.332311602E+02  1.427371013E+01 -4.248670676E+02  4.454955734E+02  9.344061824E-06  0.00000E+00  9.000E+00
#rwgt            1           1   2.7398781967156366E-002           3        8418           0
</event>
<event>
      5   9999  3.40345E-02  8.13389E+01 -1.00000E+00  1.28002E-01
      21    -1     0     0   502   501  0.000000000E+00  0.000000000E+00  2.557089141E+03  2.557089141E+03  0.000000000E+00  0.00000E+00  9.000E+00
      21    -1     0     0   512   502  0.000000000E+00  0.000000000E+00 -4.403121847E+01  4.403121847E+01  0.000000000E+00  0.00000E+00  9.000E+00
      25     1     1     2     0     0 -1.900665230E+02 -2.531901771E+01  1.162423948E+03  1.184745024E+03  1.250000000E+02  0.00000E+00  9.000E+00
      25     1     1     2     0     0  1.979673259E+02 -5.563524253E+01  1.296557127E+03  1.318700772E+03  1.250000000E+02  0.00000E+00  9.000E+00
      21     1     1     2   512   501 -7.900802879E+00  8.095426024E+01  5.407684654E+01  9.767456306E+01  6.743495762E-07  0.00000E+00  9.000E+00
#rwgt            1           1   8.6997768513576698E-002           3        8550           0
</event>
<event>
      5   9999  3.19816E-02  2.71546E+02 -1.00000E+00  1.07017E-01
      21    -1     0     0   502   501  0.000000000E+00  0.000000000E+00  6.831613817E+02  6.831613817E+02  0.000000000E+00  0.00000E+00  9.000E+00
      21    -1     0     0   511   502  0.000000000E+00  0.000000000E+00 -3.835279913E+02  3.835279913E+02  0.000000000E+00  0.00000E+00  9.000E+00
      25     1     1     2     0     0  1.658669339E+02 -8.932319960E+01  1.736477460E+02  2.850772061E+02  1.250000000E+02  0.00000E+00  9.000E+00
      25     1     1     2     0     0 -4.352271718E+02  1.237106251E+02  1.835587293E+02  5.040295794E+02  1.250000000E+02  0.00000E+00  9.000E+00
      21     1     1     2   511   501  2.693602379E+02 -3.438742552E+01 -5.757308485E+01  2.775825875E+02  4.720447033E-06  0.00000E+00  9.000E+00
#rwgt            2          11   3.2275736724410747E-003           3        8752           0
</event>
<event>
      5   9999  3.19816E-02  7.67088E+01 -1.00000E+00  1.29239E-01
      21    -1     0     0   502   501  0.000000000E+00  0.000000000E+00  8.672945659E+02  8.672945659E+02  0.000000000E+00  0.00000E+00  9.000E+00
       2    -1     0     0   501     0  0.000000000E+00  0.000000000E+00 -5.246922779E+02  5.246922779E+02  0.000000000E+00  0.00000E+00  9.000E+00
      25     1     1     2     0     0  2.164894172E+02 -1.375832302E+02 -2.901245523E+01  2.868162052E+02  1.250000000E+02  0.00000E+00  9.000E+00
      25     1     1     2     0     0 -1.783040377E+02  7.105415826E+01  7.163109584E+02  7.520421613E+02  1.250000000E+02  0.00000E+00  9.000E+00
       2     1     1     2   502     0 -3.818537958E+01  6.652907196E+01 -3.446962152E+02  3.531284772E+02  3.814697266E-06  0.00000E+00  9.000E+00
#rwgt            1           1   2.7419440779782721E-002           3        8772           0
</event>
<event>
      5   9999  3.19816E-02  3.63884E+01 -1.00000E+00  1.47436E-01
      21    -1     0     0   502   501  0.000000000E+00  0.000000000E+00  1.409759674E+02  1.409759674E+02  0.000000000E+00  0.00000E+00  9.000E+00
       1    -1     0     0   501     0  0.000000000E+00  0.000000000E+00 -6.500109125E+02  6.500109125E+02  0.000000000E+00  0.00000E+00  9.000E+00
      25     1     1     2     0     0 -4.919581969E+01 -1.928893781E+02 -8.146949382E+01  2.487746356E+02  1.250000000E+02  0.00000E+00  9.000E+00
      25     1     1     2     0     0  7.124175049E+01  2.218392335E+02 -2.603126333E+02  3.710467620E+02  1.250000000E+02  0.00000E+00  9.000E+00
       1     1     1     2   502     0 -2.204593080E+01 -2.894985540E+01 -1.672528180E+02  1.711654823E+02  1.907348633E-06  0.00000E+00  9.000E+00
#rwgt            1           1   2.6897879551886765E-002           3        8890           0
</event>
<event>
      5   9999  3.19816E-02  1.56724E+02 -1.00000E+00  1.15644E-01
       2    -1     0     0   502     0  0.000000000E+00  0.000000000E+00  2.120430250E+03  2.120430250E+03  0.000000000E+00  0.00000E+00  9.000E+00
      21    -1     0     0   501   502  0.000000000E+00  0.000000000E+00 -4.078938924E+01  4.078938924E+01  0.000000000E+00  0.00000E+00  9.000E+00
      25     1     1     2     0     0  9.642543454E+01 -2.034081800E+02  7.944773428E+02  8.351598651E+02  1.250000000E+02  0.00000E+00  9.000E+00
      25     1     1     2     0     0 -9.840702967E+01  4.669632917E+01  5.534973496E+02  5.777965097E+02  1.250000000E+02  0.00000E+00  9.000E+00
       2     1     1     2   501     0  1.981595122E+00  1.567118508E+02  7.316661689E+02  7.482632649E+02  1.078959322E-05  0.00000E+00  9.000E+00
#rwgt            1           1   2.8704750980991005E-002           3        8983           0
</event>
<event>
      5   9999  3.19816E-02  1.37054E+01 -1.00000E+00  1.81158E-01
      21    -1     0     0   502   511  0.000000000E+00  0.000000000E+00  6.862567873E+02  6.862567873E+02  0.000000000E+00  0.00000E+00  9.000E+00
      21    -1     0     0   501   502  0.000000000E+00  0.000000000E+00 -2.565655217E+02  2.565655217E+02  0.000000000E+00  0.00000E+00  9.000E+00
      25     1     1     2     0     0 -1.294789708E+02  9.241683537E+01 -1.918804735E+02  2.788347028E+02  1.250000000E+02  0.00000E+00  9.000E+00
      25     1     1     2     0     0  1.179705599E+02 -8.497416134E+01  4.171206132E+02  4.590776264E+02  1.250000000E+02  0.00000E+00  9.000E+00
      21     1     1     2   501   511  1.150841093E+01 -7.442674030E+00  2.044511259E+02  2.049099798E+02  3.814697266E-06  0.00000E+00  9.000E+00
#rwgt            1           1   2.6079983901057081E-002           3        9020           0
</event>
<event>
      5   9999  3.19816E-02  1.78982E+01 -1.00000E+00  1.70449E-01
      21    -1     0     0   512   501  0.000000000E+00  0.000000000E+00  4.810304059E+01  4.810304059E+01  0.000000000E+00  0.00000E+00  9.000E+00
      21    -1     0     0   501   502  0.000000000E+00  0.000000000E+00 -1.091486629E+03  1.091486629E+03  0.000000000E+00  0.00000E+00  9.000E+00
      25     1     1     2     0     0  1.316753205E+02  1.149736696E+02 -6.327568288E+02  6.682540978E+02  1.250000000E+02  0.00000E+00  9.000E+00
      25     1     1     2     0     0 -1.178431344E+02 -1.263321496E+02 -3.725324494E+02  4.292461324E+02  1.250000000E+02  0.00000E+00  9.000E+00
      21     1     1     2   512   502 -1.383218618E+01  1.135847994E+01 -3.809431011E+01  4.208943934E+01  9.536743164E-07  0.00000E+00  9.000E+00
#rwgt            1           1   2.8252666497337323E-002           3        9222           0
</event>
<event>
      5   9999  3.19816E-02  5.34942E+01 -1.00000E+00  1.37422E-01
      21    -1     0     0   502   501  0.000000000E+00  0.000000000E+00  1.932328362E+02  1.932328362E+02  0.000000000E+00  0.00000E+00  9.000E+00
      21    -1     0     0   501   511  0.000000000E+00  0.000000000E+00 -9.776842935E+02  9.776842935E+02  0.000000000E+00  0.00000E+00  9.000E+00
      25     1     1     2     0     0  8.290660419E+01 -1.032863238E+02  1.257802499E+02  2.213306146E+02  1.250000000E+02  0.00000E+00  9.000E+00
      25     1     1     2     0     0 -7.158935523E+01  1.555697027E+02 -7.906717450E+02  8.186047744E+02  1.250000000E+02  0.00000E+00  9.000E+00
      21     1     1     2   502   511 -1.131724896E+01 -5.228337892E+01 -1.195599621E+02  1.309817407E+02  2.336015456E-06  0.00000E+00  9.000E+00
#rwgt            1           1   2.8170151354486736E-002           3        9361           0
</event>
<event>
      5   9999  3.19816E-02  1.44649E+01 -1.00000E+00  1.78883E-01
      21    -1     0     0   502   501  0.000000000E+00  0.000000000E+00  1.848190346E+02  1.848190346E+02  0.000000000E+00  0.00000E+00  9.000E+00
      21    -1     0     0   501   512  0.000000000E+00  0.000000000E+00 -5.219529155E+02  5.219529155E+02  0.000000000E+00  0.00000E+00  9.000E+00
      25     1     1     2     0     0 -2.137646629E+02 -5.612128020E+01 -1.398157331E+02  2.898592217E+02  1.250000000E+02  0.00000E+00  9.000E+00
      25     1     1     2     0     0  2.254726169E+02  6.461586295E+01 -5.192660428E+01  2.708034028E+02  1.250000000E+02  0.00000E+00  9.000E+00
      21     1     1     2   502   512 -1.170795404E+01 -8.494582752E+00 -1.453915435E+02  1.461093257E+02  1.907348633E-06  0.00000E+00  9.000E+00
#rwgt            1           1   2.6225330733375917E-002           3        9458           0
</event>
<event>
      5   9999  3.19816E-02  1.15364E+02 -1.00000E+00  1.21099E-01
      21    -1     0     0   502   501  0.000000000E+00  0.000000000E+00  6.854107961E+02  6.854107961E+02  0.000000000E+00  0.00000E+00  9.000E+00
      21    -1     0     0   501   511  0.000000000E+00  0.000000000E+00 -7.181494416E+02  7.181494416E+02  0.000000000E+00  0.00000E+00  9.000E+00
      25     1     1     2     0     0 -5.274125725E+02  1.701435147E+02  3.026127665E+02  6.436709747E+02  1.250000000E+02  0.00000E+00  9.000E+00
      25     1     1     2     0     0  4.236560163E+02 -2.205769041E+02 -1.086726312E+02  5.055426110E+02  1.250000000E+02  0.00000E+00  9.000E+00
      21     1     1     2   502   511  1.037565562E+02  5.043338940E+01 -2.266787808E+02  2.543466520E+02  2.697398305E-06  0.00000E+00  9.000E+00
#rwgt            1           1   3.0291891800282071E-002           3        9619           0
</event>
<event>
      5   9999  3.19816E-02  2.36549E+02 -1.00000E+00  1.09057E-01
      21    -1     0     0   502   512  0.000000000E+00  0.000000000E+00  9.313252239E+02  9.313252239E+02  0.000000000E+00  0.00000E+00  9.000E+00
      21    -1     0     0   501   502  0.000000000E+00  0.000000000E+00 -5.156153912E+02  5.156153912E+02  0.000000000E+00  0.00000E+00  9.000E+00
      25     1     1     2     0     0  1.848280076E+02  1.474750958E+02 -3.625364095E+02  4.505196383E+02  1.250000000E+02  0.00000E+00  9.000E+00
      25     1     1     2     0     0  3.988745030E+01 -2.213568801E+02  9.653315132E+01  2.748336340E+02  1.250000000E+02  0.00000E+00  9.000E+00
      21     1     1     2   501   512 -2.247154579E+02  7.388178429E+01  6.817130909E+02  7.215873428E+02  7.629394531E-06  0.00000E+00  9.000E+00
#rwgt            1           1   2.7061716908476204E-002           3        9709           0
</event>
<event>
      5   9999  3.19816E-02  5.00361E+01 -1.00000E+00  1.39058E-01
      21    -1     0     0   511   501  0.000000000E+00  0.000000000E+00  1.025316244E+02  1.025316244E+02  0.000000000E+00  0.00000E+00  9.000E+00
      21    -1     0     0   501   502  0.000000000E+00  0.000000000E+00 -1.357449021E+03  1.357449021E+03  0.000000000E+00  0.00000E+00  9.000E+00
      25     1     1     2     0     0  2.534585058E+02 -1.428851177E+02 -8.473068423E+02  9.045503060E+02  1.250000000E+02  0.00000E+00  9.000E+00
      25     1     1     2     0     0 -2.252037753E+02  1.841801229E+02 -3.900610415E+02  5.024058859E+02  1.250000000E+02  0.00000E+00  9.000E+00
      21     1     1     2   511   502 -2.825473044E+01 -4.129500519E+01 -1.754951251E+01  5.302445318E+01  8.920806376E-07  0.00000E+00  9.000E+00
#rwgt            1           1   2.6078702545566306E-002           3        9770           0
</event>
<event>
      5   9999  3.19816E-02  5.86175E+00 -1.00000E+00  2.27056E-01
      21    -1     0     0   502   501  0.000000000E+00  0.000000000E+00  3.623499489E+02  3.623499489E+02  0.000000000E+00  0.00000E+00  9.000E+00
      21    -1     0     0   512   502  0.000000000E+00  0.000000000E+00 -9.203720461E+02  9.203720461E+02  0.000000000E+00  0.00000E+00  9.000E+00
      25     1     1     2     0     0 -7.302952512E+01 -4.727791553E+02 -5.838888123E+02  7.651173677E+02  1.250000000E+02  0.00000E+00  9.000E+00
      25     1     1     2     0     0  6.830117695E+01  4.762436722E+02  4.353209172E+01  4.989921132E+02  1.250000000E+02  0.00000E+00  9.000E+00
      21     1     1     2   512   501  4.728348171E+00 -3.464516886E+00 -1.766537658E+01  1.861251416E+01  2.384185791E-07  0.00000E+00  9.000E+00
#rwgt            1           1   3.1491230800444601E-002           3        9883           0
</event>
<event>
      5   9999  3.19816E-02  4.49747E+01 -1.00000E+00  1.41752E-01
      21    -1     0     0   502   501  0.000000000E+00  0.000000000E+00  5.556783441E+02  5.556783441E+02  0.000000000E+00  0.00000E+00  9.000E+00
      21    -1     0     0   501   511  0.000000000E+00  0.000000000E+00 -6.774806728E+02  6.774806728E+02  0.000000000E+00  0.00000E+00  9.000E+00
      25     1     1     2     0     0  3.300384854E+02  1.542879046E+01 -3.992705279E+02  5.331091857E+02  1.250000000E+02  0.00000E+00  9.000E+00
      25     1     1     2     0     0 -3.391719750E+02  2.860868921E+01  4.174955961E+02  5.529770868E+02  1.250000000E+02  0.00000E+00  9.000E+00
      21     1     1     2   502   511  9.133489587E+00 -4.403747967E+01 -1.400273969E+02  1.470727443E+02  0.000000000E+00  0.00000E+00  9.000E+00
#rwgt            1           1   2.5900737075835113E-002           3       10285           0
</event>
<event>
      5   9999  3.19816E-02  3.69631E+01 -1.00000E+00  1.46999E-01
      21    -1     0     0   502   501  0.000000000E+00  0.000000000E+00  7.074747917E+02  7.074747917E+02  0.000000000E+00  0.00000E+00  9.000E+00
      21    -1     0     0   512   502  0.000000000E+00  0.000000000E+00 -5.668679501E+02  5.668679501E+02  0.000000000E+00  0.00000E+00  9.000E+00
      25     1     1     2     0     0 -1.259546851E+02  4.158042843E+02  4.795420092E+02  6.590472852E+02  1.250000000E+02  0.00000E+00  9.000E+00
      25     1     1     2     0     0  8.900365030E+01 -4.148595563E+02 -2.265156154E+02  4.969551541E+02  1.250000000E+02  0.00000E+00  9.000E+00
      21     1     1     2   512   501  3.695103477E+01 -9.447280522E-01 -1.124195521E+02  1.183403025E+02  0.000000000E+00  0.00000E+00  9.000E+00
#rwgt            1           1   2.5947394487238758E-002           3       10371           0
</event>
<event>
      5   9999  3.19816E-02  1.52431E+02 -1.00000E+00  1.16118E-01
      21    -1     0     0   502   511  0.000000000E+00  0.000000000E+00  6.287296458E+02  6.287296458E+02  0.000000000E+00  0.00000E+00  9.000E+00
      21    -1     0     0   501   502  0.000000000E+00  0.000000000E+00 -6.957362238E+02  6.957362238E+02  0.000000000E+00  0.00000E+00  9.000E+00
      25     1     1     2     0     0 -2.260092965E+02  1.336947774E+02 -5.215686250E+02  5.971711030E+02  1.250000000E+02  0.00000E+00  9.000E+00
      25     1     1     2     0     0  3.766429232E+02 -1.103564761E+02  2.951383422E+02  5.067248607E+02  1.250000000E+02  0.00000E+00  9.000E+00
      21     1     1     2   501   511 -1.506336266E+02 -2.333830127E+01  1.594237047E+02  2.205699059E+02  2.697398305E-06  0.00000E+00  9.000E+00
#rwgt            1           1   2.9029173318073372E-002           3       10495           0
</event>
<event>
      5   9999  3.19816E-02  4.05380E+01 -1.00000E+00  1.44481E-01
      21    -1     0     0   512   501  0.000000000E+00  0.000000000E+00  2.109579341E+03  2.109579341E+03  0.000000000E+00  0.00000E+00  9.000E+00
      21    -1     0     0   501   502  0.000000000E+00  0.000000000E+00 -1.331991808E+02  1.331991808E+02  0.000000000E+00  0.00000E+00  9.000E+00
      25     1     1     2     0     0  2.471181615E+02 -2.001929594E+02  7.228193239E+02  7.995232215E+02  1.250000000E+02  0.00000E+00  9.000E+00
      25     1     1     2     0     0 -2.795797280E+02  2.244741141E+02  2.873163801E+02  4.761608494E+02  1.250000000E+02  0.00000E+00  9.000E+00
      21     1     1     2   512   502  3.246156643E+01 -2.428115475E+01  9.662444566E+02  9.670944513E+02  1.078959322E-05  0.00000E+00  9.000E+00
#rwgt            1           1   2.7421360821593702E-002           3       10553           0
</event>
<event>
      5   9999  3.19816E-02  1.58514E+01 -1.00000E+00  1.75154E-01
      21    -1     0     0   511   501  0.000000000E+00  0.000000000E+00  2.847129589E+03  2.847129589E+03  0.000000000E+00  0.00000E+00  9.000E+00
      21    -1     0     0   501   502  0.000000000E+00  0.000000000E+00 -9.188385786E+01  9.188385786E+01  0.000000000E+00  0.00000E+00  9.000E+00
      25     1     1     2     0     0  3.231950156E+02 -3.197130849E+02  1.252153427E+03  1.337977832E+03  1.250000000E+02  0.00000E+00  9.000E+00
      25     1     1     2     0     0 -3.388879762E+02  3.174776169E+02  1.135927943E+03  1.233529242E+03  1.250000000E+02  0.00000E+00  9.000E+00
      21     1     1     2   511   502  1.569296060E+01  2.235468029E+00  3.671643607E+02  3.675063729E+02  5.394796609E-06  0.00000E+00  9.000E+00
#rwgt            1           1   7.8855144992316051E-002           3       10701           0
</event>
<event>
      5   9999  3.19816E-02  7.97834E+01 -1.00000E+00  1.28407E-01
      21    -1     0     0   502   512  0.000000000E+00  0.000000000E+00  1.586489043E+03  1.586489043E+03  0.000000000E+00  0.00000E+00  9.000E+00
      21    -1     0     0   501   502  0.000000000E+00  0.000000000E+00 -2.338369308E+02  2.338369308E+02  0.000000000E+00  0.00000E+00  9.000E+00
      25     1     1     2     0     0 -2.710704025E+02  4.226774864E+02  7.495651682E+02  9.108283933E+02  1.250000000E+02  0.00000E+00  9.000E+00
      25     1     1     2     0     0  1.945817729E+02 -3.999866720E+02  2.084568978E+02  5.068833025E+02  1.250000000E+02  0.00000E+00  9.000E+00
      21     1     1     2   501   512  7.648862959E+01 -2.269081443E+01  3.946300457E+02  4.026142775E+02  0.000000000E+00  0.00000E+00  9.000E+00
#rwgt            1           1   2.9077872318479889E-002           3       10942           0
</event>
<event>
      5   9999  3.19816E-02  2.10186E+02 -1.00000E+00  1.10868E-01
      21    -1     0     0   502   501  0.000000000E+00  0.000000000E+00  1.750448837E+03  1.750448837E+03  0.000000000E+00  0.00000E+00  9.000E+00
      21    -1     0     0   501   511  0.000000000E+00  0.000000000E+00 -2.901671355E+02  2.901671355E+02  0.000000000E+00  0.00000E+00  9.000E+00
      25     1     1     2     0     0  4.004212113E+02  1.576788189E+02  1.347229945E+03  1.419807480E+03  1.250000000E+02  0.00000E+00  9.000E+00
      25     1     1     2     0     0 -2.351749494E+02 -2.778731632E+01  2.529201122E+02  3.683381258E+02  1.250000000E+02  0.00000E+00  9.000E+00
      21     1     1     2   502   511 -1.652462619E+02 -1.298915026E+02 -1.398683550E+02  2.524703671E+02  7.629394531E-06  0.00000E+00  9.000E+00
#rwgt            2          11   7.8622131095339512E-003           3       11179           0
</event>
<event>
      5   9999  3.19816E-02  6.49707E+01 -1.00000E+00  1.32882E-01
      21    -1     0     0   502   501  0.000000000E+00  0.000000000E+00  4.082768916E+02  4.082768916E+02  0.000000000E+00  0.00000E+00  9.000E+00
      21    -1     0     0   512   502  0.000000000E+00  0.000000000E+00 -2.413494585E+02  2.413494585E+02  0.000000000E+00  0.00000E+00  9.000E+00
      25     1     1     2     0     0 -4.252234386E+01 -7.318907100E+01  2.022950674E+02  2.524145086E+02  1.250000000E+02  0.00000E+00  9.000E+00
      25     1     1     2     0     0  4.084410200E+01  1.381380987E+02  1.223787366E+02  2.266096427E+02  1.250000000E+02  0.00000E+00  9.000E+00
      21     1     1     2   512   501  1.678241861E+00 -6.494902771E+01 -1.577463710E+02  1.706021988E+02  2.697398305E-06  0.00000E+00  9.000E+00
#rwgt            1           1   2.2828471210535627E-002           3       11199           0
</event>
<event>
      5   9999  3.19816E-02  4.47160E+01 -1.00000E+00  1.41901E-01
      21    -1     0     0   502   511  0.000000000E+00  0.000000000E+00  2.177057155E+02  2.177057155E+02  0.000000000E+00  0.00000E+00  9.000E+00
      21    -1     0     0   501   502  0.000000000E+00  0.000000000E+00 -8.202829983E+02  8.202829983E+02  0.000000000E+00  0.00000E+00  9.000E+00
      25     1     1     2     0     0 -8.874068681E+01  1.569239206E+02 -4.886309260E+02  5.356166617E+02  1.250000000E+02  0.00000E+00  9.000E+00
      25     1     1     2     0     0  4.412470257E+01 -1.539351149E+02 -2.712210634E+02  3.388640940E+02  1.250000000E+02  0.00000E+00  9.000E+00
      21     1     1     2   501   511  4.461598424E+01 -2.988805742E+00  1.572747067E+02  1.635079582E+02  4.672030912E-06  0.00000E+00  9.000E+00
#rwgt            1           1   3.2729276097627151E-002           3       11261           0
</event>
<event>
      5   9999  3.19816E-02  1.34484E+02 -1.00000E+00  1.18305E-01
       3    -1     0     0   502     0  0.000000000E+00  0.000000000E+00  1.420088029E+03  1.420088029E+03  0.000000000E+00  0.00000E+00  9.000E+00
      21    -1     0     0   501   502  0.000000000E+00  0.000000000E+00 -2.897561819E+02  2.897561819E+02  0.000000000E+00  0.00000E+00  9.000E+00
      25     1     1     2     0     0  2.458190374E+02 -3.690476300E+02  4.332065437E+01  4.627362440E+02  1.250000000E+02  0.00000E+00  9.000E+00
      25     1     1     2     0     0 -2.377899325E+02  2.348038477E+02  3.566952492E+02  5.045130322E+02  1.250000000E+02  0.00000E+00  9.000E+00
       3     1     1     2   501     0 -8.029104982E+00  1.342437823E+02  7.303159440E+02  7.425949351E+02  1.078959322E-05  0.00000E+00  9.000E+00
#rwgt            1           1   2.7545191924392951E-002           3       11402           0
</event>
<event>
      5   9999  3.19816E-02  7.26952E+01 -1.00000E+00  1.30395E-01
      21    -1     0     0   502   501  0.000000000E+00  0.000000000E+00  5.907454996E+02  5.907454996E+02  0.000000000E+00  0.00000E+00  9.000E+00
      21    -1     0     0   511   502  0.000000000E+00  0.000000000E+00 -2.505302107E+02  2.505302107E+02  0.000000000E+00  0.00000E+00  9.000E+00
      25     1     1     2     0     0 -1.298700560E+02  1.908401267E+02  5.005426526E+00  2.625571170E+02  1.250000000E+02  0.00000E+00  9.000E+00
      25     1     1     2     0     0  1.727541909E+02 -1.321413573E+02  4.060009398E+02  4.772495279E+02  1.250000000E+02  0.00000E+00  9.000E+00
      21     1     1     2   511   501 -4.288413498E+01 -5.869876947E+01 -7.079107740E+01  1.014690653E+02  1.348699152E-06  0.00000E+00  9.000E+00
#rwgt            1           1   2.6734307317074404E-002           3       11490           0
</event>
<event>
      5   9999  3.19816E-02  2.29695E+01 -1.00000E+00  1.61557E-01
      21    -1     0     0   502   501  0.000000000E+00  0.000000000E+00  1.555429060E+03  1.555429060E+03  0.000000000E+00  0.00000E+00  9.000E+00
      21    -1     0     0   512   502  0.000000000E+00  0.000000000E+00 -9.168700556E+02  9.168700556E+02  0.000000000E+00  0.00000E+00  9.000E+00
      25     1     1     2     0     0  1.145238111E+02  1.037541770E+03  3.097979213E+02  1.095996524E+03  1.250000000E+02  0.00000E+00  9.000E+00
      25     1     1     2     0     0 -1.022889828E+02 -1.056981645E+03  5.162897438E+02  1.187372449E+03  1.250000000E+02  0.00000E+00  9.000E+00
      21     1     1     2   512   501 -1.223482825E+01  1.943987502E+01 -1.875286611E+02  1.889301419E+02  3.814697266E-06  0.00000E+00  9.000E+00
#rwgt            1           1   2.7280070177237548E-002           3       11564           0
</event>
<event>
      5   9999  3.19816E-02  1.31062E+02 -1.00000E+00  1.18765E-01
       2    -1     0     0   502     0  0.000000000E+00  0.000000000E+00  7.333318271E+02  7.333318271E+02  0.000000000E+00  0.00000E+00  9.000E+00
      21    -1     0     0   501   502  0.000000000E+00  0.000000000E+00 -1.726093599E+03  1.726093599E+03  0.000000000E+00  0.00000E+00  9.000E+00
      25     1     1     2     0     0  5.748582327E+02 -4.776678799E+02 -1.069100926E+03  1.310431373E+03  1.250000000E+02  0.00000E+00  9.000E+00
      25     1     1     2     0     0 -6.279245106E+02  3.578300762E+02 -2.677429202E+02  7.807962767E+02  1.250000000E+02  0.00000E+00  9.000E+00
       2     1     1     2   501     0  5.306627785E+01  1.198378036E+02  3.440820745E+02  3.681977771E+02  3.814697266E-06  0.00000E+00  9.000E+00
#rwgt            1           1   3.0292692190242772E-002           3       11800           0
</event>
<event>
      5   9999  3.19816E-02  9.08511E+01 -1.00000E+00  1.25732E-01
      21    -1     0     0   502   511  0.000000000E+00  0.000000000E+00  2.704274392E+03  2.704274392E+03  0.000000000E+00  0.00000E+00  9.000E+00
      21    -1     0     0   501   502  0.000000000E+00  0.000000000E+00 -3.342887406E+02  3.342887406E+02  0.000000000E+00  0.00000E+00  9.000E+00
      25     1     1     2     0     0  3.645883165E+02  6.342689012E+02  1.069899950E+03  1.302126177E+03  1.250000000E+02  0.00000E+00  9.000E+00
      25     1     1     2     0     0 -3.706336976E+02 -5.436191897E+02  3.027385235E+02  7.349603900E+02  1.250000000E+02  0.00000E+00  9.000E+00
      21     1     1     2   501   511  6.045381116E+00 -9.064971158E+01  9.973471779E+02  1.001476565E+03  1.525878906E-05  0.00000E+00  9.000E+00
#rwgt            1           1   3.2135624083443788E-002           3       11899           0
</event>
<event>
      5   9999  3.19816E-02  2.43776E+02 -1.00000E+00  1.08606E-01
      21    -1     0     0   502   501  0.000000000E+00  0.000000000E+00  3.658340627E+02  3.658340627E+02  0.000000000E+00  0.00000E+00  9.000E+00
       1    -1     0     0   501     0  0.000000000E+00  0.000000000E+00 -1.968504616E+03  1.968504616E+03  0.000000000E+00  0.00000E+00  9.000E+00
      25     1     1     2     0     0 -7.447134723E+01  2.817354655E+02 -1.474201716E+02  3.496835156E+02  1.250000000E+02  0.00000E+00  9.000E+00
      25     1     1     2     0     0  1.173397565E+02 -4.175866850E+01  2.254906280E+02  2.863274841E+02  1.250000000E+02  0.00000E+00  9.000E+00
       1     1     1     2   502     0 -4.286840925E+01 -2.399767970E+02 -1.680741010E+03  1.698327679E+03  0.000000000E+00  0.00000E+00  9.000E+00
#rwgt            1           1   3.0557848299302443E-002           3       12003           0
</event>
<event>
      5   9999  3.19816E-02  1.93117E+01 -1.00000E+00  1.67634E-01
       2    -1     0     0   502     0  0.000000000E+00  0.000000000E+00  1.348671591E+02  1.348671591E+02  0.000000000E+00  0.00000E+00  9.000E+00
      21    -1     0     0   501   502  0.000000000E+00  0.000000000E+00 -1.159121837E+03  1.159121837E+03  0.000000000E+00  0.00000E+00  9.000E+00
      25     1     1     2     0     0 -1.921359037E+02  4.692498599E+01 -5.026029327E+02  5.543941447E+02  1.250000000E+02  0.00000E+00  9.000E+00
      25     1     1     2     0     0  1.880443307E+02 -6.579823837E+01 -6.075856390E+02  6.515177566E+02  1.250000000E+02  0.00000E+00  9.000E+00
       2     1     1     2   501     0  4.091572955E+00  1.887325238E+01  8.593389346E+01  8.807709504E+01  2.336015456E-06  0.00000E+00  9.000E+00
#rwgt            1           1   2.5502434102571758E-002           3       12034           0
</event>
<event>
      5   9999  3.19816E-02  3.27521E+02 -1.00000E+00  1.04368E-01
      21    -1     0     0   502   501  0.000000000E+00  0.000000000E+00  3.300236478E+02  3.300236478E+02  0.000000000E+00  0.00000E+00  9.000E+00
      21    -1     0     0   501   511  0.000000000E+00  0.000000000E+00 -9.430810809E+02  9.430810809E+02  0.000000000E+00  0.00000E+00  9.000E+00
      25     1     1     2     0     0 -8.530843136E+01  9.364773414E+01 -3.360755600E+02  3.802883229E+02  1.250000000E+02  0.00000E+00  9.000E+00
      25     1     1     2     0     0  1.925269194E+02  2.158258301E+02  1.546557703E+02  3.509854853E+02  1.250000000E+02  0.00000E+00  9.000E+00
      21     1     1     2   502   511 -1.072184880E+02 -3.094735642E+02 -4.316376434E+02  5.418309204E+02  9.344061824E-06  0.00000E+00  9.000E+00
#rwgt            1           1   2.7544684211236452E-002           3       12201           0
</event>
<event>
      5   9999  3.19816E-02  8.05310E+01 -1.00000E+00  1.28211E-01
      21    -1     0     0   512   501  0.000000000E+00  0.000000000E+00  2.417825691E+02  2.417825691E+02  0.000000000E+00  0.00000E+00  9.000E+00
      21    -1     0     0   501   502  0.000000000E+00  0.000000000E+00 -8.123131755E+02  8.123131755E+02  0.000000000E+00  0.00000E+00  9.000E+00
      25     1     1     2     0     0  2.586848111E+02  1.129699663E+01 -3.936699948E+02  4.874900188E+02  1.250000000E+02  0.00000E+00  9.000E+00
      25     1     1     2     0     0 -2.614110304E+02 -9.178180847E+01 -2.950406709E+02  4.235960631E+02  1.250000000E+02  0.00000E+00  9.000E+00
      21     1     1     2   512   502  2.726219339E+00  8.048481184E+01  1.181800593E+02  1.430096627E+02  3.015782986E-06  0.00000E+00  9.000E+00
#rwgt            1           1   2.7723446605474909E-002           3       12261           0
</event>
<event>
      5   9999  3.19816E-02  1.51447E+02 -1.00000E+00  1.16229E-01
       1    -1     0     0   502     0  0.000000000E+00  0.000000000E+00  1.125727537E+03  1.125727537E+03  0.000000000E+00  0.00000E+00  9.000E+00
      21    -1     0     0   501   502  0.000000000E+00  0.000000000E+00 -1.915326055E+03  1.915326055E+03  0.000000000E+00  0.00000E+00  9.000E+00
      25     1     1     2     0     0  4.193423360E+02 -2.836495235E+02 -1.159331797E+03  1.271212123E+03  1.250000000E+02  0.00000E+00  9.000E+00
      25     1     1     2     0     0 -2.682759183E+02  2.729258735E+02 -6.360291029E+02  7.527406728E+02  1.250000000E+02  0.00000E+00  9.000E+00
       1     1     1     2   501     0 -1.510664178E+02  1.072364997E+01  1.005762382E+03  1.017100795E+03  1.868812365E-05  0.00000E+00  9.000E+00
#rwgt            1           1   3.4407630187501898E-002           3       12309           0
</event>
<event>
      5   9999  3.19816E-02  5.04601E+01 -1.00000E+00  1.38849E-01
      21    -1     0     0   511   501  0.000000000E+00  0.000000000E+00  2.994428956E+02  2.994428956E+02  0.000000000E+00  0.00000E+00  9.000E+00
      21    -1     0     0   501   502  0.000000000E+00  0.000000000E+00 -8.969013557E+02  8.969013557E+02  0.000000000E+00  0.00000E+00  9.000E+00
      25     1     1     2     0     0 -3.298650199E+02 -2.108766207E+02 -2.765824000E+02  4.953813728E+02  1.250000000E+02  0.00000E+00  9.000E+00
      25     1     1     2     0     0  2.825211560E+02  1.934185274E+02 -4.401365194E+02  5.714666097E+02  1.250000000E+02  0.00000E+00  9.000E+00
      21     1     1     2   511   502  4.734386396E+01  1.745809323E+01  1.192604593E+02  1.294962688E+02  3.015782986E-06  0.00000E+00  9.000E+00
#rwgt            1           1   2.7725464390778488E-002           3       12418           0
</event>
<event>
      5   9999  3.19816E-02  1.03317E+02 -1.00000E+00  1.23194E-01
      21    -1     0     0   502   501  0.000000000E+00  0.000000000E+00  9.340184649E+02  9.340184649E+02  0.000000000E+00  0.00000E+00  9.000E+00
      21    -1     0     0   512   502  0.000000000E+00  0.000000000E+00 -1.969180279E+02  1.969180279E+02  0.000000000E+00  0.00000E+00  9.000E+00
      25     1     1     2     0     0 -3.758764509E+01 -1.082812265E+02  7.521072279E+02  7.709915287E+02  1.250000000E+02  0.00000E+00  9.000E+00
      25     1     1     2     0     0  4.184372249E+01  5.052186419E+00  1.278096535E+02  1.836756087E+02  1.250000000E+02  0.00000E+00  9.000E+00
      21     1     1     2   512   501 -4.256077396E+00  1.032290400E+02 -1.428164443E+02  1.762693554E+02  2.697398305E-06  0.00000E+00  9.000E+00
#rwgt            1           1   3.0864642500532845E-002           3       12530           0
</event>
<event>
      5   9999  3.19816E-02  6.20011E+01 -1.00000E+00  1.33946E-01
      21    -1     0     0   502   501  0.000000000E+00  0.000000000E+00  6.929732556E+02  6.929732556E+02  0.000000000E+00  0.00000E+00  9.000E+00
      21    -1     0     0   501   511  0.000000000E+00  0.000000000E+00 -2.955816907E+02  2.955816907E+02  0.000000000E+00  0.00000E+00  9.000E+00
      25     1     1     2     0     0 -2.310452847E+02 -5.749242232E+01 -1.280918306E+02  2.978587237E+02  1.250000000E+02  0.00000E+00  9.000E+00
      25     1     1     2     0     0  1.993084587E+02  4.229729805E+00  5.684748104E+02  6.152482120E+02  1.250000000E+02  0.00000E+00  9.000E+00
      21     1     1     2   502   511  3.173682598E+01  5.326269251E+01 -4.299141498E+01  7.544801057E+01  4.768371582E-07  0.00000E+00  9.000E+00
#rwgt            1           1   3.0445385879245359E-002           3       12594           0
</event>
<event>
      5   9999  3.19816E-02  2.35279E+01 -1.00000E+00  1.60751E-01
      21    -1     0     0   502   501  0.000000000E+00  0.000000000E+00  6.055345964E+01  6.055345964E+01  0.000000000E+00  0.00000E+00  9.000E+00
       1    -1     0     0   501     0  0.000000000E+00  0.000000000E+00 -2.300223434E+03  2.300223434E+03  0.000000000E+00  0.00000E+00  9.000E+00
      25     1     1     2     0     0  2.239528732E+00  1.106892966E+02 -1.319309204E+02  2.128095478E+02  1.250000000E+02  0.00000E+00  9.000E+00
      25     1     1     2     0     0 -1.051915446E+01 -8.866631697E+01 -2.743592949E+02  3.144366249E+02  1.250000000E+02  0.00000E+00  9.000E+00
       1     1     1     2   502     0  8.279625729E+00 -2.202297962E+01 -1.833379759E+03  1.833530721E+03  0.000000000E+00  0.00000E+00  9.000E+00
#rwgt            1           1   2.8155926515040154E-002           3       12666           0
</event>
<event>
      5   9999  3.19816E-02  8.88353E+01 -1.00000E+00  1.26185E-01
      21    -1     0     0   502   511  0.000000000E+00  0.000000000E+00  6.003506743E+02  6.003506743E+02  0.000000000E+00  0.00000E+00  9.000E+00
      21    -1     0     0   501   502  0.000000000E+00  0.000000000E+00 -1.802442388E+02  1.802442388E+02  0.000000000E+00  0.00000E+00  9.000E+00
      25     1     1     2     0     0 -1.087251653E+02  2.275935543E+02  2.870451343E+01  2.829645501E+02  1.250000000E+02  0.00000E+00  9.000E+00
      25     1     1     2     0     0  7.654773135E+01 -1.447906764E+02  2.025170116E+02  2.888979667E+02  1.250000000E+02  0.00000E+00  9.000E+00
      21     1     1     2   501   511  3.217743399E+01 -8.280287796E+01  1.888849104E+02  2.087323962E+02  4.672030912E-06  0.00000E+00  9.000E+00
#rwgt            1           1   3.1618422043006147E-002           3       12793           0
</event>
<event>
      5   9999  3.19816E-02  1.63422E+02 -1.00000E+00  1.14937E-01
      21    -1     0     0   512   501  0.000000000E+00  0.000000000E+00  6.758042083E+02  6.758042083E+02  0.000000000E+00  0.00000E+00  9.000E+00
      21    -1     0     0   501   502  0.000000000E+00  0.000000000E+00 -8.376614137E+02  8.376614137E+02  0.000000000E+00  0.00000E+00  9.000E+00
      25     1     1     2     0     0  1.279357131E+01 -6.424086241E+02  9.870936033E+01  6.619826687E+02  1.250000000E+02  0.00000E+00  9.000E+00
      25     1     1     2     0     0  1.346342563E+02  5.718977532E+02 -3.162352114E+02  6.788395480E+02  1.250000000E+02  0.00000E+00  9.000E+00
      21     1     1     2   512   502 -1.474278276E+02  7.051087096E+01  5.566864572E+01  1.726434053E+02  1.348699152E-06  0.00000E+00  9.000E+00
#rwgt            1           1   2.9749326718016677E-002           3       12887           0
</event>
<event>
      5   9999  3.19816E-02  4.48869E+01 -1.00000E+00  1.41802E-01
      21    -1     0     0   511   501  0.000000000E+00  0.000000000E+00  9.757690044E+01  9.757690044E+01  0.000000000E+00  0.00000E+00  9.000E+00
      21    -1     0     0   501   502  0.000000000E+00  0.000000000E+00 -4.277923535E+02  4.277923535E+02  0.000000000E+00  0.00000E+00  9.000E+00
      25     1     1     2     0     0  5.120756840E+01  2.607199972E+00 -2.709647635E+01  1.377977924E+02  1.250000000E+02  0.00000E+00  9.000E+00
      25     1     1     2     0     0 -8.603686317E+01  2.570801655E+01 -3.060688369E+02  3.425877652E+02  1.250000000E+02  0.00000E+00  9.000E+00
      21     1     1     2   511   502  3.482929476E+01 -2.831521653E+01  2.949860236E+00  4.498369634E+01  9.666249001E-07  0.00000E+00  9.000E+00
#rwgt            1           1   2.7676818261833592E-002           3       12945           0
</event>
<event>
      5   9999  3.19816E-02  1.17788E+02 -1.00000E+00  1.20712E-01
      21    -1     0     0   502   501  0.000000000E+00  0.000000000E+00  3.401280462E+02  3.401280462E+02  0.000000000E+00  0.00000E+00  9.000E+00
      21    -1     0     0   512   502  0.000000000E+00  0.000000000E+00 -2.824085665E+02  2.824085665E+02  0.000000000E+00  0.00000E+00  9.000E+00
      25     1     1     2     0     0  1.850731170E+02 -4.886063996E+01 -1.347524259E+02  2.653726381E+02  1.250000000E+02  0.00000E+00  9.000E+00
      25     1     1     2     0     0 -7.038363368E+01  2.202313335E+01  1.903362409E+02  2.393569696E+02  1.250000000E+02  0.00000E+00  9.000E+00
      21     1     1     2   512   501 -1.146894833E+02  2.683750661E+01  2.135664629E+00  1.178070049E+02  1.138355091E-06  0.00000E+00  9.000E+00
#rwgt            2          11   2.8138470304665134E-003           3       13053           0
</event>
<event>
      5   9999  3.19816E-02  2.10707E+02 -1.00000E+00  1.10830E-01
      21    -1     0     0   502   501  0.000000000E+00  0.000000000E+00  2.910578685E+02  2.910578685E+02  0.000000000E+00  0.00000E+00  9.000E+00
       2    -1     0     0   501     0  0.000000000E+00  0.000000000E+00 -2.036759755E+03  2.036759755E+03  0.000000000E+00  0.00000E+00  9.000E+00
      25     1     1     2     0     0 -8.054821066E+01 -5.176561418E+01 -2.459041711E+02  2.919958123E+02  1.250000000E+02  0.00000E+00  9.000E+00
      25     1     1     2     0     0  9.587603390E+01 -1.583830635E+02  2.138623384E+02  3.092563798E+02  1.250000000E+02  0.00000E+00  9.000E+00
       2     1     1     2   502     0 -1.532782324E+01  2.101486777E+02 -1.713660054E+03  1.726565432E+03  3.051757812E-05  0.00000E+00  9.000E+00
#rwgt            2          13   3.5392536461286337E-003           3       13133           0
</event>
<event>
      5   9999  3.19816E-02  2.61870E+02 -1.00000E+00  1.07546E-01
      21    -1     0     0   511   501  0.000000000E+00  0.000000000E+00  1.123806911E+03  1.123806911E+03  0.000000000E+00  0.00000E+00  9.000E+00
      21    -1     0     0   501   502  0.000000000E+00  0.000000000E+00 -3.705371134E+02  3.705371134E+02  0.000000000E+00  0.00000E+00  9.000E+00
      25     1     1     2     0     0 -8.644560848E+01  4.476054443E+02  5.348807683E+02  7.138248478E+02  1.250000000E+02  0.00000E+00  9.000E+00
      25     1     1     2     0     0 -1.671143285E+02 -3.821593465E+02 -6.289421831E+00  4.354739047E+02  1.250000000E+02  0.00000E+00  9.000E+00
      21     1     1     2   511   502  2.535599369E+02 -6.544609788E+01  2.246784513E+02  3.450452721E+02  4.672030912E-06  0.00000E+00  9.000E+00
#rwgt            1           1   3.0306871249821215E-002           3       13152           0
</event>
<event>
      5   9999  3.19816E-02  1.55116E+02 -1.00000E+00  1.15819E-01
      21    -1     0     0   502   512  0.000000000E+00  0.000000000E+00  1.863682278E+03  1.863682278E+03  0.000000000E+00  0.00000E+00  9.000E+00
      21    -1     0     0   501   502  0.000000000E+00  0.000000000E+00 -3.792285606E+02  3.792285606E+02  0.000000000E+00  0.00000E+00  9.000E+00
      25     1     1     2     0     0 -1.165146126E+02  2.478879991E+02 -2.519236998E+02  3.925744077E+02  1.250000000E+02  0.00000E+00  9.000E+00
      25     1     1     2     0     0  1.642611188E+02 -3.954726073E+02  9.596133975E+02  1.058235877E+03  1.250000000E+02  0.00000E+00  9.000E+00
      21     1     1     2   501   512 -4.774650621E+01  1.475846083E+02  7.767640196E+02  7.921005540E+02  0.000000000E+00  0.00000E+00  9.000E+00
#rwgt            1           1   2.7556541863358094E-002           3       13208           0
</event>
<event>
      5   9999  3.19816E-02  1.22513E+02 -1.00000E+00  1.19987E-01
      21    -1     0     0   502   501  0.000000000E+00  0.000000000E+00  2.031998193E+03  2.031998193E+03  0.000000000E+00  0.00000E+00  9.000E+00
      21    -1     0     0   501   511  0.000000000E+00  0.000000000E+00 -1.023961791E+03  1.023961791E+03  0.000000000E+00  0.00000E+00  9.000E+00
      25     1     1     2     0     0  5.068427454E+02  1.004067525E+03  1.223166561E+03  1.666374087E+03  1.250000000E+02  0.00000E+00  9.000E+00
      25     1     1     2     0     0 -6.279407343E+02 -9.855005746E+02 -4.005749422E+01  1.175904142E+03  1.250000000E+02  0.00000E+00  9.000E+00
      21     1     1     2   502   511  1.210979889E+02 -1.856694995E+01 -1.750726647E+02  2.136817551E+02  4.672030912E-06  0.00000E+00  9.000E+00
#rwgt            1           1   6.4674851478813633E-002           3       13284           0
</event>
<event>
      5   9999  3.19816E-02  6.48751E+01 -1.00000E+00  1.32915E-01
      21    -1     0     0   512   501  0.000000000E+00  0.000000000E+00  2.467772991E+03  2.467772991E+03  0.000000000E+00  0.00000E+00  9.000E+00
      21    -1     0     0   501   502  0.000000000E+00  0.000000000E+00 -1.026538434E+02  1.026538434E+02  0.000000000E+00  0.00000E+00  9.000E+00
      25     1     1     2     0     0  6.290954263E+01 -7.009279289E+01 -3.566709588E+01  1.605233687E+02  1.250000000E+02  0.00000E+00  9.000E+00
      25     1     1     2     0     0 -7.233499902E+01  5.906016017E+00  1.668681997E+03  1.674930399E+03  1.250000000E+02  0.00000E+00  9.000E+00
      21     1     1     2   512   502  9.425456392E+00  6.418677688E+01  7.321042461E+02  7.349730667E+02  1.525878906E-05  0.00000E+00  9.000E+00
#rwgt            1           1   2.8934585811095287E-002           3       13369           0
</event>
<event>
      5   9999  3.19816E-02  7.16305E+01 -1.00000E+00  1.30716E-01
      21    -1     0     0   502   501  0.000000000E+00  0.000000000E+00  1.377937841E+02  1.377937841E+02  0.000000000E+00  0.00000E+00  9.000E+00
      21    -1     0     0   511   502  0.000000000E+00  0.000000000E+00 -1.603733257E+03  1.603733257E+03  0.000000000E+00  0.00000E+00  9.000E+00
      25     1     1     2     0     0 -4.310190843E+02  5.054846851E+01 -6.928808245E+02  8.270679752E+02  1.250000000E+02  0.00000E+00  9.000E+00
      25     1     1     2     0     0  3.944851594E+02  1.106479754E+01 -6.203905143E+02  7.458219365E+02  1.250000000E+02  0.00000E+00  9.000E+00
      21     1     1     2   511   501  3.653392489E+01 -6.161326605E+01 -1.526681337E+02  1.686371290E+02  0.000000000E+00  0.00000E+00  9.000E+00
#rwgt            1           1   2.8232976828820935E-002           3       13467           0
</event>
<event>
      5   9999  3.19816E-02  2.85831E+01 -1.00000E+00  1.54514E-01
      21    -1     0     0   502   512  0.000000000E+00  0.000000000E+00  7.557342832E+02  7.557342832E+02  0.000000000E+00  0.00000E+00  9.000E+00
      21    -1     0     0   501   502  0.000000000E+00  0.000000000E+00 -2.997046823E+02  2.997046823E+02  0.000000000E+00  0.00000E+00  9.000E+00
      25     1     1     2     0     0 -1.975066659E+02  2.924065966E+02  1.466887161E+02  4.020610405E+02  1.250000000E+02  0.00000E+00  9.000E+00
      25     1     1     2     0     0  2.037947518E+02 -3.202894092E+02  6.208028923E+01  4.044707268E+02  1.250000000E+02  0.00000E+00  9.000E+00
      21     1     1     2   501   512 -6.288085868E+00  2.788281261E+01  2.472605955E+02  2.489071983E+02  0.000000000E+00  0.00000E+00  9.000E+00
#rwgt            1           1   2.8887759599236593E-002           3       13521           0
</event>
<event>
      5   9999  3.19816E-02  6.87396E+01 -1.00000E+00  1.31622E-01
      21    -1     0     0   502   511  0.000000000E+00  0.000000000E+00  5.728681670E+02  5.728681670E+02  0.000000000E+00  0.00000E+00  9.000E+00
      21    -1     0     0   501   502  0.000000000E+00  0.000000000E+00 -2.824054717E+02  2.824054717E+02  0.000000000E+00  0.00000E+00  9.000E+00
      25     1     1     2     0     0 -1.096413770E+02 -2.227368127E+02  1.216345940E+02  3.034021980E+02  1.250000000E+02  0.00000E+00  9.000E+00
      25     1     1     2     0     0  1.644256186E+02  2.642557319E+02 -3.456701191E+01  3.371746642E+02  1.250000000E+02  0.00000E+00  9.000E+00
      21     1     1     2   501   511 -5.478424159E+01 -4.151891914E+01  2.033951132E+02  2.146967766E+02  2.697398305E-06  0.00000E+00  9.000E+00
#rwgt            1           1   2.8866254906093153E-002           3       13625           0
</event>
<event>
      5   9999  3.19816E-02  9.61055E+01 -1.00000E+00  1.24609E-01
      21    -1     0     0   512   501  0.000000000E+00  0.000000000E+00  3.416243723E+02  3.416243723E+02  0.000000000E+00  0.00000E+00  9.000E+00
      21    -1     0     0   501   502  0.000000000E+00  0.000000000E+00 -5.059586255E+02  5.059586255E+02  0.000000000E+00  0.00000E+00  9.000E+00
      25     1     1     2     0     0 -3.006631602E+02  1.068003140E+02  3.644600752E+01  3.446127601E+02  1.250000000E+02  0.00000E+00  9.000E+00
      25     1     1     2     0     0  2.620206107E+02 -1.880592627E+01 -2.599271211E+02  3.901225084E+02  1.250000000E+02  0.00000E+00  9.000E+00
      21     1     1     2   512   502  3.864254948E+01 -8.799438777E+01  5.914686037E+01  1.128477293E+02  1.507891493E-06  0.00000E+00  9.000E+00
#rwgt            1           1   2.8111138168720531E-002           3       13743           0
</event>
<event>
      5   9999  3.19816E-02  1.43252E+02 -1.00000E+00  1.17191E-01
      21    -1     0     0   511   501  0.000000000E+00  0.000000000E+00  1.815848989E+02  1.815848989E+02  0.000000000E+00  0.00000E+00  9.000E+00
      21    -1     0     0   501   502  0.000000000E+00  0.000000000E+00 -8.262745453E+02  8.262745453E+02  0.000000000E+00  0.00000E+00  9.000E+00
      25     1     1     2     0     0 -1.519822346E+01 -9.863001558E+01  5.021531929E+01  1.676467842E+02  1.250000000E+02  0.00000E+00  9.000E+00
      25     1     1     2     0     0 -7.124006788E+01 -1.560499154E+01 -6.810904576E+02  6.962958239E+02  1.250000000E+02  0.00000E+00  9.000E+00
      21     1     1     2   511   502  8.643829134E+01  1.142350071E+02 -1.381450811E+01  1.439168360E+02  3.392755859E-06  0.00000E+00  9.000E+00
#rwgt            1           1   2.9131681694154331E-002           3       13821           0
</event>
<event>
      5   9999  3.19816E-02  3.12874E+01 -1.00000E+00  1.51783E-01
      21    -1     0     0   502   512  0.000000000E+00  0.000000000E+00  1.074876430E+02  1.074876430E+02  0.000000000E+00  0.00000E+00  9.000E+00
      21    -1     0     0   501   502  0.000000000E+00  0.000000000E+00 -1.266966359E+03  1.266966359E+03  0.000000000E+00  0.00000E+00  9.000E+00
      25     1     1     2     0     0  2.487381022E+02  1.831866716E+02 -3.682255102E+02  4.966316810E+02  1.250000000E+02  0.00000E+00  9.000E+00
      25     1     1     2     0     0 -2.268368665E+02 -2.055303446E+02 -7.749589403E+02  8.425461683E+02  1.250000000E+02  0.00000E+00  9.000E+00
      21     1     1     2   501   512 -2.190123571E+01  2.234367291E+01 -1.629426516E+01  3.527615231E+01  3.371747881E-07  0.00000E+00  9.000E+00
#rwgt            1           1   2.9436979967930998E-002           3       13881           0
</event>
<event>
      5   9999  3.19816E-02  2.92658E+01 -1.00000E+00  1.53791E-01
      21    -1     0     0   511   501  0.000000000E+00  0.000000000E+00  1.566940037E+02  1.566940037E+02  0.000000000E+00  0.00000E+00  9.000E+00
      21    -1     0     0   501   502  0.000000000E+00  0.000000000E+00 -6.666799352E+02  6.666799352E+02  0.000000000E+00  0.00000E+00  9.000E+00
      25     1     1     2     0     0  8.144761195E+01  1.859159194E+02 -3.119394669E+02  3.925935221E+02  1.250000000E+02  0.00000E+00  9.000E+00
      25     1     1     2     0     0 -7.297899863E+01 -2.139296116E+02 -2.573695904E+02  3.646312096E+02  1.250000000E+02  0.00000E+00  9.000E+00
      21     1     1     2   511   502 -8.468613326E+00  2.801369220E+01  5.932312577E+01  6.614920720E+01  1.168007728E-06  0.00000E+00  9.000E+00
#rwgt            1           1   2.9231601594053823E-002           3       14043           0
</event>
<event>
      5   9999  3.19816E-02  1.30161E+01 -1.00000E+00  1.83392E-01
      21    -1     0     0   502   501  0.000000000E+00  0.000000000E+00  3.186361261E+02  3.186361261E+02  0.000000000E+00  0.00000E+00  9.000E+00
      21    -1     0     0   512   502  0.000000000E+00  0.000000000E+00 -3.450606415E+02  3.450606415E+02  0.000000000E+00  0.00000E+00  9.000E+00
      25     1     1     2     0     0  2.186111287E+02 -1.103303120E+02 -1.721381122E+02  3.243765297E+02  1.250000000E+02  0.00000E+00  9.000E+00
      25     1     1     2     0     0 -2.315460888E+02  1.117814002E+02  1.531517519E+02  3.243287403E+02  1.250000000E+02  0.00000E+00  9.000E+00
      21     1     1     2   512   501  1.293496009E+01 -1.451088204E+00 -7.438155041E+00  1.499149759E+01  8.429369702E-08  0.00000E+00  9.000E+00
#rwgt            1           1   2.8551263385551921E-002           3       14175           0
</event>
<event>
      5   9999  3.19816E-02  2.53315E+01 -1.00000E+00  1.58324E-01
      21    -1     0     0   502   511  0.000000000E+00  0.000000000E+00  7.387516893E+02  7.387516893E+02  0.000000000E+00  0.00000E+00  9.000E+00
      21    -1     0     0   501   502  0.000000000E+00  0.000000000E+00 -1.108575712E+02  1.108575712E+02  0.000000000E+00  0.00000E+00  9.000E+00
      25     1     1     2     0     0  5.814222170E+01 -2.048127301E+02  1.129519910E+02  2.714994008E+02  1.250000000E+02  0.00000E+00  9.000E+00
      25     1     1     2     0     0 -7.397681537E+01  1.850402574E+02  4.390055957E+02  4.980596141E+02  1.250000000E+02  0.00000E+00  9.000E+00
      21     1     1     2   501   511  1.583459366E+01  1.977247276E+01  7.593653135E+01  8.005024565E+01  1.348699152E-06  0.00000E+00  9.000E+00
#rwgt            1           1   3.1565072748591536E-002           3       14494           0
</event>
<event>
      5   9999  3.19816E-02  2.14917E+02 -1.00000E+00  1.10522E-01
      21    -1     0     0   502   501  0.000000000E+00  0.000000000E+00  3.962720887E+02  3.962720887E+02  0.000000000E+00  0.00000E+00  9.000E+00
      21    -1     0     0   501   512  0.000000000E+00  0.000000000E+00 -9.510374165E+02  9.510374165E+02  0.000000000E+00  0.00000E+00  9.000E+00
      25     1     1     2     0     0  3.445069232E+02  1.422173315E+02  9.700732539E+00  3.932300773E+02  1.250000000E+02  0.00000E+00  9.000E+00
      25     1     1     2     0     0 -4.048931013E+02 -3.484768973E+02 -4.557077785E+02  7.132104534E+02  1.250000000E+02  0.00000E+00  9.000E+00
      21     1     1     2   502   512  6.038617815E+01  2.062595658E+02 -1.087582818E+02  2.408689745E+02  6.031565972E-06  0.00000E+00  9.000E+00
#rwgt            1           1   3.2074595867045266E-002           3       14598           0
</event>
<event>
      5   9999  3.19816E-02  8.29603E+01 -1.00000E+00  1.27590E-01
      21    -1     0     0   502   511  0.000000000E+00  0.000000000E+00  6.150500308E+02  6.150500308E+02  0.000000000E+00  0.00000E+00  9.000E+00
      21    -1     0     0   501   502  0.000000000E+00  0.000000000E+00 -5.635010000E+02  5.635010000E+02  0.000000000E+00  0.00000E+00  9.000E+00
      25     1     1     2     0     0 -2.571200586E+01  4.330965166E+02 -2.196148630E+02  5.020850406E+02  1.250000000E+02  0.00000E+00  9.000E+00
      25     1     1     2     0     0 -5.722520516E+01 -4.311384291E+02  6.876040773E+01  4.577205073E+02  1.250000000E+02  0.00000E+00  9.000E+00
      21     1     1     2   501   511  8.293721102E+01 -1.958087532E+00  2.024034861E+02  2.187454829E+02  2.697398305E-06  0.00000E+00  9.000E+00
#rwgt            1           1   2.7169433329277251E-002           3       14652           0
</event>
<event>
      5   9999  3.19816E-02  2.24945E+01 -1.00000E+00  1.62265E-01
      21    -1     0     0   502   501  0.000000000E+00  0.000000000E+00  1.119950651E+02  1.119950651E+02  0.000000000E+00  0.00000E+00  9.000E+00
      21    -1     0     0   512   502  0.000000000E+00  0.000000000E+00 -1.286781155E+03  1.286781155E+03  0.000000000E+00  0.00000E+00  9.000E+00
      25     1     1     2     0     0  2.974444691E+02  1.652401346E+02 -4.974962099E+02  6.155525917E+02  1.250000000E+02  0.00000E+00  9.000E+00
      25     1     1     2     0     0 -2.773878904E+02 -1.754252757E+02 -5.403882575E+02  6.444862589E+02  1.250000000E+02  0.00000E+00  9.000E+00
      21     1     1     2   512   501 -2.005657868E+01  1.018514108E+01 -1.369016222E+02  1.387373692E+02  1.907348633E-06  0.00000E+00  9.000E+00
#rwgt            1           1   2.5939121980879810E-002           3       14790           0
</event>
<event>
      5   9999  3.19816E-02  1.27866E+02 -1.00000E+00  1.19209E-01
       2    -1     0     0   502     0  0.000000000E+00  0.000000000E+00  4.605168334E+02  4.605168334E+02  0.000000000E+00  0.00000E+00  9.000E+00
      21    -1     0     0   501   502  0.000000000E+00  0.000000000E+00 -5.119015919E+02  5.119015919E+02  0.000000000E+00  0.00000E+00  9.000E+00
      25     1     1     2     0     0 -5.774814981E+01  3.430536923E+01  1.213152179E+02  1.866924992E+02  1.250000000E+02  0.00000E+00  9.000E+00
      25     1     1     2     0     0  1.797326779E+02  4.028742005E+00 -4.388560435E+02  4.904484613E+02  1.250000000E+02  0.00000E+00  9.000E+00
       2     1     1     2   501     0 -1.219845281E+02 -3.833411124E+01  2.661560671E+02  2.952774648E+02  3.814697266E-06  0.00000E+00  9.000E+00
#rwgt            1           1   3.1151823806134172E-002           3       14947           0
</event>
<event>
      5   9999  3.19816E-02  5.66892E+01 -1.00000E+00  1.36034E-01
      21    -1     0     0   502   501  0.000000000E+00  0.000000000E+00  2.286567010E+03  2.286567010E+03  0.000000000E+00  0.00000E+00  9.000E+00
      21    -1     0     0   511   502  0.000000000E+00  0.000000000E+00 -2.022473616E+02  2.022473616E+02  0.000000000E+00  0.00000E+00  9.000E+00
      25     1     1     2     0     0 -1.303214904E+02 -2.934230816E+02  7.124108745E+01  3.518253661E+02  1.250000000E+02  0.00000E+00  9.000E+00
      25     1     1     2     0     0  1.467854148E+02  3.476688191E+02  2.037020749E+03  2.075451300E+03  1.250000000E+02  0.00000E+00  9.000E+00
      21     1     1     2   511   501 -1.646392439E+01 -5.424573751E+01 -2.394218807E+01  6.153770563E+01  6.743495762E-07  0.00000E+00  9.000E+00
#rwgt            1           1   4.2389228918763767E-002           3       15010           0
</event>
<event>
      5   9999  3.19816E-02  1.83887E+02 -1.00000E+00  1.12992E-01
      21    -1     0     0   512   501  0.000000000E+00  0.000000000E+00  8.347741921E+02  8.347741921E+02  0.000000000E+00  0.00000E+00  9.000E+00
      21    -1     0     0   501   502  0.000000000E+00  0.000000000E+00 -9.583316403E+02  9.583316403E+02  0.000000000E+00  0.00000E+00  9.000E+00
      25     1     1     2     0     0 -1.160219029E+02  2.628201306E+02 -3.242754975E+02  4.509047585E+02  1.250000000E+02  0.00000E+00  9.000E+00
      25     1     1     2     0     0  2.275222077E+02 -4.090465803E+02 -4.529075670E+02  6.632011189E+02  1.250000000E+02  0.00000E+00  9.000E+00
      21     1     1     2   512   502 -1.115003048E+02  1.462264497E+02  6.536256163E+02  6.789999549E+02  0.000000000E+00  0.00000E+00  9.000E+00
#rwgt            1           1   2.9074013191915958E-002           3       15106           0
</event>
<event>
      5   9999  3.19816E-02  4.72453E+01 -1.00000E+00  1.40494E-01
      21    -1     0     0   502   501  0.000000000E+00  0.000000000E+00  2.679878134E+02  2.679878134E+02  0.000000000E+00  0.00000E+00  9.000E+00
      21    -1     0     0   501   511  0.000000000E+00  0.000000000E+00 -4.399043550E+02  4.399043550E+02  0.000000000E+00  0.00000E+00  9.000E+00
      25     1     1     2     0     0  1.758948759E+02  4.160844963E+01  1.218907098E+02  2.513018416E+02  1.250000000E+02  0.00000E+00  9.000E+00
      25     1     1     2     0     0 -2.169274565E+02 -6.502730058E+01 -1.367780865E+02  2.926077855E+02  1.250000000E+02  0.00000E+00  9.000E+00
      21     1     1     2   502   511  4.103258061E+01  2.341885095E+01 -1.570291648E+02  1.639825413E+02  1.907348633E-06  0.00000E+00  9.000E+00
#rwgt            1           1   2.9641806222105133E-002           3       15154           0
</event>
<event>
      5   9999  3.19816E-02  6.07027E+01 -1.00000E+00  1.34434E-01
      21    -1     0     0   512   501  0.000000000E+00  0.000000000E+00  1.012519927E+03  1.012519927E+03  0.000000000E+00  0.00000E+00  9.000E+00
      21    -1     0     0   501   502  0.000000000E+00  0.000000000E+00 -1.202762681E+02  1.202762681E+02  0.000000000E+00  0.00000E+00  9.000E+00
      25     1     1     2     0     0  2.501794727E+02 -2.755810084E+01  2.388586018E+02  3.688192635E+02  1.250000000E+02  0.00000E+00  9.000E+00
      25     1     1     2     0     0 -3.103849419E+02  1.980427626E+01  5.557204257E+02  6.489847557E+02  1.250000000E+02  0.00000E+00  9.000E+00
      21     1     1     2   512   502  6.020546923E+01  7.753824578E+00  9.766463125E+01  1.149921759E+02  1.907348633E-06  0.00000E+00  9.000E+00
#rwgt            1           1   2.6401273638087631E-002           3       15276           0
</event>
<event>
      5   9999  3.19816E-02  8.04189E+01 -1.00000E+00  1.28240E-01
      21    -1     0     0   502   501  0.000000000E+00  0.000000000E+00  2.592686538E+02  2.592686538E+02  0.000000000E+00  0.00000E+00  9.000E+00
      21    -1     0     0   511   502  0.000000000E+00  0.000000000E+00 -5.578427100E+02  5.578427100E+02  0.000000000E+00  0.00000E+00  9.000E+00
      25     1     1     2     0     0  1.922087482E+02  2.353499482E+02 -1.070143809E+02  3.455587920E+02  1.250000000E+02  0.00000E+00  9.000E+00
      25     1     1     2     0     0 -1.478288154E+02 -1.682856639E+02  7.751367928E+00  2.566291236E+02  1.250000000E+02  0.00000E+00  9.000E+00
      21     1     1     2   511   501 -4.437993279E+01 -6.706428431E+01 -1.993110432E+02  2.149234482E+02  0.000000000E+00  0.00000E+00  9.000E+00
#rwgt            1           1   2.7563139689699930E-002           3       15391           0
</event>
<event>
      5   9999  3.19816E-02  1.39009E+01 -1.00000E+00  1.80555E-01
      21    -1     0     0   502   501  0.000000000E+00  0.000000000E+00  3.043279611E+02  3.043279611E+02  0.000000000E+00  0.00000E+00  9.000E+00
      21    -1     0     0   512   502  0.000000000E+00  0.000000000E+00 -1.493953217E+02  1.493953217E+02  0.000000000E+00  0.00000E+00  9.000E+00
      25     1     1     2     0     0  9.074645205E+01  1.326510721E+02  8.025641801E+01  2.188545593E+02  1.250000000E+02  0.00000E+00  9.000E+00
      25     1     1     2     0     0 -8.320277268E+01 -1.443270213E+02  7.371688975E+01  2.209347648E+02  1.250000000E+02  0.00000E+00  9.000E+00
      21     1     1     2   512   501 -7.543679371E+00  1.167594915E+01  9.593317312E-01  1.393395868E+01  1.120067863E-07  0.00000E+00  9.000E+00
#rwgt            1           1   2.6036156569667800E-002           3       15460           0
</event>
<event>
      5   9999  3.19816E-02  2.11923E+01 -1.00000E+00  1.64321E-01
      21    -1     0     0   511   501  0.000000000E+00  0.000000000E+00  2.677945224E+02  2.677945224E+02  0.000000000E+00  0.00000E+00  9.000E+00
      21    -1     0     0   501   502  0.000000000E+00  0.000000000E+00 -1.306378482E+03  1.306378482E+03  0.000000000E+00  0.00000E+00  9.000E+00
      25     1     1     2     0     0  1.789473477E+02  4.479295540E+02 -3.400560489E+02  6.032629236E+02  1.250000000E+02  0.00000E+00  9.000E+00
      25     1     1     2     0     0 -1.984482074E+02 -4.562259288E+02 -7.537564162E+02  9.117551887E+02  1.250000000E+02  0.00000E+00  9.000E+00
      21     1     1     2   511   502  1.950085970E+01  8.296374838E+00  5.522850584E+01  5.915489178E+01  1.507891493E-06  0.00000E+00  9.000E+00
#rwgt            1           1   3.0000138218054234E-002           3       15647           0
</event>
<event>
      5   9999  3.19816E-02  3.66919E+01 -1.00000E+00  1.47204E-01
      21    -1     0     0   502   501  0.000000000E+00  0.000000000E+00  6.219723577E+02  6.219723577E+02  0.000000000E+00  0.00000E+00  9.000E+00
      21    -1     0     0   501   512  0.000000000E+00  0.000000000E+00 -1.487346959E+03  1.487346959E+03  0.000000000E+00  0.00000E+00  9.000E+00
      25     1     1     2     0     0 -3.328966771E+02  7.773225323E+02 -3.254705434E+02  9.146620094E+02  1.250000000E+02  0.00000E+00  9.000E+00
      25     1     1     2     0     0  3.375611037E+02 -8.137167496E+02 -2.808983720E+02  9.330655619E+02  1.250000000E+02  0.00000E+00  9.000E+00
      21     1     1     2   502   512 -4.664426642E+00  3.639421740E+01 -2.590056859E+02  2.615917454E+02  3.814697266E-06  0.00000E+00  9.000E+00
#rwgt            1           1   3.3910164401464993E-002           3       15795           0
</event>
<event>
      5   9999  3.19816E-02  3.71035E+01 -1.00000E+00  1.46894E-01
      21    -1     0     0   502   501  0.000000000E+00  0.000000000E+00  2.051228936E+02  2.051228936E+02  0.000000000E+00  0.00000E+00  9.000E+00
      21    -1     0     0   501   511  0.000000000E+00  0.000000000E+00 -1.702068987E+03  1.702068987E+03  0.000000000E+00  0.00000E+00  9.000E+00
      25     1     1     2     0     0  3.356245073E+02  1.922314356E+02 -1.402247844E+02  4.299822379E+02  1.250000000E+02  0.00000E+00  9.000E+00
      25     1     1     2     0     0 -3.485692954E+02 -1.574593268E+02 -6.173782070E+02  7.369361191E+02  1.250000000E+02  0.00000E+00  9.000E+00
      21     1     1     2   502   511  1.294478808E+01 -3.477210879E+01 -7.393431019E+02  7.402735233E+02  1.078959322E-05  0.00000E+00  9.000E+00
#rwgt            1           1   2.7217607450237807E-002           3       15979           0
</event>
<event>
      5   9999  3.19816E-02  7.82184E+01 -1.00000E+00  1.28825E-01
       1    -1     0     0   502     0  0.000000000E+00  0.000000000E+00  1.270350907E+03  1.270350907E+03  0.000000000E+00  0.00000E+00  9.000E+00
      21    -1     0     0   501   502  0.000000000E+00  0.000000000E+00 -1.945766105E+02  1.945766105E+02  0.000000000E+00  0.00000E+00  9.000E+00
      25     1     1     2     0     0 -1.484290418E+02  3.294148584E+02  2.134417428E+02  4.378672253E+02  1.250000000E+02  0.00000E+00  9.000E+00
      25     1     1     2     0     0  7.038043595E+01 -3.242641182E+02  3.153767072E+02  4.745398735E+02  1.250000000E+02  0.00000E+00  9.000E+00
       1     1     1     2   501     0  7.804860589E+01 -5.150740126E+00  5.469558462E+02  5.525204184E+02  7.629394531E-06  0.00000E+00  9.000E+00
#rwgt            1           1   2.9019408358309733E-002           3       16103           0
</event>
<event>
      5   9999  3.19816E-02  6.39098E+01 -1.00000E+00  1.33254E-01
      21    -1     0     0   502   501  0.000000000E+00  0.000000000E+00  3.588737100E+02  3.588737100E+02  0.000000000E+00  0.00000E+00  9.000E+00
      21    -1     0     0   501   511  0.000000000E+00  0.000000000E+00 -3.092144290E+02  3.092144290E+02  0.000000000E+00  0.00000E+00  9.000E+00
      25     1     1     2     0     0 -1.954198039E+02 -1.584746994E+02  4.399254061E+01  2.843650361E+02  1.250000000E+02  0.00000E+00  9.000E+00
      25     1     1     2     0     0  1.914449253E+02  2.222607683E+02  1.455186266E+01  3.191986298E+02  1.250000000E+02  0.00000E+00  9.000E+00
      21     1     1     2   502   511  3.974878536E+00 -6.378606882E+01 -8.885122208E+00  6.452447312E+01  4.915124924E-07  0.00000E+00  9.000E+00
#rwgt            1           1   2.8483406759888457E-002           3       16240           0
</event>
<event>
      5   9999  3.19816E-02  1.90383E+02 -1.00000E+00  1.12433E-01
      21    -1     0     0   502   512  0.000000000E+00  0.000000000E+00  1.549996129E+03  1.549996129E+03  0.000000000E+00  0.00000E+00  9.000E+00
      21    -1     0     0   501   502  0.000000000E+00  0.000000000E+00 -6.459525003E+02  6.459525003E+02  0.000000000E+00  0.00000E+00  9.000E+00
      25     1     1     2     0     0 -5.287858027E+02 -4.340898258E+01  3.038241687E+01  5.459366778E+02  1.250000000E+02  0.00000E+00  9.000E+00
      25     1     1     2     0     0  3.449105844E+02 -5.941859866E+00 -2.919901054E+02  4.689155985E+02  1.250000000E+02  0.00000E+00  9.000E+00
      21     1     1     2   501   512  1.838752184E+02  4.935084245E+01  1.165651317E+03  1.181096353E+03  1.525878906E-05  0.00000E+00  9.000E+00
#rwgt            1           1   2.9942221467153373E-002           3       16327           0
</event>
<event>
      5   9999  3.19816E-02  2.32014E+01 -1.00000E+00  1.61219E-01
      21    -1     0     0   511   501  0.000000000E+00  0.000000000E+00  4.345280756E+02  4.345280756E+02  0.000000000E+00  0.00000E+00  9.000E+00
      21    -1     0     0   501   502  0.000000000E+00  0.000000000E+00 -7.915581412E+02  7.915581412E+02  0.000000000E+00  0.00000E+00  9.000E+00
      25     1     1     2     0     0 -6.314182823E+01 -3.874420440E+01  3.942926480E+02  4.202138695E+02  1.250000000E+02  0.00000E+00  9.000E+00
      25     1     1     2     0     0  7.490187489E+01  5.874440682E+01 -7.636179712E+02  7.796143932E+02  1.250000000E+02  0.00000E+00  9.000E+00
      21     1     1     2   511   502 -1.176004666E+01 -2.000020242E+01  1.229525760E+01  2.625795410E+01  4.460403188E-07  0.00000E+00  9.000E+00
#rwgt            1           1   3.1519174276636676E-002           3       16398           0
</event>
<event>
      5   9999  3.19816E-02  2.03681E+01 -1.00000E+00  1.65718E-01
      21    -1     0     0   502   501  0.000000000E+00  0.000000000E+00  3.203077966E+02  3.203077966E+02  0.000000000E+00  0.00000E+00  9.000E+00
      21    -1     0     0   501   512  0.000000000E+00  0.000000000E+00 -9.549941390E+02  9.549941390E+02  0.000000000E+00  0.00000E+00  9.000E+00
      25     1     1     2     0     0  4.019825906E+02 -1.631489648E+02 -1.818729609E+02  4.867343852E+02  1.250000000E+02  0.00000E+00  9.000E+00
      25     1     1     2     0     0 -3.936653610E+02  1.445563973E+02 -1.181293112E+02  4.532642746E+02  1.250000000E+02  0.00000E+00  9.000E+00
      21     1     1     2   502   512 -8.317229570E+00  1.859256749E+01 -3.346840702E+02  3.353032758E+02  6.607249480E-06  0.00000E+00  9.000E+00
#rwgt            1           1   2.4653833247229029E-002           3       16533           0
</event>
<event>
      5   9999  3.19816E-02  2.37280E+02 -1.00000E+00  1.09011E-01
      21    -1     0     0   502   501  0.000000000E+00  0.000000000E+00  1.389670213E+03  1.389670213E+03  0.000000000E+00  0.00000E+00  9.000E+00
       1    -1     0     0   501     0  0.000000000E+00  0.000000000E+00 -5.620503043E+02  5.620503043E+02  0.000000000E+00  0.00000E+00  9.000E+00
      25     1     1     2     0     0 -1.379646334E+02 -1.090310482E+02  3.849718274E+02  4.413052429E+02  1.250000000E+02  0.00000E+00  9.000E+00
      25     1     1     2     0     0 -2.601284819E+01  2.805334187E+02  9.238407106E+02  9.739005729E+02  1.250000000E+02  0.00000E+00  9.000E+00
       1     1     1     2   502     0  1.639774816E+02 -1.715023706E+02 -4.811926297E+02  5.365147011E+02  9.344061824E-06  0.00000E+00  9.000E+00
#rwgt            1           1   3.1589766017613652E-002           3       16696           0
</event>
<event>
      5   9999  3.19816E-02  1.20095E+02 -1.00000E+00  1.20354E-01
      21    -1     0     0   502   501  0.000000000E+00  0.000000000E+00  3.651955905E+02  3.651955905E+02  0.000000000E+00  0.00000E+00  9.000E+00
      21    -1     0     0   511   502  0.000000000E+00  0.000000000E+00 -4.237893238E+02  4.237893238E+02  0.000000000E+00  0.00000E+00  9.000E+00
      25     1     1     2     0     0  1.680514805E+02  1.095138173E+02  2.978959354E+01  2.382162802E+02  1.250000000E+02  0.00000E+00  9.000E+00
      25     1     1     2     0     0 -1.730361754E+02 -2.295057590E+02  9.856932802E+01  3.285655548E+02  1.250000000E+02  0.00000E+00  9.000E+00
      21     1     1     2   511   501  4.984694826E+00  1.199919418E+02 -1.869526549E+02  2.222030792E+02  0.000000000E+00  0.00000E+00  9.000E+00
#rwgt            1           1   2.7493927766185793E-002           3       16723           0
</event>
<event>
      5   9999  3.19816E-02  2.66867E+01 -1.00000E+00  1.56656E-01
      21    -1     0     0   502   501  0.000000000E+00  0.000000000E+00  1.577815497E+03  1.577815497E+03  0.000000000E+00  0.00000E+00  9.000E+00
       2    -1     0     0   501     0  0.000000000E+00  0.000000000E+00 -8.139060682E+01  8.139060682E+01  0.000000000E+00  0.00000E+00  9.000E+00
      25     1     1     2     0     0 -1.341076321E+02  8.829231833E+01  9.034869233E+02  9.261177091E+02  1.250000000E+02  0.00000E+00  9.000E+00
      25     1     1     2     0     0  1.605165718E+02 -8.445189344E+01  6.411764194E+02  6.779600969E+02  1.250000000E+02  0.00000E+00  9.000E+00
       2     1     1     2   502     0 -2.640893971E+01 -3.840424892E+00 -4.823845237E+01  5.512829806E+01  2.431401974E-06  0.00000E+00  9.000E+00
#rwgt            1           1   2.9522450252936542E-002           3       16833           0
</event>
<event>
      5   9999  3.19816E-02  2.13448E+01 -1.00000E+00  1.64070E-01
      21    -1     0     0   511   501  0.000000000E+00  0.000000000E+00  2.250320112E+02  2.250320112E+02  0.000000000E+00  0.00000E+00  9.000E+00
      21    -1     0     0   501   502  0.000000000E+00  0.000000000E+00 -3.564184816E+02  3.564184816E+02  0.000000000E+00  0.00000E+00  9.000E+00
      25     1     1     2     0     0 -2.107766428E+02  8.711119521E+01 -1.500877906E+02  3.002773691E+02  1.250000000E+02  0.00000E+00  9.000E+00
      25     1     1     2     0     0  2.003395132E+02 -1.057301960E+02  1.287496348E+01  2.590474080E+02  1.250000000E+02  0.00000E+00  9.000E+00
      21     1     1     2   511   502  1.043712962E+01  1.861900081E+01  5.826356708E+00  2.212571577E+01  4.380028980E-07  0.00000E+00  9.000E+00
#rwgt            1           1   2.8130030725951414E-002           3       16921           0
</event>
<event>
      5   9999  3.19816E-02  1.59251E+01 -1.00000E+00  1.74970E-01
      21    -1     0     0   502   512  0.000000000E+00  0.000000000E+00  2.416734214E+02  2.416734214E+02  0.000000000E+00  0.00000E+00  9.000E+00
      21    -1     0     0   501   502  0.000000000E+00  0.000000000E+00 -5.099930325E+02  5.099930325E+02  0.000000000E+00  0.00000E+00  9.000E+00
      25     1     1     2     0     0  1.932751241E+02 -1.237431564E+02  8.288252978E+01  2.741571741E+02  1.250000000E+02  0.00000E+00  9.000E+00
      25     1     1     2     0     0 -1.980902946E+02  1.389228309E+02 -3.657080923E+02  4.559679008E+02  1.250000000E+02  0.00000E+00  9.000E+00
      21     1     1     2   501   512  4.815170502E+00 -1.517967457E+01  1.450595136E+01  2.154137906E+01  2.920019320E-07  0.00000E+00  9.000E+00
#rwgt            1           1   2.6405866285286340E-002           3       17067           0
</event>
<event>
      5   9999  3.19816E-02  3.13400E+01 -1.00000E+00  1.51733E-01
      21    -1     0     0   511   501  0.000000000E+00  0.000000000E+00  7.284345976E+02  7.284345976E+02  0.000000000E+00  0.00000E+00  9.000E+00
      21    -1     0     0   501   502  0.000000000E+00  0.000000000E+00 -3.789762257E+02  3.789762257E+02  0.000000000E+00  0.00000E+00  9.000E+00
      25     1     1     2     0     0  1.923823319E+01  3.883930449E+02  4.640146597E+02  6.181859520E+02  1.250000000E+02  0.00000E+00  9.000E+00
      25     1     1     2     0     0 -4.398553312E+01 -3.691636561E+02 -1.684599017E+02  4.268726632E+02  1.250000000E+02  0.00000E+00  9.000E+00
      21     1     1     2   511   502  2.474729992E+01 -1.922938882E+01  5.390361401E+01  6.235220807E+01  6.743495762E-07  0.00000E+00  9.000E+00
#rwgt            1           1   3.1515743881752052E-002           3       17239           0
</event>
<event>
      5   9999  3.19816E-02  3.12189E+01 -1.00000E+00  1.51848E-01
      21    -1     0     0   502   501  0.000000000E+00  0.000000000E+00  1.174391865E+02  1.174391865E+02  0.000000000E+00  0.00000E+00  9.000E+00
      21    -1     0     0   501   512  0.000000000E+00  0.000000000E+00 -1.428423407E+03  1.428423407E+03  0.000000000E+00  0.00000E+00  9.000E+00
      25     1     1     2     0     0  5.404431431E+01 -3.513862151E+02 -7.908928140E+02  8.760876117E+02  1.250000000E+02  0.00000E+00  9.000E+00
      25     1     1     2     0     0 -2.552011759E+01  3.640744754E+02 -4.479801204E+02  5.911959814E+02  1.250000000E+02  0.00000E+00  9.000E+00
      21     1     1     2   502   512 -2.852419671E+01 -1.268826035E+01 -7.211128596E+01  7.857900045E+01  9.536743164E-07  0.00000E+00  9.000E+00
#rwgt            1           1   2.8269208145133975E-002           3       17417           0
</event>
<event>
      5   9999  3.19816E-02  7.16034E+01 -1.00000E+00  1.30724E-01
      21    -1     0     0   502   501  0.000000000E+00  0.000000000E+00  5.469654752E+02  5.469654752E+02  0.000000000E+00  0.00000E+00  9.000E+00
      21    -1     0     0   501   511  0.000000000E+00  0.000000000E+00 -4.557874811E+02  4.557874811E+02  0.000000000E+00  0.00000E+00  9.000E+00
      25     1     1     2     0     0 -1.494598987E+02 -1.150753443E+02 -3.015148751E+02  3.769838407E+02  1.250000000E+02  0.00000E+00  9.000E+00
      25     1     1     2     0     0  7.794642116E+01  1.186629558E+02  4.781925709E+02  5.142467079E+02  1.250000000E+02  0.00000E+00  9.000E+00
      21     1     1     2   502   511  7.151347758E+01 -3.587611517E+00 -8.549970178E+01  1.115224078E+02  1.348699152E-06  0.00000E+00  9.000E+00
#rwgt            1           1   2.6249331793473950E-002           3       17600           0
</event>
<event>
      5   9999  3.19816E-02  2.63048E+01 -1.00000E+00  1.57114E-01
      21    -1     0     0   502   501  0.000000000E+00  0.000000000E+00  1.319996634E+03  1.319996634E+03  0.000000000E+00  0.00000E+00  9.000E+00
      21    -1     0     0   501   512  0.000000000E+00  0.000000000E+00 -1.324669342E+02  1.324669342E+02  0.000000000E+00  0.00000E+00  9.000E+00
      25     1     1     2     0     0  2.669991892E+02  1.742751381E+02  1.910274925E+02  3.921439706E+02  1.250000000E+02  0.00000E+00  9.000E+00
      25     1     1     2     0     0 -2.565665176E+02 -1.501276421E+02  9.729975910E+02  1.025043413E+03  1.250000000E+02  0.00000E+00  9.000E+00
      21     1     1     2   502   512 -1.043267154E+01 -2.414749600E+01  2.350461614E+01  3.527618429E+01  0.000000000E+00  0.00000E+00  9.000E+00
#rwgt            1           1   2.6925449690578349E-002           3       17734           0
</event>
<event>
      5   9999  3.19816E-02  3.64888E+01 -1.00000E+00  1.47359E-01
      21    -1     0     0   502   501  0.000000000E+00  0.000000000E+00  1.480619188E+02  1.480619188E+02  0.000000000E+00  0.00000E+00  9.000E+00
      21    -1     0     0   501   511  0.000000000E+00  0.000000000E+00 -1.858559644E+02  1.858559644E+02  0.000000000E+00  0.00000E+00  9.000E+00
      25     1     1     2     0     0 -4.854888071E+00 -4.788517597E+01  2.728925757E+01  1.366977088E+02  1.250000000E+02  0.00000E+00  9.000E+00
      25     1     1     2     0     0 -2.453042394E+01  6.951701246E+01 -3.343909087E+01  1.489212192E+02  1.250000000E+02  0.00000E+00  9.000E+00
      21     1     1     2   502   511  2.938531201E+01 -2.163183649E+01 -3.164421229E+01  4.829895530E+01  5.840038640E-07  0.00000E+00  9.000E+00
#rwgt            1           1   2.2415840927129071E-002           3       17940           0
</event>
<event>
      5   9999  3.19816E-02  1.43908E+02 -1.00000E+00  1.17112E-01
      21    -1     0     0   502   501  0.000000000E+00  0.000000000E+00  5.996318416E+02  5.996318416E+02  0.000000000E+00  0.00000E+00  9.000E+00
       1    -1     0     0   501     0  0.000000000E+00  0.000000000E+00 -1.429510279E+03  1.429510279E+03  0.000000000E+00  0.00000E+00  9.000E+00
      25     1     1     2     0     0  3.741145632E+02 -3.402426844E+00 -4.759440771E+02  6.181594030E+02  1.250000000E+02  0.00000E+00  9.000E+00
      25     1     1     2     0     0 -2.402015918E+02  5.609940797E+01  4.858085334E+02  5.589981032E+02  1.250000000E+02  0.00000E+00  9.000E+00
       1     1     1     2   502     0 -1.339129714E+02 -5.269698113E+01 -8.397428932E+02  8.519846140E+02  1.078959322E-05  0.00000E+00  9.000E+00
#rwgt            1           1   2.6336718960360408E-002           3       18066           0
</event>
<event>
      5   9999  3.19816E-02  2.73109E+01 -1.00000E+00  1.55928E-01
      21    -1     0     0   502   501  0.000000000E+00  0.000000000E+00  6.199520743E+02  6.199520743E+02  0.000000000E+00  0.00000E+00  9.000E+00
      21    -1     0     0   511   502  0.000000000E+00  0.000000000E+00 -1.387476664E+02  1.387476664E+02  0.000000000E+00  0.00000E+00  9.000E+00
      25     1     1     2     0     0 -5.411392458E+01  1.526852736E+02  2.463513276E+02  3.202422305E+02  1.250000000E+02  0.00000E+00  9.000E+00
      25     1     1     2     0     0  2.681504703E+01 -1.518738222E+02  3.045850131E+02  3.635680608E+02  1.250000000E+02  0.00000E+00  9.000E+00
      21     1     1     2   511   501  2.729887755E+01 -8.114513626E-01 -6.973193280E+01  7.488944933E+01  2.336015456E-06  0.00000E+00  9.000E+00
#rwgt            1           1   2.8170678112936370E-002           3       18108           0
</event>
<event>
      5   9999  3.19816E-02  5.81455E+01 -1.00000E+00  1.35436E-01
      21    -1     0     0   502   501  0.000000000E+00  0.000000000E+00  9.675484817E+02  9.675484817E+02  0.000000000E+00  0.00000E+00  9.000E+00
      21    -1     0     0   501   512  0.000000000E+00  0.000000000E+00 -5.815529724E+01  5.815529724E+01  0.000000000E+00  0.00000E+00  9.000E+00
      25     1     1     2     0     0 -6.444421865E+01  4.895489329E+01  7.070056227E+02  7.225175357E+02  1.250000000E+02  0.00000E+00  9.000E+00
      25     1     1     2     0     0  1.106101795E+02 -1.360513343E+01  1.547506508E+02  2.280185856E+02  1.250000000E+02  0.00000E+00  9.000E+00
      21     1     1     2   502   512 -4.616596086E+01 -3.534975986E+01  4.763691094E+01  7.516765759E+01  0.000000000E+00  0.00000E+00  9.000E+00
#rwgt            1           1   2.7458711422497305E-002           3       18227           0
</event>
<event>
      5   9999  3.19816E-02  6.58720E+01 -1.00000E+00  1.32572E-01
      21    -1     0     0   502   501  0.000000000E+00  0.000000000E+00  6.058109898E+02  6.058109898E+02  0.000000000E+00  0.00000E+00  9.000E+00
      21    -1     0     0   511   502  0.000000000E+00  0.000000000E+00 -1.051040671E+03  1.051040671E+03  0.000000000E+00  0.00000E+00  9.000E+00
      25     1     1     2     0     0 -4.215493565E+02 -6.359214326E+02 -1.593127268E+02  7.893703018E+02  1.250000000E+02  0.00000E+00  9.000E+00
      25     1     1     2     0     0  3.908774012E+02  5.776260744E+02 -1.615497161E+02  7.267464037E+02  1.250000000E+02  0.00000E+00  9.000E+00
      21     1     1     2   511   501  3.067195530E+01  5.829535826E+01 -1.243672383E+02  1.407349551E+02  0.000000000E+00  0.00000E+00  9.000E+00
#rwgt            1           1   3.2649896078998576E-002           3       18269           0
</event>
<event>
      5   9999  3.19816E-02  2.94951E+02 -1.00000E+00  1.05832E-01
      21    -1     0     0   512   501  0.000000000E+00  0.000000000E+00  3.476758489E+02  3.476758489E+02  0.000000000E+00  0.00000E+00  9.000E+00
      21    -1     0     0   501   502  0.000000000E+00  0.000000000E+00 -6.826241078E+02  6.826241078E+02  0.000000000E+00  0.00000E+00  9.000E+00
      25     1     1     2     0     0 -9.408039427E+01  6.418760838E+01  7.757572136E+01  1.860488167E+02  1.250000000E+02  0.00000E+00  9.000E+00
      25     1     1     2     0     0  3.460940486E+02 -2.174371629E+02 -3.238780002E+02  5.362666961E+02  1.250000000E+02  0.00000E+00  9.000E+00
      21     1     1     2   512   502 -2.520136544E+02  1.532495545E+02 -8.864598002E+01  3.079844439E+02  1.651812370E-06  0.00000E+00  9.000E+00
#rwgt            1           1   2.5376340340000237E-002           3       18408           0
</event>
<event>
      5   9999  3.19816E-02  1.29330E+02 -1.00000E+00  1.19004E-01
      21    -1     0     0   502   501  0.000000000E+00  0.000000000E+00  1.598086908E+03  1.598086908E+03  0.000000000E+00  0.00000E+00  9.000E+00
      21    -1     0     0   511   502  0.000000000E+00  0.000000000E+00 -4.121552062E+02  4.121552062E+02  0.000000000E+00  0.00000E+00  9.000E+00
      25     1     1     2     0     0  1.300570157E+02 -2.639034609E+02  1.337459302E+03  1.375129903E+03  1.250000000E+02  0.00000E+00  9.000E+00
      25     1     1     2     0     0 -2.287426915E+02  3.474944646E+02 -2.219905663E+02  4.878323825E+02  1.250000000E+02  0.00000E+00  9.000E+00
      21     1     1     2   511   501  9.868567582E+01 -8.359100378E+01  7.046296620E+01  1.472798293E+02  3.814697266E-06  0.00000E+00  9.000E+00
#rwgt            1           1   3.0211491764143644E-002           3       18501           0
</event>
<event>
      5   9999  3.19816E-02  6.49848E+01 -1.00000E+00  1.32877E-01
      21    -1     0     0   502   501  0.000000000E+00  0.000000000E+00  5.205785091E+01  5.205785091E+01  0.000000000E+00  0.00000E+00  9.000E+00
       1    -1     0     0   501     0  0.000000000E+00  0.000000000E+00 -2.117003556E+03  2.117003556E+03  0.000000000E+00  0.00000E+00  9.000E+00
      25     1     1     2     0     0  1.487940071E+02  8.377155729E+01 -4.207539833E+02  4.709737199E+02  1.250000000E+02  0.00000E+00  9.000E+00
      25     1     1     2     0     0 -2.135859472E+02 -7.876864711E+01 -6.247978033E+02  6.766245278E+02  1.250000000E+02  0.00000E+00  9.000E+00
       1     1     1     2   502     0  6.479194013E+01 -5.002910177E+00 -1.019393919E+03  1.021463159E+03  1.525878906E-05  0.00000E+00  9.000E+00
#rwgt            1           1   2.8859889831355574E-002           3       18623           0
</event>
<event>
      5   9999  3.19816E-02  1.18554E+01 -1.00000E+00  1.87583E-01
      21    -1     0     0   502   501  0.000000000E+00  0.000000000E+00  1.846479935E+01  1.846479935E+01  0.000000000E+00  0.00000E+00  9.000E+00
      21    -1     0     0   511   502  0.000000000E+00  0.000000000E+00 -1.522193158E+03  1.522193158E+03  0.000000000E+00  0.00000E+00  9.000E+00
      25     1     1     2     0     0 -4.922510878E+01  8.037197763E+01 -5.813914840E+02  6.020995132E+02  1.250000000E+02  0.00000E+00  9.000E+00
      25     1     1     2     0     0  5.965208515E+01 -7.473038116E+01 -7.793780971E+02  7.951089356E+02  1.250000000E+02  0.00000E+00  9.000E+00
      21     1     1     2   511   501 -1.042697637E+01 -5.641596468E+00 -1.429587778E+02  1.434495089E+02  1.907348633E-06  0.00000E+00  9.000E+00
#rwgt            1           1   8.0319504676731504E-002           3       18690           0
</event>
<event>
      5   9999  3.19816E-02  2.46131E+01 -1.00000E+00  1.59260E-01
      21    -1     0     0   502   501  0.000000000E+00  0.000000000E+00  1.266191765E+02  1.266191765E+02  0.000000000E+00  0.00000E+00  9.000E+00
       2    -1     0     0   501     0  0.000000000E+00  0.000000000E+00 -9.127662493E+02  9.127662493E+02  0.000000000E+00  0.00000E+00  9.000E+00
      25     1     1     2     0     0 -4.532927295E+01 -3.669199390E+01 -3.706389288E+02  3.954734643E+02  1.250000000E+02  0.00000E+00  9.000E+00
      25     1     1     2     0     0  3.464794525E+01  5.886664638E+01  6.934938498E+01  1.584301088E+02  1.250000000E+02  0.00000E+00  9.000E+00
       2     1     1     2   502     0  1.068132770E+01 -2.217465247E+01 -4.848575289E+02  4.854818527E+02  7.629394531E-06  0.00000E+00  9.000E+00
#rwgt            1           1   3.3741258306249008E-002           3       18822           0
</event>
<event>
      5   9999  3.19816E-02  5.11057E+01 -1.00000E+00  1.38536E-01
      21    -1     0     0   511   501  0.000000000E+00  0.000000000E+00  4.504947987E+02  4.504947987E+02  0.000000000E+00  0.00000E+00  9.000E+00
      21    -1     0     0   501   502  0.000000000E+00  0.000000000E+00 -2.683716726E+02  2.683716726E+02  0.000000000E+00  0.00000E+00  9.000E+00
      25     1     1     2     0     0  6.024897087E+01 -1.900406341E+02  6.030078362E+01  2.429126707E+02  1.250000000E+02  0.00000E+00  9.000E+00
      25     1     1     2     0     0 -9.769171849E+01  2.248232181E+02 -6.460828280E+01  2.826453280E+02  1.250000000E+02  0.00000E+00  9.000E+00
      21     1     1     2   511   502  3.744274762E+01 -3.478258398E+01  1.864306253E+02  1.933084725E+02  2.697398305E-06  0.00000E+00  9.000E+00
#rwgt            1           1   3.5024422147631677E-002           3       18912           0
</event>
<event>
      5   9999  3.19816E-02  6.38562E+01 -1.00000E+00  1.33274E-01
      21    -1     0     0   502   501  0.000000000E+00  0.000000000E+00  2.532615197E+03  2.532615197E+03  0.000000000E+00  0.00000E+00  9.000E+00
      21    -1     0     0   501   512  0.000000000E+00  0.000000000E+00 -7.351238853E+02  7.351238853E+02  0.000000000E+00  0.00000E+00  9.000E+00
      25     1     1     2     0     0  7.171753206E+02 -8.341486879E+02  3.555730673E+02  1.162842070E+03  1.250000000E+02  0.00000E+00  9.000E+00
      25     1     1     2     0     0 -7.792484705E+02  8.491331191E+02  1.575968566E+03  1.956414361E+03  1.250000000E+02  0.00000E+00  9.000E+00
      21     1     1     2   502   512  6.207314986E+01 -1.498443119E+01 -1.340503210E+02  1.484826511E+02  3.814697266E-06  0.00000E+00  9.000E+00
#rwgt            1           1   7.4172338546206945E-002           3       19008           0
</event>
<event>
      5   9999  3.50310E-02  1.12565E+02 -1.00000E+00  1.21559E-01
      21    -1     0     0   511   501  0.000000000E+00  0.000000000E+00  2.414209307E+02  2.414209307E+02  0.000000000E+00  0.00000E+00  9.000E+00
      21    -1     0     0   501   502  0.000000000E+00  0.000000000E+00 -3.124338755E+02  3.124338755E+02  0.000000000E+00  0.00000E+00  9.000E+00
      25     1     1     2     0     0  3.020760464E+01  9.685762597E+01  3.509821965E+01  1.647749499E+02  1.250000000E+02  0.00000E+00  9.000E+00
      25     1     1     2     0     0 -9.067317484E+01 -1.918037125E+02 -1.230032840E+02  2.752546033E+02  1.250000000E+02  0.00000E+00  9.000E+00
      21     1     1     2   511   502  6.046557020E+01  9.494608656E+01  1.689211956E+01  1.138252531E+02  1.488923549E-06  0.00000E+00  9.000E+00
#rwgt            1           1   3.1832208149604142E-002           3       19158           0
</event>
<event>
      5   9999  3.19816E-02  1.64868E+02 -1.00000E+00  1.14790E-01
      21    -1     0     0   502   512  0.000000000E+00  0.000000000E+00  5.234492437E+02  5.234492437E+02  0.000000000E+00  0.00000E+00  9.000E+00
      21    -1     0     0   501   502  0.000000000E+00  0.000000000E+00 -6.213190005E+02  6.213190005E+02  0.000000000E+00  0.00000E+00  9.000E+00
      25     1     1     2     0     0  9.709599971E+01 -8.080610559E+01 -5.157196601E+02  5.454805475E+02  1.250000000E+02  0.00000E+00  9.000E+00
      25     1     1     2     0     0  6.441628629E+01  4.771220639E+01 -1.701517007E+00  1.485052448E+02  1.250000000E+02  0.00000E+00  9.000E+00
      21     1     1     2   501   512 -1.615122860E+02  3.309389920E+01  4.195514203E+02  4.507824519E+02  5.394796609E-06  0.00000E+00  9.000E+00
#rwgt            1           1   3.1291840882943296E-002           3       19218           0
</event>
<event>
      5   9999  3.19816E-02  2.09961E+02 -1.00000E+00  1.10885E-01
      21    -1     0     0   502   501  0.000000000E+00  0.000000000E+00  5.191223665E+02  5.191223665E+02  0.000000000E+00  0.00000E+00  9.000E+00
      21    -1     0     0   511   502  0.000000000E+00  0.000000000E+00 -1.659658664E+03  1.659658664E+03  0.000000000E+00  0.00000E+00  9.000E+00
      25     1     1     2     0     0  8.489806499E+02  1.278986744E+02 -7.876485175E+02  1.171811163E+03  1.250000000E+02  0.00000E+00  9.000E+00
      25     1     1     2     0     0 -6.791645181E+02 -4.422887146E+00 -1.336321375E+02  7.033964407E+02  1.250000000E+02  0.00000E+00  9.000E+00
      21     1     1     2   511   501 -1.698161317E+02 -1.234757872E+02 -2.192556424E+02  3.035734267E+02  4.672030912E-06  0.00000E+00  9.000E+00
#rwgt            1           1   2.7892730918861266E-002           3       19256           0
</event>
<event>
      5   9999  3.19816E-02  3.14255E+01 -1.00000E+00  1.51653E-01
      21    -1     0     0   502   512  0.000000000E+00  0.000000000E+00  1.440709177E+03  1.440709177E+03  0.000000000E+00  0.00000E+00  9.000E+00
      21    -1     0     0   501   502  0.000000000E+00  0.000000000E+00 -1.433198863E+02  1.433198863E+02  0.000000000E+00  0.00000E+00  9.000E+00
      25     1     1     2     0     0  3.337632876E+02 -2.993950115E+01  1.014760253E+03  1.075945016E+03  1.250000000E+02  0.00000E+00  9.000E+00
      25     1     1     2     0     0 -3.089908097E+02  1.060331522E+01  1.394010080E+02  3.614490169E+02  1.250000000E+02  0.00000E+00  9.000E+00
      21     1     1     2   501   512 -2.477247795E+01  1.933618594E+01  1.432280296E+02  1.466350307E+02  1.907348633E-06  0.00000E+00  9.000E+00
#rwgt            1           1   1.9490154620035977E-002           3       19341           0
</event>
<event>
      5   9999  3.19816E-02  1.38422E+02 -1.00000E+00  1.17793E-01
      21    -1     0     0   502   511  0.000000000E+00  0.000000000E+00  7.361845396E+02  7.361845396E+02  0.000000000E+00  0.00000E+00  9.000E+00
      21    -1     0     0   501   502  0.000000000E+00  0.000000000E+00 -9.460156944E+02  9.460156944E+02  0.000000000E+00  0.00000E+00  9.000E+00
      25     1     1     2     0     0  3.988141068E+01 -1.227994108E+02 -8.666689175E+02  8.851046462E+02  1.250000000E+02  0.00000E+00  9.000E+00
      25     1     1     2     0     0  9.241767367E+01  8.208441168E+01  6.206790055E+01  1.864304195E+02  1.250000000E+02  0.00000E+00  9.000E+00
      21     1     1     2   501   511 -1.322990843E+02  4.071499915E+01  5.947698622E+02  6.106651683E+02  7.629394531E-06  0.00000E+00  9.000E+00
#rwgt            1           1   2.7976491762798924E-002           3       19463           0
</event>
<event>
      5   9999  3.19816E-02  5.39279E+01 -1.00000E+00  1.37227E-01
       1    -1     0     0   502     0  0.000000000E+00  0.000000000E+00  1.477684921E+03  1.477684921E+03  0.000000000E+00  0.00000E+00  9.000E+00
      21    -1     0     0   501   502  0.000000000E+00  0.000000000E+00 -2.777393690E+02  2.777393690E+02  0.000000000E+00  0.00000E+00  9.000E+00
      25     1     1     2     0     0 -2.089307279E+02  6.176628876E+01 -1.843485128E+02  3.115710154E+02  1.250000000E+02  0.00000E+00  9.000E+00
      25     1     1     2     0     0  1.780171807E+02 -1.059542415E+02  4.760391488E+02  5.339987726E+02  1.250000000E+02  0.00000E+00  9.000E+00
       1     1     1     2   501     0  3.091354712E+01  4.418795274E+01  9.082549156E+02  9.098545017E+02  1.078959322E-05  0.00000E+00  9.000E+00
#rwgt            1           1   2.7837547879896719E-002           3       19509           0
</event>
<event>
      5   9999  3.19816E-02  2.97076E+02 -1.00000E+00  1.05730E-01
      21    -1     0     0   502   501  0.000000000E+00  0.000000000E+00  1.005754497E+03  1.005754497E+03  0.000000000E+00  0.00000E+00  9.000E+00
      21    -1     0     0   501   511  0.000000000E+00  0.000000000E+00 -5.694496704E+02  5.694496704E+02  0.000000000E+00  0.00000E+00  9.000E+00
      25     1     1     2     0     0 -2.926905691E+02 -3.079208346E+02 -2.402601278E+02  5.038183588E+02  1.250000000E+02  0.00000E+00  9.000E+00
      25     1     1     2     0     0  1.275227179E+02  6.099281769E+01  7.433241777E+02  7.669015586E+02  1.250000000E+02  0.00000E+00  9.000E+00
      21     1     1     2   502   511  1.651678512E+02  2.469280169E+02 -6.675922333E+01  3.044842500E+02  3.932099939E-06  0.00000E+00  9.000E+00
#rwgt            2          11   4.2347919782590544E-003           3       19605           0
</event>
<event>
      5   9999  3.19816E-02  1.36582E+02 -1.00000E+00  1.18030E-01
      21    -1     0     0   502   501  0.000000000E+00  0.000000000E+00  9.999063305E+01  9.999063305E+01  0.000000000E+00  0.00000E+00  9.000E+00
      21    -1     0     0   501   512  0.000000000E+00  0.000000000E+00 -6.201881663E+02  6.201881663E+02  0.000000000E+00  0.00000E+00  9.000E+00
      25     1     1     2     0     0  1.242351902E+02  1.368255076E+02 -2.159256779E+02  3.104907412E+02  1.250000000E+02  0.00000E+00  9.000E+00
      25     1     1     2     0     0 -1.440079550E+01 -5.563973253E+01 -1.600864971E+02  2.110825651E+02  1.250000000E+02  0.00000E+00  9.000E+00
      21     1     1     2   502   512 -1.098343947E+02 -8.118577507E+01 -1.441853583E+02  1.986054930E+02  3.814697266E-06  0.00000E+00  9.000E+00
#rwgt            1           1   2.9749942529763700E-002           3       19625           0
</event>
<event>
      5   9999  3.19816E-02  6.10944E+00 -1.00000E+00  2.24259E-01
      21    -1     0     0   502   501  0.000000000E+00  0.000000000E+00  1.745706027E+02  1.745706027E+02  0.000000000E+00  0.00000E+00  9.000E+00
      21    -1     0     0   501   511  0.000000000E+00  0.000000000E+00 -5.866164574E+02  5.866164574E+02  0.000000000E+00  0.00000E+00  9.000E+00
      25     1     1     2     0     0  1.889230930E+02  2.009400055E+02 -2.875724535E+02  4.176023670E+02  1.250000000E+02  0.00000E+00  9.000E+00
      25     1     1     2     0     0 -1.938721637E+02 -2.045221771E+02 -1.090671472E+02  3.270112833E+02  1.250000000E+02  0.00000E+00  9.000E+00
      21     1     1     2   502   511  4.949070684E+00  3.582171631E+00 -1.540625391E+01  1.657340984E+01  1.685873940E-07  0.00000E+00  9.000E+00
#rwgt            1           1   2.7206356290037342E-002           3       19677           0
</event>
<event>
      5   9999  3.19816E-02  2.42992E+01 -1.00000E+00  1.59681E-01
      21    -1     0     0   512   501  0.000000000E+00  0.000000000E+00  5.775889262E+02  5.775889262E+02  0.000000000E+00  0.00000E+00  9.000E+00
      21    -1     0     0   501   502  0.000000000E+00  0.000000000E+00 -1.056070430E+03  1.056070430E+03  0.000000000E+00  0.00000E+00  9.000E+00
      25     1     1     2     0     0  2.803662197E+02  4.095750067E+02 -8.260394589E+02  9.717628779E+02  1.250000000E+02  0.00000E+00  9.000E+00
      25     1     1     2     0     0 -2.941635246E+02 -4.295771939E+02  3.460927872E+02  6.375531053E+02  1.250000000E+02  0.00000E+00  9.000E+00
      21     1     1     2   512   502  1.379730491E+01  2.000218716E+01  1.465167439E+00  2.434337343E+01  5.771194914E-07  0.00000E+00  9.000E+00
#rwgt            1           1   2.6611304412498218E-002           3       20010           0
</event>
<event>
      5   9999  3.19816E-02  1.08273E+01 -1.00000E+00  1.91849E-01
      21    -1     0     0   502   501  0.000000000E+00  0.000000000E+00  1.193791881E+02  1.193791881E+02  0.000000000E+00  0.00000E+00  9.000E+00
      21    -1     0     0   501   511  0.000000000E+00  0.000000000E+00 -2.180534920E+02  2.180534920E+02  0.000000000E+00  0.00000E+00  9.000E+00
      25     1     1     2     0     0  5.335781496E+01 -6.989844913E+01 -8.842530539E+01  1.765697716E+02  1.250000000E+02  0.00000E+00  9.000E+00
      25     1     1     2     0     0 -4.274167338E+01  6.777031677E+01 -4.361795782E+00  1.485385194E+02  1.250000000E+02  0.00000E+00  9.000E+00
      21     1     1     2   502   511 -1.061614159E+01  2.128132365E+00 -5.887202770E+00  1.232438907E+01  1.192092896E-07  0.00000E+00  9.000E+00
#rwgt            1           1   7.7948624174729766E-002           3       20237           0
</event>
<event>
      5   9999  3.19816E-02  1.08208E+02 -1.00000E+00  1.22306E-01
      21    -1     0     0   502   501  0.000000000E+00  0.000000000E+00  1.905365122E+02  1.905365122E+02  0.000000000E+00  0.00000E+00  9.000E+00
      21    -1     0     0   501   512  0.000000000E+00  0.000000000E+00 -8.151724741E+02  8.151724741E+02  0.000000000E+00  0.00000E+00  9.000E+00
      25     1     1     2     0     0 -3.471428685E+02 -1.299329281E+01 -3.236305868E+02  4.909569773E+02  1.250000000E+02  0.00000E+00  9.000E+00
      25     1     1     2     0     0  2.496887972E+02 -3.403578217E+01 -1.242750694E+02  3.075259709E+02  1.250000000E+02  0.00000E+00  9.000E+00
      21     1     1     2   502   512  9.745407130E+01  4.702907498E+01 -1.767303057E+02  2.072260381E+02  3.814697266E-06  0.00000E+00  9.000E+00
#rwgt            1           1   2.6922404059595232E-002           3       20361           0
</event>
<event>
      5   9999  3.19816E-02  8.22671E+01 -1.00000E+00  1.27765E-01
      21    -1     0     0   511   501  0.000000000E+00  0.000000000E+00  1.372223670E+03  1.372223670E+03  0.000000000E+00  0.00000E+00  9.000E+00
      21    -1     0     0   501   502  0.000000000E+00  0.000000000E+00 -1.292778907E+03  1.292778907E+03  0.000000000E+00  0.00000E+00  9.000E+00
      25     1     1     2     0     0  1.115012808E+03 -4.374773763E+02  4.790711767E+02  1.296061036E+03  1.250000000E+02  0.00000E+00  9.000E+00
      25     1     1     2     0     0 -1.136747064E+03  3.581332072E+02 -4.409030317E+02  1.276900060E+03  1.250000000E+02  0.00000E+00  9.000E+00
      21     1     1     2   511   502  2.173425590E+01  7.934416910E+01  4.127661809E+01  9.204148114E+01  1.784161275E-06  0.00000E+00  9.000E+00
#rwgt            1           1   6.4631435379713900E-002           3       20432           0
</event>
<event>
      5   9999  3.19816E-02  2.77817E+02 -1.00000E+00  1.06687E-01
      21    -1     0     0   502   512  0.000000000E+00  0.000000000E+00  1.869369096E+02  1.869369096E+02  0.000000000E+00  0.00000E+00  9.000E+00
      21    -1     0     0   501   502  0.000000000E+00  0.000000000E+00 -1.269082906E+03  1.269082906E+03  0.000000000E+00  0.00000E+00  9.000E+00
      25     1     1     2     0     0  1.493803929E+02  4.092925651E+00 -4.284078941E+02  4.706267922E+02  1.250000000E+02  0.00000E+00  9.000E+00
      25     1     1     2     0     0 -2.555341498E+02  2.526438741E+02 -5.872601240E+02  6.997328648E+02  1.250000000E+02  0.00000E+00  9.000E+00
      21     1     1     2   501   512  1.061537569E+02 -2.567367997E+02 -6.647797790E+01  2.856601582E+02  1.907348633E-06  0.00000E+00  9.000E+00
#rwgt            1           1   2.6209945131971706E-002           3       20554           0
</event>
<event>
      5   9999  3.19816E-02  3.47186E+01 -1.00000E+00  1.48760E-01
      21    -1     0     0   502   511  0.000000000E+00  0.000000000E+00  6.881429783E+02  6.881429783E+02  0.000000000E+00  0.00000E+00  9.000E+00
      21    -1     0     0   501   502  0.000000000E+00  0.000000000E+00 -7.607982681E+02  7.607982681E+02  0.000000000E+00  0.00000E+00  9.000E+00
      25     1     1     2     0     0 -5.577170181E+02 -3.474191311E+02  5.092434865E+01  6.707955085E+02  1.250000000E+02  0.00000E+00  9.000E+00
      25     1     1     2     0     0  5.468315859E+02  3.144511020E+02 -2.168360402E+02  6.786362408E+02  1.250000000E+02  0.00000E+00  9.000E+00
      21     1     1     2   501   511  1.088543213E+01  3.296802910E+01  9.325640170E+01  9.950949720E+01  0.000000000E+00  0.00000E+00  9.000E+00
#rwgt            1           1   2.7330346297264635E-002           3       20624           0
</event>
<event>
      5   9999  3.19816E-02  1.56346E+02 -1.00000E+00  1.15685E-01
      21    -1     0     0   502   501  0.000000000E+00  0.000000000E+00  4.314508088E+02  4.314508088E+02  0.000000000E+00  0.00000E+00  9.000E+00
      21    -1     0     0   512   502  0.000000000E+00  0.000000000E+00 -3.816440877E+02  3.816440877E+02  0.000000000E+00  0.00000E+00  9.000E+00
      25     1     1     2     0     0 -2.641266634E+01 -3.407857096E+02  6.184414946E+00  3.639996920E+02  1.250000000E+02  0.00000E+00  9.000E+00
      25     1     1     2     0     0  1.251316499E+02  2.195481583E+02  7.012297867E+01  2.905194585E+02  1.250000000E+02  0.00000E+00  9.000E+00
      21     1     1     2   512   501 -9.871898361E+01  1.212375512E+02 -2.650067251E+01  1.585757459E+02  2.900487199E-06  0.00000E+00  9.000E+00
#rwgt            1           1   2.7799992104437562E-002           3       20776           0
</event>
<event>
      5   9999  3.19816E-02  6.09048E+00 -1.00000E+00  2.24467E-01
      21    -1     0     0   511   501  0.000000000E+00  0.000000000E+00  2.775287653E+01  2.775287653E+01  0.000000000E+00  0.00000E+00  9.000E+00
      21    -1     0     0   501   502  0.000000000E+00  0.000000000E+00 -1.187581938E+03  1.187581938E+03  0.000000000E+00  0.00000E+00  9.000E+00
      25     1     1     2     0     0  3.029034692E+01 -9.890117744E+01 -8.096637422E+02  8.257598461E+02  1.250000000E+02  0.00000E+00  9.000E+00
      25     1     1     2     0     0 -2.445264578E+01  9.716475763E+01 -3.480139479E+02  3.831156874E+02  1.250000000E+02  0.00000E+00  9.000E+00
      21     1     1     2   511   502 -5.837701148E+00  1.736419816E+00 -2.151370920E+00  6.459280556E+00  1.861154437E-07  0.00000E+00  9.000E+00
#rwgt            1           1   2.5539071113488750E-002           3       20824           0
</event>
<event>
      5   9999  3.19816E-02  3.66453E+01 -1.00000E+00  1.47240E-01
      21    -1     0     0   512   501  0.000000000E+00  0.000000000E+00  3.276384109E+02  3.276384109E+02  0.000000000E+00  0.00000E+00  9.000E+00
      21    -1     0     0   501   502  0.000000000E+00  0.000000000E+00 -2.180334156E+02  2.180334156E+02  0.000000000E+00  0.00000E+00  9.000E+00
      25     1     1     2     0     0 -2.104316978E+00  1.589098552E+02  1.804236929E+02  2.709879687E+02  1.250000000E+02  0.00000E+00  9.000E+00
      25     1     1     2     0     0 -3.370101016E+01 -1.511088227E+02 -1.046366427E+02  2.248187301E+02  1.250000000E+02  0.00000E+00  9.000E+00
      21     1     1     2   512   502  3.580532714E+01 -7.801032497E+00  3.381794498E+01  4.986512772E+01  4.768371582E-07  0.00000E+00  9.000E+00
#rwgt            1           1   2.8170265855264293E-002           3       21034           0
</event>
<event>
      5   9999  3.19816E-02  6.36912E+01 -1.00000E+00  1.33332E-01
      21    -1     0     0   502   501  0.000000000E+00  0.000000000E+00  1.075724055E+03  1.075724055E+03  0.000000000E+00  0.00000E+00  9.000E+00
      21    -1     0     0   501   511  0.000000000E+00  0.000000000E+00 -1.058457362E+03  1.058457362E+03  0.000000000E+00  0.00000E+00  9.000E+00
      25     1     1     2     0     0 -6.885410844E+02  7.178243777E+02  1.109373943E+02  1.008609324E+03  1.250000000E+02  0.00000E+00  9.000E+00
      25     1     1     2     0     0  6.353745634E+02 -7.528941332E+02  2.224295265E+01  9.933127204E+02  1.250000000E+02  0.00000E+00  9.000E+00
      21     1     1     2   502   511  5.316652098E+01  3.506975547E+01 -1.159136541E+02  1.322593737E+02  1.348699152E-06  0.00000E+00  9.000E+00
#rwgt            1           1   3.7181137370712845E-002           3       21168           0
</event>
<event>
      5   9999  3.19816E-02  1.54660E+02 -1.00000E+00  1.15870E-01
      21    -1     0     0   502   501  0.000000000E+00  0.000000000E+00  5.407778352E+02  5.407778352E+02  0.000000000E+00  0.00000E+00  9.000E+00
       1    -1     0     0   501     0  0.000000000E+00  0.000000000E+00 -3.497878440E+02  3.497878440E+02  0.000000000E+00  0.00000E+00  9.000E+00
      25     1     1     2     0     0 -1.970282214E+02  1.223421281E+02  2.967486524E+02  3.968280220E+02  1.250000000E+02  0.00000E+00  9.000E+00
      25     1     1     2     0     0  1.996047369E+02  3.229591011E+01  8.110464071E+01  2.511733257E+02  1.250000000E+02  0.00000E+00  9.000E+00
       1     1     1     2   502     0 -2.576515511E+00 -1.546380382E+02 -1.868633020E+02  2.425643315E+02  3.814697266E-06  0.00000E+00  9.000E+00
#rwgt            2          12   2.6549513937597970E-004           3       21310           0
</event>
<event>
      5   9999  3.19816E-02  1.28351E+01 -1.00000E+00  1.84008E-01
      21    -1     0     0   502   501  0.000000000E+00  0.000000000E+00  2.445866950E+01  2.445866950E+01  0.000000000E+00  0.00000E+00  9.000E+00
      21    -1     0     0   501   511  0.000000000E+00  0.000000000E+00 -1.992449744E+03  1.992449744E+03  0.000000000E+00  0.00000E+00  9.000E+00
      25     1     1     2     0     0  5.220700429E+01  8.009313338E+01 -1.595924313E+03  1.603664520E+03  1.250000000E+02  0.00000E+00  9.000E+00
      25     1     1     2     0     0 -6.490646227E+01 -7.823224206E+01 -3.047890996E+02  3.447528503E+02  1.250000000E+02  0.00000E+00  9.000E+00
      21     1     1     2   502   511  1.269945798E+01 -1.860891320E+00 -6.727766183E+01  6.849104271E+01  9.536743164E-07  0.00000E+00  9.000E+00
#rwgt            1           1   8.7415228531611128E-002           3       21329           0
</event>
<event>
      5   9999  3.19816E-02  1.79666E+02 -1.00000E+00  1.13370E-01
      21    -1     0     0   502   501  0.000000000E+00  0.000000000E+00  1.554353690E+02  1.554353690E+02  0.000000000E+00  0.00000E+00  9.000E+00
      21    -1     0     0   512   502  0.000000000E+00  0.000000000E+00 -2.416826323E+03  2.416826323E+03  0.000000000E+00  0.00000E+00  9.000E+00
      25     1     1     2     0     0 -1.356707726E+02  4.641010502E+02 -7.747719413E+02  9.217878847E+02  1.250000000E+02  0.00000E+00  9.000E+00
      25     1     1     2     0     0  2.694445977E+01 -3.210680428E+02 -3.229073436E+02  4.729744650E+02  1.250000000E+02  0.00000E+00  9.000E+00
      21     1     1     2   512   501  1.087263128E+02 -1.430330074E+02 -1.163711669E+03  1.177499342E+03  2.157918644E-05  0.00000E+00  9.000E+00
#rwgt            2          11   1.0380032283038882E-003           3       21533           0
</event>
<event>
      5   9999  3.19816E-02  2.49248E+01 -1.00000E+00  1.58849E-01
      21    -1     0     0   511   501  0.000000000E+00  0.000000000E+00  9.627058870E+02  9.627058870E+02  0.000000000E+00  0.00000E+00  9.000E+00
      21    -1     0     0   501   502  0.000000000E+00  0.000000000E+00 -8.933946374E+01  8.933946374E+01  0.000000000E+00  0.00000E+00  9.000E+00
      25     1     1     2     0     0 -1.357496650E+02 -1.037269257E+02  8.819555542E+01  2.293266288E+02  1.250000000E+02  0.00000E+00  9.000E+00
      25     1     1     2     0     0  1.570317067E+02  9.075300219E+01  7.201436287E+02  7.530782896E+02  1.250000000E+02  0.00000E+00  9.000E+00
      21     1     1     2   511   502 -2.128204169E+01  1.297392354E+01  6.502723919E+01  6.964043242E+01  9.536743164E-07  0.00000E+00  9.000E+00
#rwgt            1           1   2.9175501290592896E-002           3       21553           0
</event>
<event>
      5   9999  3.19816E-02  1.59384E+01 -1.00000E+00  1.74936E-01
      21    -1     0     0   502   512  0.000000000E+00  0.000000000E+00  1.567910429E+02  1.567910429E+02  0.000000000E+00  0.00000E+00  9.000E+00
      21    -1     0     0   501   502  0.000000000E+00  0.000000000E+00 -1.055607509E+03  1.055607509E+03  0.000000000E+00  0.00000E+00  9.000E+00
      25     1     1     2     0     0 -4.263233951E+01 -2.414800613E+02 -8.610136621E+02  9.039356518E+02  1.250000000E+02  0.00000E+00  9.000E+00
      25     1     1     2     0     0  4.369111489E+01  2.573832672E+02 -4.059836525E+01  2.922811780E+02  1.250000000E+02  0.00000E+00  9.000E+00
      21     1     1     2   501   512 -1.058775378E+00 -1.590320586E+01  2.795561384E+00  1.618172195E+01  1.659323085E-07  0.00000E+00  9.000E+00
#rwgt            1           1   2.9922549915474765E-002           3       21703           0
</event>
<event>
      5   9999  3.19816E-02  3.00650E+01 -1.00000E+00  1.52975E-01
      21    -1     0     0   511   501  0.000000000E+00  0.000000000E+00  2.909466362E+03  2.909466362E+03  0.000000000E+00  0.00000E+00  9.000E+00
      21    -1     0     0   501   502  0.000000000E+00  0.000000000E+00 -6.657303523E+01  6.657303523E+01  0.000000000E+00  0.00000E+00  9.000E+00
      25     1     1     2     0     0  2.155194562E+02  3.028833208E+02  1.360402606E+03  1.415806198E+03  1.250000000E+02  0.00000E+00  9.000E+00
      25     1     1     2     0     0 -2.451395059E+02 -2.977302527E+02  1.032541997E+03  1.109281144E+03  1.250000000E+02  0.00000E+00  9.000E+00
      21     1     1     2   511   502  2.962004971E+01 -5.153068088E+00  4.499487243E+02  4.509520550E+02  0.000000000E+00  0.00000E+00  9.000E+00
#rwgt            1           1   6.5456694929564727E-002           3       21891           0
</event>
<event>
      5   9999  3.19816E-02  4.59837E+01 -1.00000E+00  1.41183E-01
      21    -1     0     0   512   501  0.000000000E+00  0.000000000E+00  5.497656661E+02  5.497656661E+02  0.000000000E+00  0.00000E+00  9.000E+00
      21    -1     0     0   501   502  0.000000000E+00  0.000000000E+00 -5.428273665E+02  5.428273665E+02  0.000000000E+00  0.00000E+00  9.000E+00
      25     1     1     2     0     0  4.359034232E+01 -2.954942566E+02 -4.242425801E+02  5.336888048E+02  1.250000000E+02  0.00000E+00  9.000E+00
      25     1     1     2     0     0 -6.694128716E+01  2.558807088E+02  4.195512792E+02  5.114727255E+02  1.250000000E+02  0.00000E+00  9.000E+00
      21     1     1     2   512   502  2.335094484E+01  3.961354780E+01  1.162960049E+01  4.743150221E+01  1.685873940E-07  0.00000E+00  9.000E+00
#rwgt            1           1   2.3937225377974061E-002           3       22016           0
</event>
<event>
      5   9999  3.19816E-02  3.07284E+02 -1.00000E+00  1.05255E-01
      21    -1     0     0   511   501  0.000000000E+00  0.000000000E+00  2.247532062E+02  2.247532062E+02  0.000000000E+00  0.00000E+00  9.000E+00
      21    -1     0     0   501   502  0.000000000E+00  0.000000000E+00 -1.054647681E+03  1.054647681E+03  0.000000000E+00  0.00000E+00  9.000E+00
      25     1     1     2     0     0 -1.700333018E+02  1.067956958E+02  1.911219204E+01  2.372907926E+02  1.250000000E+02  0.00000E+00  9.000E+00
      25     1     1     2     0     0 -8.934386248E+01  5.796840077E+01 -6.627317373E+02  6.827744993E+02  1.250000000E+02  0.00000E+00  9.000E+00
      21     1     1     2   511   502  2.593771643E+02 -1.647640965E+02 -1.862749299E+02  3.593355958E+02  8.529922400E-06  0.00000E+00  9.000E+00
#rwgt            1           1   2.3188156972079411E-002           3       22174           0
</event>
<event>
      5   9999  3.19816E-02  5.96251E+01 -1.00000E+00  1.34849E-01
      21    -1     0     0   502   501  0.000000000E+00  0.000000000E+00  1.026686251E+03  1.026686251E+03  0.000000000E+00  0.00000E+00  9.000E+00
      21    -1     0     0   501   512  0.000000000E+00  0.000000000E+00 -5.491388403E+02  5.491388403E+02  0.000000000E+00  0.00000E+00  9.000E+00
      25     1     1     2     0     0  1.598768094E+02 -2.345047802E+02  5.528977849E+02  6.339353648E+02  1.250000000E+02  0.00000E+00  9.000E+00
      25     1     1     2     0     0 -1.063624388E+02  2.082108719E+02  3.906337522E+02  4.721064116E+02  1.250000000E+02  0.00000E+00  9.000E+00
      21     1     1     2   502   512 -5.351437063E+01  2.629390832E+01 -4.659841261E+02  4.697833152E+02  1.078959322E-05  0.00000E+00  9.000E+00
#rwgt            1           1   3.1261443429529315E-002           3       22210           0
</event>
<event>
      5   9999  3.19816E-02  1.09113E+01 -1.00000E+00  1.91478E-01
      21    -1     0     0   502   501  0.000000000E+00  0.000000000E+00  5.528932546E+02  5.528932546E+02  0.000000000E+00  0.00000E+00  9.000E+00
      21    -1     0     0   501   511  0.000000000E+00  0.000000000E+00 -1.236701529E+03  1.236701529E+03  0.000000000E+00  0.00000E+00  9.000E+00
      25     1     1     2     0     0  6.535010499E+01 -1.868385705E+02 -1.137153213E+03  1.161000309E+03  1.250000000E+02  0.00000E+00  9.000E+00
      25     1     1     2     0     0 -5.603378131E+01  1.925185139E+02  5.146650731E+02  5.663111339E+02  1.250000000E+02  0.00000E+00  9.000E+00
      21     1     1     2   502   511 -9.316323687E+00 -5.679943404E+00 -6.132013406E+01  6.228334035E+01  9.536743164E-07  0.00000E+00  9.000E+00
#rwgt            1           1   3.4846368580514424E-002           3       22327           0
</event>
<event>
      5   9999  3.19816E-02  2.42238E+02 -1.00000E+00  1.08700E-01
      21    -1     0     0   512   501  0.000000000E+00  0.000000000E+00  8.714152469E+01  8.714152469E+01  0.000000000E+00  0.00000E+00  9.000E+00
      21    -1     0     0   501   502  0.000000000E+00  0.000000000E+00 -1.888412106E+03  1.888412106E+03  0.000000000E+00  0.00000E+00  9.000E+00
      25     1     1     2     0     0 -1.785896825E+02  1.024938445E+02 -3.582555028E+02  4.317073872E+02  1.250000000E+02  0.00000E+00  9.000E+00
      25     1     1     2     0     0 -3.268511362E+01 -2.209929977E+02 -1.061452217E+03  1.091884624E+03  1.250000000E+02  0.00000E+00  9.000E+00
      21     1     1     2   512   502  2.112747961E+02  1.184991531E+02 -3.815628610E+02  4.519616197E+02  7.629394531E-06  0.00000E+00  9.000E+00
#rwgt            1           1   2.7754807164716355E-002           3       22653           0
</event>
<event>
      5   9999  3.19816E-02  1.15246E+02 -1.00000E+00  1.21118E-01
       2    -1     0     0   502     0  0.000000000E+00  0.000000000E+00  1.353098608E+03  1.353098608E+03  0.000000000E+00  0.00000E+00  9.000E+00
      21    -1     0     0   501   502  0.000000000E+00  0.000000000E+00 -2.568449750E+02  2.568449750E+02  0.000000000E+00  0.00000E+00  9.000E+00
      25     1     1     2     0     0  3.142675350E+02  1.637988935E+02  4.175958581E+02  5.617877373E+02  1.250000000E+02  0.00000E+00  9.000E+00
      25     1     1     2     0     0 -2.249939292E+02 -2.366807417E+02 -1.011274876E+01  3.498103906E+02  1.250000000E+02  0.00000E+00  9.000E+00
       2     1     1     2   501     0 -8.927360572E+01  7.288184823E+01  6.887705235E+02  6.983454550E+02  7.629394531E-06  0.00000E+00  9.000E+00
#rwgt            1           1   2.5443618186203106E-002           3       22691           0
</event>
<event>
      5   9999  3.19816E-02  6.57010E+01 -1.00000E+00  1.32630E-01
      21    -1     0     0   511   501  0.000000000E+00  0.000000000E+00  1.106831484E+03  1.106831484E+03  0.000000000E+00  0.00000E+00  9.000E+00
      21    -1     0     0   501   502  0.000000000E+00  0.000000000E+00 -5.385662495E+02  5.385662495E+02  0.000000000E+00  0.00000E+00  9.000E+00
      25     1     1     2     0     0 -8.365010005E+01  3.083996960E+02 -2.053437298E+02  3.998734288E+02  1.250000000E+02  0.00000E+00  9.000E+00
      25     1     1     2     0     0  2.086964394E+01 -3.277706620E+02 -1.031999714E+02  3.662572634E+02  1.250000000E+02  0.00000E+00  9.000E+00
      21     1     1     2   511   502  6.278045611E+01  1.937096605E+01  8.768089357E+02  8.792670412E+02  1.078959322E-05  0.00000E+00  9.000E+00
#rwgt            1           1   3.4172466116152128E-002           3       22770           0
</event>
<event>
      5   9999  3.20814E-02  9.41561E+01 -1.00000E+00  1.25016E-01
      21    -1     0     0   512   501  0.000000000E+00  0.000000000E+00  3.551582503E+02  3.551582503E+02  0.000000000E+00  0.00000E+00  9.000E+00
      21    -1     0     0   501   502  0.000000000E+00  0.000000000E+00 -1.069392571E+03  1.069392571E+03  0.000000000E+00  0.00000E+00  9.000E+00
      25     1     1     2     0     0  2.751229047E+02 -4.348049940E+02 -5.971560940E+02  7.981029985E+02  1.250000000E+02  0.00000E+00  9.000E+00
      25     1     1     2     0     0 -1.809714105E+02  4.338689174E+02 -1.737717187E+02  5.165408979E+02  1.250000000E+02  0.00000E+00  9.000E+00
      21     1     1     2   512   502 -9.415149417E+01  9.360765871E-01  5.669349218E+01  1.099069249E+02  2.431401974E-06  0.00000E+00  9.000E+00
#rwgt            1           1   3.1120765115260424E-002           3       22848           0
</event>
<event>
      5   9999  3.19816E-02  3.25934E+01 -1.00000E+00  1.50580E-01
      21    -1     0     0   502   501  0.000000000E+00  0.000000000E+00  9.396937514E+02  9.396937514E+02  0.000000000E+00  0.00000E+00  9.000E+00
      21    -1     0     0   501   511  0.000000000E+00  0.000000000E+00 -6.385321335E+01  6.385321335E+01  0.000000000E+00  0.00000E+00  9.000E+00
      25     1     1     2     0     0 -1.306686346E+02 -8.630893466E+01  4.142427627E+02  4.601582236E+02  1.250000000E+02  0.00000E+00  9.000E+00
      25     1     1     2     0     0  1.426841565E+02  1.166067761E+02  4.596423271E+02  5.107367009E+02  1.250000000E+02  0.00000E+00  9.000E+00
      21     1     1     2   502   511 -1.201552195E+01 -3.029784139E+01  1.955448269E+00  3.265204034E+01  5.964188604E-07  0.00000E+00  9.000E+00
#rwgt            1           1   2.6691941975923325E-002           3       22999           0
</event>
<event>
      5   9999  3.19816E-02  1.36760E+02 -1.00000E+00  1.18007E-01
      21    -1     0     0   502   501  0.000000000E+00  0.000000000E+00  3.356342255E+02  3.356342255E+02  0.000000000E+00  0.00000E+00  9.000E+00
      21    -1     0     0   512   502  0.000000000E+00  0.000000000E+00 -4.211948475E+02  4.211948475E+02  0.000000000E+00  0.00000E+00  9.000E+00
      25     1     1     2     0     0  9.809388827E+01  1.086107517E+01  2.081029788E+02  2.620538564E+02  1.250000000E+02  0.00000E+00  9.000E+00
      25     1     1     2     0     0 -1.978182117E+02  8.272497560E+01 -1.258048400E+02  2.782576580E+02  1.250000000E+02  0.00000E+00  9.000E+00
      21     1     1     2   512   501  9.972432345E+01 -9.358605077E+01 -1.678587608E+02  2.165175586E+02  3.303624740E-06  0.00000E+00  9.000E+00
#rwgt            1           1   2.6713862663992553E-002           3       23175           0
</event>
<event>
      5   9999  3.19816E-02  5.50492E+01 -1.00000E+00  1.36733E-01
      21    -1     0     0   511   501  0.000000000E+00  0.000000000E+00  1.437390313E+03  1.437390313E+03  0.000000000E+00  0.00000E+00  9.000E+00
      21    -1     0     0   501   502  0.000000000E+00  0.000000000E+00 -8.983665467E+01  8.983665467E+01  0.000000000E+00  0.00000E+00  9.000E+00
      25     1     1     2     0     0 -1.782919857E+02  1.455222870E+02  9.126054790E+02  9.494411664E+02  1.250000000E+02  0.00000E+00  9.000E+00
      25     1     1     2     0     0  1.233080027E+02 -1.482002432E+02  1.222241737E+02  2.602535768E+02  1.250000000E+02  0.00000E+00  9.000E+00
      21     1     1     2   511   502  5.498398296E+01  2.677956227E+00  3.127240056E+02  3.175322244E+02  0.000000000E+00  0.00000E+00  9.000E+00
#rwgt            1           1   2.7525507456405557E-002           3       23227           0
</event>
<event>
      5   9999  3.19816E-02  9.88031E+01 -1.00000E+00  1.24064E-01
      21    -1     0     0   512   501  0.000000000E+00  0.000000000E+00  3.289059202E+01  3.289059202E+01  0.000000000E+00  0.00000E+00  9.000E+00
      21    -1     0     0   501   502  0.000000000E+00  0.000000000E+00 -2.316422892E+03  2.316422892E+03  0.000000000E+00  0.00000E+00  9.000E+00
      25     1     1     2     0     0  1.314062626E+01  9.503897743E+01 -2.668589866E+02  3.099093448E+02  1.250000000E+02  0.00000E+00  9.000E+00
      25     1     1     2     0     0  8.439106878E+01 -7.923949240E+01 -1.677602638E+03  1.686231408E+03  1.250000000E+02  0.00000E+00  9.000E+00
      21     1     1     2   512   502 -9.753169504E+01 -1.579948503E+01 -3.390706749E+02  3.531727309E+02  5.394796609E-06  0.00000E+00  9.000E+00
#rwgt            1           1   8.4986950165586883E-002           3       23330           0
</event>
<event>
      5   9999  3.19816E-02  1.83054E+01 -1.00000E+00  1.69605E-01
      21    -1     0     0   502   501  0.000000000E+00  0.000000000E+00  1.830856582E+02  1.830856582E+02  0.000000000E+00  0.00000E+00  9.000E+00
      21    -1     0     0   511   502  0.000000000E+00  0.000000000E+00 -2.091935819E+02  2.091935819E+02  0.000000000E+00  0.00000E+00  9.000E+00
      25     1     1     2     0     0  8.826243986E-01 -1.887501409E+01  1.245405331E+02  1.774609523E+02  1.250000000E+02  0.00000E+00  9.000E+00
      25     1     1     2     0     0 -1.713792675E+01  2.729237067E+01 -1.478946628E+02  1.963069365E+02  1.250000000E+02  0.00000E+00  9.000E+00
      21     1     1     2   511   501  1.625530235E+01 -8.417356584E+00 -2.753793943E+00  1.851135131E+01  1.884864366E-07  0.00000E+00  9.000E+00
#rwgt            1           1   2.4167558159762952E-002           3       23389           0
</event>
<event>
      5   9999  3.19816E-02  2.41462E+01 -1.00000E+00  1.59890E-01
      21    -1     0     0   502   501  0.000000000E+00  0.000000000E+00  1.621417604E+02  1.621417604E+02  0.000000000E+00  0.00000E+00  9.000E+00
       1    -1     0     0   501     0  0.000000000E+00  0.000000000E+00 -7.721615017E+02  7.721615017E+02  0.000000000E+00  0.00000E+00  9.000E+00
      25     1     1     2     0     0 -2.664562477E+00  1.518334185E+02  4.637625052E+01  2.020797948E+02  1.250000000E+02  0.00000E+00  9.000E+00
      25     1     1     2     0     0  1.718620539E+01 -1.325419693E+02 -1.850252048E+02  2.602346359E+02  1.250000000E+02  0.00000E+00  9.000E+00
       1     1     1     2   502     0 -1.452164291E+01 -1.929144913E+01 -4.713707870E+02  4.719888314E+02  5.394796609E-06  0.00000E+00  9.000E+00
#rwgt            1           1   2.7695284467585540E-002           3       23517           0
</event>
<event>
      5   9999  3.19816E-02  1.55878E+02 -1.00000E+00  1.15736E-01
      21    -1     0     0   502   501  0.000000000E+00  0.000000000E+00  2.216799951E+02  2.216799951E+02  0.000000000E+00  0.00000E+00  9.000E+00
      21    -1     0     0   501   511  0.000000000E+00  0.000000000E+00 -5.596291311E+02  5.596291311E+02  0.000000000E+00  0.00000E+00  9.000E+00
      25     1     1     2     0     0 -2.059772903E+02 -3.401343419E+01 -2.120385477E+02  3.227520775E+02  1.250000000E+02  0.00000E+00  9.000E+00
      25     1     1     2     0     0  2.056620065E+02 -1.218642920E+02 -2.082858484E+01  2.705671756E+02  1.250000000E+02  0.00000E+00  9.000E+00
      21     1     1     2   502   511  3.152837807E-01  1.558777262E+02 -1.050820034E+02  1.879898731E+02  3.015782986E-06  0.00000E+00  9.000E+00
#rwgt            1           1   2.8513045773488632E-002           3       23608           0
</event>
<event>
      5   9999  3.19816E-02  8.29638E+01 -1.00000E+00  1.27589E-01
      21    -1     0     0   502   501  0.000000000E+00  0.000000000E+00  1.758161830E+02  1.758161830E+02  0.000000000E+00  0.00000E+00  9.000E+00
      -4    -1     0     0     0   502  0.000000000E+00  0.000000000E+00 -1.308657858E+03  1.308657858E+03  0.000000000E+00  0.00000E+00  9.000E+00
      25     1     1     2     0     0 -1.755300202E+01  1.556962556E+02 -1.278299343E+02  2.377286772E+02  1.250000000E+02  0.00000E+00  9.000E+00
      25     1     1     2     0     0  2.022271250E+01 -7.277541485E+01  7.456727751E+01  1.639832247E+02  1.250000000E+02  0.00000E+00  9.000E+00
      -4     1     1     2     0   501 -2.669710487E+00 -8.292084072E+01 -1.079579018E+03  1.082762139E+03  0.000000000E+00  0.00000E+00  9.000E+00
#rwgt            1           1   3.4089183890359157E-002           3       23678           0
</event>
<event>
      5   9999  3.19816E-02  2.95539E+02 -1.00000E+00  1.05804E-01
      21    -1     0     0   502   511  0.000000000E+00  0.000000000E+00  3.261790672E+02  3.261790672E+02  0.000000000E+00  0.00000E+00  9.000E+00
      21    -1     0     0   501   502  0.000000000E+00  0.000000000E+00 -2.546404649E+03  2.546404649E+03  0.000000000E+00  0.00000E+00  9.000E+00
      25     1     1     2     0     0 -2.745479915E+02  4.719594397E+02 -1.769296471E+03  1.855844098E+03  1.250000000E+02  0.00000E+00  9.000E+00
      25     1     1     2     0     0 -1.016723782E+00 -5.787638971E+02 -4.056887761E+02  7.177583614E+02  1.250000000E+02  0.00000E+00  9.000E+00
      21     1     1     2   501   511  2.755647153E+02  1.068044574E+02 -4.524033516E+01  2.989812575E+02  6.050385256E-06  0.00000E+00  9.000E+00
#rwgt            1           1   3.3777988959893555E-002           3       23725           0
</event>
<event>
      5   9999  3.19816E-02  3.95047E+01 -1.00000E+00  1.45177E-01
      21    -1     0     0   502   501  0.000000000E+00  0.000000000E+00  1.492744669E+03  1.492744669E+03  0.000000000E+00  0.00000E+00  9.000E+00
      21    -1     0     0   501   512  0.000000000E+00  0.000000000E+00 -2.233215068E+03  2.233215068E+03  0.000000000E+00  0.00000E+00  9.000E+00
      25     1     1     2     0     0  1.643118918E+02  6.643272409E+02 -1.318191419E+03  1.490497467E+03  1.250000000E+02  0.00000E+00  9.000E+00
      25     1     1     2     0     0 -1.476565699E+02 -6.285051964E+02  1.329183789E+03  1.482961830E+03  1.250000000E+02  0.00000E+00  9.000E+00
      21     1     1     2   502   512 -1.665532190E+01 -3.582204451E+01 -7.514627689E+02  7.525004397E+02  1.078959322E-05  0.00000E+00  9.000E+00
#rwgt            2          11   5.5183831437249278E-003           3       23793           0
</event>
<event>
      5   9999  3.19816E-02  1.70478E+02 -1.00000E+00  1.14233E-01
      21    -1     0     0   511   501  0.000000000E+00  0.000000000E+00  2.039908538E+02  2.039908538E+02  0.000000000E+00  0.00000E+00  9.000E+00
      21    -1     0     0   501   502  0.000000000E+00  0.000000000E+00 -1.320850539E+03  1.320850539E+03  0.000000000E+00  0.00000E+00  9.000E+00
      25     1     1     2     0     0 -1.139852991E+02 -3.800575297E+02 -9.874764559E+02  1.071527473E+03  1.250000000E+02  0.00000E+00  9.000E+00
      25     1     1     2     0     0  6.279290265E+01  2.174476263E+02 -1.126037458E+02  2.820124508E+02  1.250000000E+02  0.00000E+00  9.000E+00
      21     1     1     2   511   502  5.119239645E+01  1.626099034E+02 -1.677948308E+01  1.713014687E+02  3.180900589E-06  0.00000E+00  9.000E+00
#rwgt            1           1   2.2993144118562750E-002           3       23873           0
</event>
<event>
      5   9999  3.19816E-02  4.59883E+01 -1.00000E+00  1.41180E-01
      21    -1     0     0   512   501  0.000000000E+00  0.000000000E+00  1.585523931E+02  1.585523931E+02  0.000000000E+00  0.00000E+00  9.000E+00
      21    -1     0     0   501   502  0.000000000E+00  0.000000000E+00 -1.037943990E+03  1.037943990E+03  0.000000000E+00  0.00000E+00  9.000E+00
      25     1     1     2     0     0 -2.909808667E+02 -9.053724073E+01 -7.707373651E+02  8.381693998E+02  1.250000000E+02  0.00000E+00  9.000E+00
      25     1     1     2     0     0  2.582937066E+02  5.818801786E+01 -7.781231864E+01  3.029541900E+02  1.250000000E+02  0.00000E+00  9.000E+00
      21     1     1     2   512   502  3.268716007E+01  3.234922287E+01 -3.084191363E+01  5.537279377E+01  5.840038640E-07  0.00000E+00  9.000E+00
#rwgt            1           1   2.8086081855454335E-002           3       23942           0
</event>
<event>
      5   9999  3.19816E-02  4.28117E+01 -1.00000E+00  1.43034E-01
      21    -1     0     0   502   511  0.000000000E+00  0.000000000E+00  8.159562607E+02  8.159562607E+02  0.000000000E+00  0.00000E+00  9.000E+00
      21    -1     0     0   501   502  0.000000000E+00  0.000000000E+00 -1.859972546E+03  1.859972546E+03  0.000000000E+00  0.00000E+00  9.000E+00
      25     1     1     2     0     0  8.091410002E+02 -1.936498191E+02 -1.424072825E+03  1.654030780E+03  1.250000000E+02  0.00000E+00  9.000E+00
      25     1     1     2     0     0 -7.764852304E+02  2.213345458E+02  2.059297774E+02  8.425855253E+02  1.250000000E+02  0.00000E+00  9.000E+00
      21     1     1     2   501   511 -3.265576977E+01 -2.768472668E+01  1.741267629E+02  1.793125008E+02  3.814697266E-06  0.00000E+00  9.000E+00
#rwgt            1           1   2.7655670501345951E-002           3       24071           0
</event>
<event>
      5   9999  3.19816E-02  1.58109E+01 -1.00000E+00  1.75256E-01
      21    -1     0     0   502   501  0.000000000E+00  0.000000000E+00  1.337487380E+02  1.337487380E+02  0.000000000E+00  0.00000E+00  9.000E+00
      21    -1     0     0   512   502  0.000000000E+00  0.000000000E+00 -1.504750025E+03  1.504750025E+03  0.000000000E+00  0.00000E+00  9.000E+00
      25     1     1     2     0     0 -3.434822106E+01  1.028617143E+02 -1.438611505E+01  1.661092799E+02  1.250000000E+02  0.00000E+00  9.000E+00
      25     1     1     2     0     0  4.335707188E+01 -1.158550018E+02 -7.584115544E+01  1.915178790E+02  1.250000000E+02  0.00000E+00  9.000E+00
      21     1     1     2   512   501 -9.008850823E+00  1.299328753E+01 -1.280774017E+03  1.280871604E+03  2.157918644E-05  0.00000E+00  9.000E+00
#rwgt            1           1   2.7156505371772922E-002           3       24250           0
</event>
<event>
      5   9999  3.19816E-02  2.47773E+01 -1.00000E+00  1.59043E-01
      21    -1     0     0   511   501  0.000000000E+00  0.000000000E+00  6.494749539E+01  6.494749539E+01  0.000000000E+00  0.00000E+00  9.000E+00
      21    -1     0     0   501   502  0.000000000E+00  0.000000000E+00 -1.351542222E+03  1.351542222E+03  0.000000000E+00  0.00000E+00  9.000E+00
      25     1     1     2     0     0  1.531388043E+02  1.586590512E+02 -8.927346658E+02  9.280217516E+02  1.250000000E+02  0.00000E+00  9.000E+00
      25     1     1     2     0     0 -1.427557893E+02 -1.811558821E+02 -3.423299440E+02  4.312904585E+02  1.250000000E+02  0.00000E+00  9.000E+00
      21     1     1     2   511   502 -1.038301507E+01  2.249683096E+01 -5.153011657E+01  5.717750711E+01  6.743495762E-07  0.00000E+00  9.000E+00
#rwgt            1           1   2.7058412509922341E-002           3       24381           0
</event>
<event>
      5   9999  3.19816E-02  2.79313E+02 -1.00000E+00  1.06610E-01
       2    -1     0     0   502     0  0.000000000E+00  0.000000000E+00  1.570662687E+03  1.570662687E+03  0.000000000E+00  0.00000E+00  9.000E+00
      21    -1     0     0   501   502  0.000000000E+00  0.000000000E+00 -3.759123990E+02  3.759123990E+02  0.000000000E+00  0.00000E+00  9.000E+00
      25     1     1     2     0     0 -1.077861823E+02 -5.272423781E+02  2.640983747E+02  6.123522989E+02  1.250000000E+02  0.00000E+00  9.000E+00
      25     1     1     2     0     0  2.435070310E+01  2.606823320E+02 -6.737582977E+01  2.978468354E+02  1.250000000E+02  0.00000E+00  9.000E+00
       2     1     1     2   501     0  8.343547916E+01  2.665600462E+02  9.980277436E+02  1.036375952E+03  1.525878906E-05  0.00000E+00  9.000E+00
#rwgt            1           1   2.8984333071555034E-002           3       24554           0
</event>
<event>
      5   9999  3.19816E-02  7.82160E+01 -1.00000E+00  1.28825E-01
      21    -1     0     0   502   511  0.000000000E+00  0.000000000E+00  2.803795830E+02  2.803795830E+02  0.000000000E+00  0.00000E+00  9.000E+00
      21    -1     0     0   501   502  0.000000000E+00  0.000000000E+00 -4.337186863E+02  4.337186863E+02  0.000000000E+00  0.00000E+00  9.000E+00
      25     1     1     2     0     0  2.025630236E+02 -3.633609355E+01 -7.072843999E+01  2.509573717E+02  1.250000000E+02  0.00000E+00  9.000E+00
      25     1     1     2     0     0 -2.787297272E+02  5.412320287E+01 -1.634493692E+02  3.506569238E+02  1.250000000E+02  0.00000E+00  9.000E+00
      21     1     1     2   501   511  7.616670359E+01 -1.778710933E+01  8.083870588E+01  1.124839738E+02  1.907348633E-06  0.00000E+00  9.000E+00
#rwgt            1           1   2.6853759021941932E-002           3       24591           0
</event>
<event>
      5   9999  3.19816E-02  4.47037E+01 -1.00000E+00  1.41908E-01
      21    -1     0     0   502   501  0.000000000E+00  0.000000000E+00  1.667708270E+02  1.667708270E+02  0.000000000E+00  0.00000E+00  9.000E+00
       2    -1     0     0   501     0  0.000000000E+00  0.000000000E+00 -1.239283466E+03  1.239283466E+03  0.000000000E+00  0.00000E+00  9.000E+00
      25     1     1     2     0     0 -2.600561519E+02  1.363676489E+02 -1.300443475E+02  3.446184413E+02  1.250000000E+02  0.00000E+00  9.000E+00
      25     1     1     2     0     0  2.161142902E+02 -1.281497865E+02 -2.764723040E+02  3.939412255E+02  1.250000000E+02  0.00000E+00  9.000E+00
       2     1     1     2   502     0  4.394186168E+01 -8.217862320E+00 -6.659959877E+02  6.674946263E+02  0.000000000E+00  0.00000E+00  9.000E+00
#rwgt            1           1   2.9178534296693485E-002           3       24699           0
</event>
<event>
      5   9999  3.19816E-02  1.40743E+02 -1.00000E+00  1.17501E-01
      21    -1     0     0   511   501  0.000000000E+00  0.000000000E+00  1.692554559E+02  1.692554559E+02  0.000000000E+00  0.00000E+00  9.000E+00
      21    -1     0     0   501   502  0.000000000E+00  0.000000000E+00 -6.245343856E+02  6.245343856E+02  0.000000000E+00  0.00000E+00  9.000E+00
      25     1     1     2     0     0 -6.993473720E+01 -1.065876246E+02 -8.142397578E+01  1.962311215E+02  1.250000000E+02  0.00000E+00  9.000E+00
      25     1     1     2     0     0 -7.046445623E+01  1.164243823E+02 -4.121679262E+02  4.516937854E+02  1.250000000E+02  0.00000E+00  9.000E+00
      21     1     1     2   511   502  1.403991934E+02 -9.836757637E+00  3.831297221E+01  1.458649346E+02  2.023048729E-06  0.00000E+00  9.000E+00
#rwgt            1           1   2.6380470426970257E-002           3       24809           0
</event>
<event>
      5   9999  3.19816E-02  8.07567E+01 -1.00000E+00  1.28152E-01
      21    -1     0     0   502   501  0.000000000E+00  0.000000000E+00  2.217578533E+03  2.217578533E+03  0.000000000E+00  0.00000E+00  9.000E+00
      21    -1     0     0   512   502  0.000000000E+00  0.000000000E+00 -3.354834962E+02  3.354834962E+02  0.000000000E+00  0.00000E+00  9.000E+00
      25     1     1     2     0     0 -2.272961026E+02  2.084053663E+02  1.990370800E+03  2.017993369E+03  1.250000000E+02  0.00000E+00  9.000E+00
      25     1     1     2     0     0  2.021908402E+02 -1.316501018E+02  1.169296905E+02  2.958216315E+02  1.250000000E+02  0.00000E+00  9.000E+00
      21     1     1     2   512   501  2.510526240E+01 -7.675526448E+01 -2.252054533E+02  2.392470293E+02  4.672030912E-06  0.00000E+00  9.000E+00
#rwgt            1           1   2.3252322011644722E-002           3       24881           0
</event>
<event>
      5   9999  3.19816E-02  8.13281E+01 -1.00000E+00  1.28004E-01
      21    -1     0     0   502   501  0.000000000E+00  0.000000000E+00  3.466180291E+03  3.466180291E+03  0.000000000E+00  0.00000E+00  9.000E+00
      21    -1     0     0   511   502  0.000000000E+00  0.000000000E+00 -1.910277497E+02  1.910277497E+02  0.000000000E+00  0.00000E+00  9.000E+00
      25     1     1     2     0     0  2.612669552E+02 -7.366925652E+01 -2.977271884E+01  3.003314769E+02  1.250000000E+02  0.00000E+00  9.000E+00
      25     1     1     2     0     0 -1.812010099E+02  8.794153201E+01  3.250239850E+03  3.258872750E+03  1.250000000E+02  0.00000E+00  9.000E+00
      21     1     1     2   511   501 -8.006594529E+01 -1.427227549E+01  5.468541058E+01  9.800381407E+01  1.168007728E-06  0.00000E+00  9.000E+00
#rwgt            1           1   4.4160213772958867E-002           3       24985           0
</event>
<event>
      5   9999  3.19816E-02  6.59024E+01 -1.00000E+00  1.32561E-01
      21    -1     0     0   502   501  0.000000000E+00  0.000000000E+00  3.235249414E+02  3.235249414E+02  0.000000000E+00  0.00000E+00  9.000E+00
      21    -1     0     0   512   502  0.000000000E+00  0.000000000E+00 -7.278450831E+02  7.278450831E+02  0.000000000E+00  0.00000E+00  9.000E+00
      25     1     1     2     0     0 -2.443269166E+02  3.121174559E+02  1.902257440E+01  4.160526491E+02  1.250000000E+02  0.00000E+00  9.000E+00
      25     1     1     2     0     0  1.850838582E+02 -3.409858758E+02 -3.706568334E+02  5.509436362E+02  1.250000000E+02  0.00000E+00  9.000E+00
      21     1     1     2   512   501  5.924305849E+01  2.886841995E+01 -5.268588265E+01  8.437373928E+01  1.348699152E-06  0.00000E+00  9.000E+00
#rwgt            1           1   2.7746649029042936E-002           3       25089           0
</event>
<event>
      5   9999  3.19816E-02  7.65292E+01 -1.00000E+00  1.29289E-01
      21    -1     0     0   502   501  0.000000000E+00  0.000000000E+00  3.002659176E+02  3.002659176E+02  0.000000000E+00  0.00000E+00  9.000E+00
      21    -1     0     0   501   511  0.000000000E+00  0.000000000E+00 -2.340416707E+02  2.340416707E+02  0.000000000E+00  0.00000E+00  9.000E+00
      25     1     1     2     0     0 -2.205132410E+01 -1.232473367E+02 -5.324673719E+01  1.847603364E+02  1.250000000E+02  0.00000E+00  9.000E+00
      25     1     1     2     0     0 -1.288995524E+01  1.913342445E+02  1.424844881E+02  2.696326638E+02  1.250000000E+02  0.00000E+00  9.000E+00
      21     1     1     2   502   511  3.494127934E+01 -6.808690783E+01 -2.301350397E+01  7.991458806E+01  8.259061849E-07  0.00000E+00  9.000E+00
#rwgt            1           1   2.6582736397447172E-002           3       25210           0
</event>
<event>
      5   9999  3.19816E-02  1.70759E+01 -1.00000E+00  1.72240E-01
      21    -1     0     0   512   501  0.000000000E+00  0.000000000E+00  9.216275070E+02  9.216275070E+02  0.000000000E+00  0.00000E+00  9.000E+00
      21    -1     0     0   501   502  0.000000000E+00  0.000000000E+00 -5.403392196E+02  5.403392196E+02  0.000000000E+00  0.00000E+00  9.000E+00
      25     1     1     2     0     0  3.032544039E+02 -5.539957278E+02  2.682488866E+02  6.974646694E+02  1.250000000E+02  0.00000E+00  9.000E+00
      25     1     1     2     0     0 -2.870922267E+02  5.484849435E+02 -1.851610594E+01  6.318429600E+02  1.250000000E+02  0.00000E+00  9.000E+00
      21     1     1     2   512   502 -1.616217718E+01  5.510784340E+00  1.315555067E+02  1.326590972E+02  1.907348633E-06  0.00000E+00  9.000E+00
#rwgt            1           1   3.5556157388264342E-002           3       25327           0
</event>
<event>
      5   9999  3.19816E-02  9.88176E+01 -1.00000E+00  1.24061E-01
      21    -1     0     0   502   511  0.000000000E+00  0.000000000E+00  2.962117362E+02  2.962117362E+02  0.000000000E+00  0.00000E+00  9.000E+00
      21    -1     0     0   501   502  0.000000000E+00  0.000000000E+00 -2.542093812E+02  2.542093812E+02  0.000000000E+00  0.00000E+00  9.000E+00
      25     1     1     2     0     0  3.316194954E+01  1.888814973E+02 -5.566005126E+01  2.355822069E+02  1.250000000E+02  0.00000E+00  9.000E+00
      25     1     1     2     0     0 -9.825226765E+01 -1.145297857E+02  3.859276882E+01  1.997122473E+02  1.250000000E+02  0.00000E+00  9.000E+00
      21     1     1     2   501   511  6.509031811E+01 -7.435171160E+01  5.906963742E+01  1.151266633E+02  1.507891493E-06  0.00000E+00  9.000E+00
#rwgt            1           1   2.5171617486973601E-002           3       25541           0
</event>
<event>
      5   9999  3.19816E-02  1.62172E+02 -1.00000E+00  1.15066E-01
      21    -1     0     0   502   501  0.000000000E+00  0.000000000E+00  1.210970745E+03  1.210970745E+03  0.000000000E+00  0.00000E+00  9.000E+00
      21    -1     0     0   501   512  0.000000000E+00  0.000000000E+00 -1.442931957E+03  1.442931957E+03  0.000000000E+00  0.00000E+00  9.000E+00
      25     1     1     2     0     0  6.399783966E+02 -3.008228263E+02 -1.917736144E+02  7.432824767E+02  1.250000000E+02  0.00000E+00  9.000E+00
      25     1     1     2     0     0 -7.423984989E+02  1.750849869E+02  7.660460619E+02  1.088237958E+03  1.250000000E+02  0.00000E+00  9.000E+00
      21     1     1     2   502   512  1.024201023E+02  1.257378394E+02 -8.062336589E+02  8.223822678E+02  0.000000000E+00  0.00000E+00  9.000E+00
#rwgt            1           1   2.3793585672835547E-002           3       25598           0
</event>
<event>
      5   9999  3.19816E-02  1.53975E+02 -1.00000E+00  1.15945E-01
      21    -1     0     0   502   501  0.000000000E+00  0.000000000E+00  7.191429270E+02  7.191429270E+02  0.000000000E+00  0.00000E+00  9.000E+00
      21    -1     0     0   501   511  0.000000000E+00  0.000000000E+00 -1.225568841E+03  1.225568841E+03  0.000000000E+00  0.00000E+00  9.000E+00
      25     1     1     2     0     0 -4.559401192E+02  4.079462392E+02  3.768767283E+02  7.293576590E+02  1.250000000E+02  0.00000E+00  9.000E+00
      25     1     1     2     0     0  3.643498138E+02 -5.317180389E+02 -8.158841463E+02  1.047266346E+03  1.250000000E+02  0.00000E+00  9.000E+00
      21     1     1     2   502   511  9.159030545E+01  1.237717997E+02 -6.741849616E+01  1.680877630E+02  9.536743164E-07  0.00000E+00  9.000E+00
#rwgt            2          11   7.6701427077450444E-003           3       25800           0
</event>
<event>
      5   9999  3.19816E-02  4.92796E+02 -1.00000E+00  9.90314E-02
      21    -1     0     0   502   501  0.000000000E+00  0.000000000E+00  2.529766120E+02  2.529766120E+02  0.000000000E+00  0.00000E+00  9.000E+00
      21    -1     0     0   512   502  0.000000000E+00  0.000000000E+00 -2.795015249E+03  2.795015249E+03  0.000000000E+00  0.00000E+00  9.000E+00
      25     1     1     2     0     0 -2.418122178E+02  9.716959330E+00  9.614627023E+01  2.888540691E+02  1.250000000E+02  0.00000E+00  9.000E+00
      25     1     1     2     0     0 -2.482639189E+02  4.198227809E+01 -6.055332966E+02  6.676024704E+02  1.250000000E+02  0.00000E+00  9.000E+00
      21     1     1     2   512   501  4.900761367E+02 -5.169923742E+01 -2.032651611E+03  2.091535322E+03  3.051757812E-05  0.00000E+00  9.000E+00
#rwgt            1           1   2.7903724427453567E-002           3       25835           0
</event>
<event>
      5   9999  3.19816E-02  1.48546E+01 -1.00000E+00  1.77783E-01
      21    -1     0     0   502   501  0.000000000E+00  0.000000000E+00  5.513697500E+02  5.513697500E+02  0.000000000E+00  0.00000E+00  9.000E+00
      21    -1     0     0   501   511  0.000000000E+00  0.000000000E+00 -9.548047556E+02  9.548047556E+02  0.000000000E+00  0.00000E+00  9.000E+00
      25     1     1     2     0     0  6.448551708E+01  3.588566749E+01  4.336364059E+02  4.572873228E+02  1.250000000E+02  0.00000E+00  9.000E+00
      25     1     1     2     0     0 -7.354635542E+01 -4.765681441E+01  5.080047705E+01  1.608910402E+02  1.250000000E+02  0.00000E+00  9.000E+00
      21     1     1     2   502   511  9.060838336E+00  1.177114693E+01 -8.878718886E+02  8.879961426E+02  0.000000000E+00  0.00000E+00  9.000E+00
#rwgt            1           1   2.7533957408770838E-002           3       25873           0
</event>
<event>
      5   9999  3.19816E-02  1.20556E+02 -1.00000E+00  1.20283E-01
      21    -1     0     0   502   512  0.000000000E+00  0.000000000E+00  1.757561297E+03  1.757561297E+03  0.000000000E+00  0.00000E+00  9.000E+00
      21    -1     0     0   501   502  0.000000000E+00  0.000000000E+00 -2.508264582E+02  2.508264582E+02  0.000000000E+00  0.00000E+00  9.000E+00
      25     1     1     2     0     0 -3.630424177E+02 -7.467655477E+01  3.593037236E+02  5.311313874E+02  1.250000000E+02  0.00000E+00  9.000E+00
      25     1     1     2     0     0  3.635210227E+02 -4.587894286E+01  7.038760838E+01  3.934867555E+02  1.250000000E+02  0.00000E+00  9.000E+00
      21     1     1     2   501   512 -4.786049812E-01  1.205554976E+02  1.077043507E+03  1.083769613E+03  0.000000000E+00  0.00000E+00  9.000E+00
#rwgt            1           1   2.9798770874550504E-002           3       26007           0
</event>
<event>
      5   9999  3.19816E-02  2.08402E+02 -1.00000E+00  1.11001E-01
       2    -1     0     0   502     0  0.000000000E+00  0.000000000E+00  2.620264464E+02  2.620264464E+02  0.000000000E+00  0.00000E+00  9.000E+00
      21    -1     0     0   501   502  0.000000000E+00  0.000000000E+00 -6.581828119E+02  6.581828119E+02  0.000000000E+00  0.00000E+00  9.000E+00
      25     1     1     2     0     0  7.407313656E+01 -9.592074856E+01  1.613542864E+02  2.373769688E+02  1.250000000E+02  0.00000E+00  9.000E+00
      25     1     1     2     0     0  1.138764303E+02  5.886408934E+00 -1.544869414E+02  2.291150503E+02  1.250000000E+02  0.00000E+00  9.000E+00
       2     1     1     2   501     0 -1.879495669E+02  9.003433962E+01 -4.030237105E+02  4.537172393E+02  7.629394531E-06  0.00000E+00  9.000E+00
#rwgt            2          18   2.7486236471772964E-005           3       26057           0
</event>
<event>
      5   9999  3.19816E-02  2.49577E+01 -1.00000E+00  1.58806E-01
      21    -1     0     0   511   501  0.000000000E+00  0.000000000E+00  9.460414247E+01  9.460414247E+01  0.000000000E+00  0.00000E+00  9.000E+00
      21    -1     0     0   501   502  0.000000000E+00  0.000000000E+00 -1.954012188E+03  1.954012188E+03  0.000000000E+00  0.00000E+00  9.000E+00
      25     1     1     2     0     0 -1.835840186E+02  3.225095820E+02 -1.070384818E+03  1.139764968E+03  1.250000000E+02  0.00000E+00  9.000E+00
      25     1     1     2     0     0  2.068212445E+02 -3.316155980E+02 -7.816860450E+02  8.828374737E+02  1.250000000E+02  0.00000E+00  9.000E+00
      21     1     1     2   511   502 -2.323722592E+01  9.106016061E+00 -7.337182642E+00  2.601388948E+01  8.429369702E-07  0.00000E+00  9.000E+00
#rwgt            1           1   3.5951810797282283E-002           3       26121           0
</event>
<event>
      5   9999  3.19816E-02  6.46251E+01 -1.00000E+00  1.33002E-01
      21    -1     0     0   502   501  0.000000000E+00  0.000000000E+00  1.569672987E+02  1.569672987E+02  0.000000000E+00  0.00000E+00  9.000E+00
      21    -1     0     0   512   502  0.000000000E+00  0.000000000E+00 -4.898072229E+02  4.898072229E+02  0.000000000E+00  0.00000E+00  9.000E+00
      25     1     1     2     0     0  1.368618477E+02 -1.473647473E+02 -1.695021645E+02  2.912104358E+02  1.250000000E+02  0.00000E+00  9.000E+00
      25     1     1     2     0     0 -9.144367030E+01  1.933386415E+02 -1.070541481E+02  2.698654586E+02  1.250000000E+02  0.00000E+00  9.000E+00
      21     1     1     2   512   501 -4.541817740E+01 -4.597389415E+01 -5.628361149E+01  8.569862720E+01  0.000000000E+00  0.00000E+00  9.000E+00
#rwgt            1           1   2.8008641818810263E-002           3       26244           0
</event>
<event>
      5   9999  3.19816E-02  6.40972E+01 -1.00000E+00  1.33188E-01
      21    -1     0     0   502   501  0.000000000E+00  0.000000000E+00  8.498896721E+02  8.498896721E+02  0.000000000E+00  0.00000E+00  9.000E+00
      21    -1     0     0   501   511  0.000000000E+00  0.000000000E+00 -8.561177269E+01  8.561177269E+01  0.000000000E+00  0.00000E+00  9.000E+00
      25     1     1     2     0     0  2.670434895E+01 -4.370207521E+00 -1.302601769E+00  1.279019849E+02  1.250000000E+02  0.00000E+00  9.000E+00
      25     1     1     2     0     0  3.467153753E+01 -1.410819369E+01  7.125788213E+02  7.244271759E+02  1.250000000E+02  0.00000E+00  9.000E+00
      21     1     1     2   502   511 -6.137588648E+01  1.847840121E+01  5.300167988E+01  8.317228398E+01  9.536743164E-07  0.00000E+00  9.000E+00
#rwgt            1           1   3.0222263399660755E-002           3       26318           0
</event>
<event>
      5   9999  3.19816E-02  3.99672E+01 -1.00000E+00  1.44862E-01
       2    -1     0     0   502     0  0.000000000E+00  0.000000000E+00  1.548913888E+03  1.548913888E+03  0.000000000E+00  0.00000E+00  9.000E+00
      21    -1     0     0   501   502  0.000000000E+00  0.000000000E+00 -2.532350255E+03  2.532350255E+03  0.000000000E+00  0.00000E+00  9.000E+00
      25     1     1     2     0     0  1.737501752E+02  1.052309815E+03 -2.100499392E+03  2.359081975E+03  1.250000000E+02  0.00000E+00  9.000E+00
      25     1     1     2     0     0 -1.495307934E+02 -1.084102830E+03  7.041117983E+02  1.307301354E+03  1.250000000E+02  0.00000E+00  9.000E+00
       2     1     1     2   501     0 -2.421938181E+01  3.179301488E+01  4.129512263E+02  4.148808137E+02  7.629394531E-06  0.00000E+00  9.000E+00
#rwgt            1           1   2.6284297450798549E-002           3       26425           0
</event>
<event>
      5   9999  3.19816E-02  1.41672E+01 -1.00000E+00  1.79753E-01
      21    -1     0     0   511   501  0.000000000E+00  0.000000000E+00  7.837486931E+01  7.837486931E+01  0.000000000E+00  0.00000E+00  9.000E+00
      21    -1     0     0   501   502  0.000000000E+00  0.000000000E+00 -3.726770798E+02  3.726770798E+02  0.000000000E+00  0.00000E+00  9.000E+00
      25     1     1     2     0     0  8.931646951E+01 -1.063802465E+01 -2.292108812E+02  2.761398692E+02  1.250000000E+02  0.00000E+00  9.000E+00
      25     1     1     2     0     0 -7.595425679E+01  1.534554923E+01 -5.313562851E+01  1.563743266E+02  1.250000000E+02  0.00000E+00  9.000E+00
      21     1     1     2   511   502 -1.336221272E+01 -4.707524578E+00 -1.195570073E+01  1.853775327E+01  1.685873940E-07  0.00000E+00  9.000E+00
#rwgt            1           1   2.3654817888627843E-002           3       26665           0
</event>
<event>
      5   9999  3.19816E-02  3.28080E+01 -1.00000E+00  1.50389E-01
       1    -1     0     0   502     0  0.000000000E+00  0.000000000E+00  5.954551389E+02  5.954551389E+02  0.000000000E+00  0.00000E+00  9.000E+00
      21    -1     0     0   501   502  0.000000000E+00  0.000000000E+00 -1.792235885E+03  1.792235885E+03  0.000000000E+00  0.00000E+00  9.000E+00
      25     1     1     2     0     0 -7.370113487E+01  1.990156991E+02 -3.850429464E+02  4.570800547E+02  1.250000000E+02  0.00000E+00  9.000E+00
      25     1     1     2     0     0  1.030823749E+02 -1.844175337E+02 -1.359692730E+03  1.381674753E+03  1.250000000E+02  0.00000E+00  9.000E+00
       1     1     1     2   501     0 -2.938124004E+01 -1.459816540E+01  5.479549304E+02  5.489362162E+02  7.629394531E-06  0.00000E+00  9.000E+00
#rwgt            1           1   3.1833644569709683E-002           3       26843           0
</event>
<event>
      5   9999  3.19816E-02  1.11734E+02 -1.00000E+00  1.21699E-01
      21    -1     0     0   502   511  0.000000000E+00  0.000000000E+00  2.359367560E+02  2.359367560E+02  0.000000000E+00  0.00000E+00  9.000E+00
      21    -1     0     0   501   502  0.000000000E+00  0.000000000E+00 -8.279915672E+02  8.279915672E+02  0.000000000E+00  0.00000E+00  9.000E+00
      25     1     1     2     0     0  1.731764006E+02 -5.429532034E+01 -6.721436156E+02  7.073472185E+02  1.250000000E+02  0.00000E+00  9.000E+00
      25     1     1     2     0     0 -1.647657785E+02 -5.712120672E+01  1.097195480E+02  2.409854212E+02  1.250000000E+02  0.00000E+00  9.000E+00
      21     1     1     2   501   511 -8.410622161E+00  1.114165271E+02 -2.963074364E+01  1.155956835E+02  9.536743164E-07  0.00000E+00  9.000E+00
#rwgt            1           1   2.6605386973441940E-002           3       26981           0
</event>
<event>
      5   9999  3.19816E-02  1.44805E+02 -1.00000E+00  1.17004E-01
      21    -1     0     0   502   501  0.000000000E+00  0.000000000E+00  5.066937938E+02  5.066937938E+02  0.000000000E+00  0.00000E+00  9.000E+00
      21    -1     0     0   501   512  0.000000000E+00  0.000000000E+00 -5.305499132E+02  5.305499132E+02  0.000000000E+00  0.00000E+00  9.000E+00
      25     1     1     2     0     0  1.649466725E+02 -2.559509877E+02 -2.560915006E+02  4.170445654E+02  1.250000000E+02  0.00000E+00  9.000E+00
      25     1     1     2     0     0 -6.156481289E+01  3.573446855E+02  2.717942973E+02  4.700878540E+02  1.250000000E+02  0.00000E+00  9.000E+00
      21     1     1     2   502   512 -1.033818596E+02 -1.013936977E+02 -3.955891614E+01  1.501112876E+02  2.697398305E-06  0.00000E+00  9.000E+00
#rwgt            1           1   2.5215438941291336E-002           3       27035           0
</event>
<event>
      5   9999  3.19816E-02  1.61804E+02 -1.00000E+00  1.15105E-01
      21    -1     0     0   502   501  0.000000000E+00  0.000000000E+00  3.184130234E+02  3.184130234E+02  0.000000000E+00  0.00000E+00  9.000E+00
      21    -1     0     0   511   502  0.000000000E+00  0.000000000E+00 -4.807512993E+02  4.807512993E+02  0.000000000E+00  0.00000E+00  9.000E+00
      25     1     1     2     0     0  1.691423420E+01 -2.327948203E+02  1.445145439E+02  3.016437851E+02  1.250000000E+02  0.00000E+00  9.000E+00
      25     1     1     2     0     0 -1.368328028E+02  1.241672279E+02 -2.223956775E+02  3.150008790E+02  1.250000000E+02  0.00000E+00  9.000E+00
      21     1     1     2   511   501  1.199185686E+02  1.086275924E+02 -8.445714217E+01  1.825196586E+02  2.523185073E-06  0.00000E+00  9.000E+00
#rwgt            1           1   2.7842357293385092E-002           3       27106           0
</event>
<event>
      5   9999  3.19816E-02  8.94941E+01 -1.00000E+00  1.26036E-01
      21    -1     0     0   502   501  0.000000000E+00  0.000000000E+00  9.263301877E+02  9.263301877E+02  0.000000000E+00  0.00000E+00  9.000E+00
      21    -1     0     0   512   502  0.000000000E+00  0.000000000E+00 -9.748916547E+01  9.748916547E+01  0.000000000E+00  0.00000E+00  9.000E+00
      25     1     1     2     0     0 -1.779926756E+02  5.140158470E+01  6.974608257E+02  7.323934181E+02  1.250000000E+02  0.00000E+00  9.000E+00
      25     1     1     2     0     0  8.872859295E+01 -5.781408919E+01  1.157062848E+02  2.005696300E+02  1.250000000E+02  0.00000E+00  9.000E+00
      21     1     1     2   512   501  8.926408269E+01  6.412504490E+00  1.567391172E+01  9.085630512E+01  2.920019320E-07  0.00000E+00  9.000E+00
#rwgt            1           1   3.0016412552532994E-002           3       27178           0
</event>
<event>
      5   9999  3.19816E-02  9.02407E+01 -1.00000E+00  1.25868E-01
      21    -1     0     0   502   501  0.000000000E+00  0.000000000E+00  1.351396334E+03  1.351396334E+03  0.000000000E+00  0.00000E+00  9.000E+00
      21    -1     0     0   511   502  0.000000000E+00  0.000000000E+00 -5.215159031E+02  5.215159031E+02  0.000000000E+00  0.00000E+00  9.000E+00
      25     1     1     2     0     0 -3.509283367E+02 -5.185411535E+02  6.733652347E+02  9.279446992E+02  1.250000000E+02  0.00000E+00  9.000E+00
      25     1     1     2     0     0  4.371740567E+02  5.450939873E+02  3.038937097E+02  7.721560708E+02  1.250000000E+02  0.00000E+00  9.000E+00
      21     1     1     2   511   501 -8.624571997E+01 -2.655283382E+01 -1.473785130E+02  1.728114675E+02  1.907348633E-06  0.00000E+00  9.000E+00
#rwgt            1           1   3.0515871925946972E-002           3       27267           0
</event>
<event>
      5   9999  3.19816E-02  2.98761E+02 -1.00000E+00  1.05650E-01
      21    -1     0     0   502   512  0.000000000E+00  0.000000000E+00  7.004591732E+02  7.004591732E+02  0.000000000E+00  0.00000E+00  9.000E+00
      21    -1     0     0   501   502  0.000000000E+00  0.000000000E+00 -9.060786823E+02  9.060786823E+02  0.000000000E+00  0.00000E+00  9.000E+00
      25     1     1     2     0     0  3.161217771E+02  3.453645913E+02  1.731474293E+02  5.146015072E+02  1.250000000E+02  0.00000E+00  9.000E+00
      25     1     1     2     0     0 -1.097142834E+02 -5.613595055E+02 -4.995988188E+02  7.696659653E+02  1.250000000E+02  0.00000E+00  9.000E+00
      21     1     1     2   501   512 -2.064074938E+02  2.159949143E+02  1.208318803E+02  3.222703830E+02  7.008046368E-06  0.00000E+00  9.000E+00
#rwgt            2          11   4.3767230000145187E-003           3       27461           0
</event>
<event>
      5   9999  3.19816E-02  2.08028E+01 -1.00000E+00  1.64971E-01
      21    -1     0     0   502   501  0.000000000E+00  0.000000000E+00  1.013865326E+02  1.013865326E+02  0.000000000E+00  0.00000E+00  9.000E+00
      21    -1     0     0   501   511  0.000000000E+00  0.000000000E+00 -6.963306114E+02  6.963306114E+02  0.000000000E+00  0.00000E+00  9.000E+00
      25     1     1     2     0     0 -7.801303428E+01  1.122705305E+02 -1.498858846E+01  1.858503789E+02  1.250000000E+02  0.00000E+00  9.000E+00
      25     1     1     2     0     0  7.964431261E+01 -9.153175568E+01 -5.203744334E+02  5.487584440E+02  1.250000000E+02  0.00000E+00  9.000E+00
      21     1     1     2   502   511 -1.631278335E+00 -2.073877483E+01 -5.958105699E+01  6.310832118E+01  0.000000000E+00  0.00000E+00  9.000E+00
#rwgt            1           1   2.8992843080098977E-002           3       27496           0
</event>
<event>
      5   9999  3.19816E-02  4.77950E+01 -1.00000E+00  1.40202E-01
      -5    -1     0     0     0   501  0.000000000E+00  0.000000000E+00  5.324946811E+02  5.324946811E+02  0.000000000E+00  0.00000E+00  9.000E+00
      21    -1     0     0   501   502  0.000000000E+00  0.000000000E+00 -1.434582434E+03  1.434582434E+03  0.000000000E+00  0.00000E+00  9.000E+00
      25     1     1     2     0     0  4.536108838E+01  3.224331185E+02 -1.267082710E+03  1.314208635E+03  1.250000000E+02  0.00000E+00  9.000E+00
      25     1     1     2     0     0 -8.357521978E+01 -3.511392526E+02  1.158223225E+02  3.991533571E+02  1.250000000E+02  0.00000E+00  9.000E+00
      -5     1     1     2     0   502  3.821413141E+01  2.870613406E+01  2.491726340E+02  2.537151228E+02  4.672030912E-06  0.00000E+00  9.000E+00
#rwgt            1           1   3.6304955782124552E-002           3       27636           0
</event>
<event>
      5   9999  3.19816E-02  3.38359E+01 -1.00000E+00  1.49497E-01
      21    -1     0     0   502   511  0.000000000E+00  0.000000000E+00  9.394370130E+02  9.394370130E+02  0.000000000E+00  0.00000E+00  9.000E+00
      21    -1     0     0   501   502  0.000000000E+00  0.000000000E+00 -3.277404497E+02  3.277404497E+02  0.000000000E+00  0.00000E+00  9.000E+00
      25     1     1     2     0     0  5.304552881E+01  3.655490346E+02 -1.157948429E+02  4.067841817E+02  1.250000000E+02  0.00000E+00  9.000E+00
      25     1     1     2     0     0 -8.571203912E+01 -3.743675233E+02  5.655813936E+02  6.949855458E+02  1.250000000E+02  0.00000E+00  9.000E+00
      21     1     1     2   501   511  3.266651030E+01  8.818488720E+00  1.619100127E+02  1.654077352E+02  3.303624740E-06  0.00000E+00  9.000E+00
#rwgt            1           1   3.3452825094024745E-002           3       27774           0
</event>
<event>
      5   9999  3.19816E-02  2.39626E+02 -1.00000E+00  1.08863E-01
      21    -1     0     0   502   501  0.000000000E+00  0.000000000E+00  6.973159861E+02  6.973159861E+02  0.000000000E+00  0.00000E+00  9.000E+00
      21    -1     0     0   501   512  0.000000000E+00  0.000000000E+00 -7.346470618E+02  7.346470618E+02  0.000000000E+00  0.00000E+00  9.000E+00
      25     1     1     2     0     0 -3.576242281E+02 -6.760622726E+01 -2.835352901E+02  4.779989029E+02  1.250000000E+02  0.00000E+00  9.000E+00
      25     1     1     2     0     0  1.600187750E+02  2.031518053E+02  5.175778887E+02  5.919362594E+02  1.250000000E+02  0.00000E+00  9.000E+00
      21     1     1     2   502   512  1.976054531E+02 -1.355455780E+02 -2.713736743E+02  3.620278855E+02  0.000000000E+00  0.00000E+00  9.000E+00
#rwgt            1           1   2.9482356664594370E-002           3       27883           0
</event>
<event>
      5   9999  3.19816E-02  1.25611E+02 -1.00000E+00  1.19532E-01
      21    -1     0     0   502   501  0.000000000E+00  0.000000000E+00  2.395487055E+02  2.395487055E+02  0.000000000E+00  0.00000E+00  9.000E+00
      21    -1     0     0   511   502  0.000000000E+00  0.000000000E+00 -6.844867079E+02  6.844867079E+02  0.000000000E+00  0.00000E+00  9.000E+00
      25     1     1     2     0     0 -5.797175161E+01  1.089466613E+02  1.151560714E+02  2.100381389E+02  1.250000000E+02  0.00000E+00  9.000E+00
      25     1     1     2     0     0 -5.109460170E+01 -1.712584248E+02 -1.053166574E+02  2.421914630E+02  1.250000000E+02  0.00000E+00  9.000E+00
      21     1     1     2   511   501  1.090663533E+02  6.231176348E+01 -4.547774164E+02  4.718058115E+02  5.394796609E-06  0.00000E+00  9.000E+00
#rwgt            1           1   2.5883463209392204E-002           3       27923           0
</event>
<event>
      5   9999  3.19816E-02  5.67387E+02 -1.00000E+00  9.73167E-02
       2    -1     0     0   502     0  0.000000000E+00  0.000000000E+00  2.265415021E+03  2.265415021E+03  0.000000000E+00  0.00000E+00  9.000E+00
      21    -1     0     0   501   502  0.000000000E+00  0.000000000E+00 -3.592425846E+02  3.592425846E+02  0.000000000E+00  0.00000E+00  9.000E+00
      25     1     1     2     0     0  2.059423372E+02  1.815621748E+02  4.750859226E+02  5.627687833E+02  1.250000000E+02  0.00000E+00  9.000E+00
      25     1     1     2     0     0 -3.423272099E+02 -7.323137320E+02  4.633906687E+02  9.401208606E+02  1.250000000E+02  0.00000E+00  9.000E+00
       2     1     1     2   501     0  1.363848726E+02  5.507515572E+02  9.676958455E+02  1.121767962E+03  1.078959322E-05  0.00000E+00  9.000E+00
#rwgt            1           1   2.7922741743619015E-002           3       27961           0
</event>
<event>
      5   9999  3.19816E-02  4.18152E+01 -1.00000E+00  1.43655E-01
      21    -1     0     0   502   511  0.000000000E+00  0.000000000E+00  3.498966893E+02  3.498966893E+02  0.000000000E+00  0.00000E+00  9.000E+00
      21    -1     0     0   501   502  0.000000000E+00  0.000000000E+00 -8.567513894E+02  8.567513894E+02  0.000000000E+00  0.00000E+00  9.000E+00
      25     1     1     2     0     0  4.333567151E+02  1.926421047E+02 -5.112795042E+02  7.084777727E+02  1.250000000E+02  0.00000E+00  9.000E+00
      25     1     1     2     0     0 -4.037090520E+02 -1.631544148E+02  2.022571184E+01  4.534693387E+02  1.250000000E+02  0.00000E+00  9.000E+00
      21     1     1     2   501   511 -2.964766313E+01 -2.948768985E+01 -1.580090778E+01  4.470096720E+01  5.591411304E-07  0.00000E+00  9.000E+00
#rwgt            1           1   2.8747122022493403E-002           3       28021           0
</event>
<event>
      5   9999  3.19816E-02  1.34761E+01 -1.00000E+00  1.81882E-01
      21    -1     0     0   512   501  0.000000000E+00  0.000000000E+00  1.252748335E+03  1.252748335E+03  0.000000000E+00  0.00000E+00  9.000E+00
      21    -1     0     0   501   502  0.000000000E+00  0.000000000E+00 -1.842221677E+03  1.842221677E+03  0.000000000E+00  0.00000E+00  9.000E+00
      25     1     1     2     0     0 -4.981482811E+02  1.247181261E+03 -6.374739239E+02  1.491848119E+03  1.250000000E+02  0.00000E+00  9.000E+00
      25     1     1     2     0     0  5.070904943E+02 -1.257263050E+03 -1.812846007E+02  1.373441026E+03  1.250000000E+02  0.00000E+00  9.000E+00
      21     1     1     2   512   502 -8.942213162E+00  1.008178881E+01  2.292851819E+02  2.296808662E+02  4.672030912E-06  0.00000E+00  9.000E+00
#rwgt            1           1   6.7144741196218147E-002           3       28153           0
</event>
<event>
      5   9999  3.19816E-02  1.01451E+02 -1.00000E+00  1.23547E-01
      21    -1     0     0   502   501  0.000000000E+00  0.000000000E+00  1.485491428E+02  1.485491428E+02  0.000000000E+00  0.00000E+00  9.000E+00
      21    -1     0     0   501   511  0.000000000E+00  0.000000000E+00 -1.260405635E+03  1.260405635E+03  0.000000000E+00  0.00000E+00  9.000E+00
      25     1     1     2     0     0  1.839666944E+02  2.767280588E+02 -7.425745678E+02  8.230821052E+02  1.250000000E+02  0.00000E+00  9.000E+00
      25     1     1     2     0     0 -1.805137091E+02 -1.753356476E+02 -1.002259886E+02  2.983253883E+02  1.250000000E+02  0.00000E+00  9.000E+00
      21     1     1     2   502   511 -3.452985342E+00 -1.013924112E+02 -2.690559360E+02  2.875472845E+02  6.607249480E-06  0.00000E+00  9.000E+00
#rwgt            1           1   2.8727910149439349E-002           3       28399           0
</event>
<event>
      5   9999  3.19816E-02  2.70660E+01 -1.00000E+00  1.56211E-01
      21    -1     0     0   502   512  0.000000000E+00  0.000000000E+00  3.687923575E+02  3.687923575E+02  0.000000000E+00  0.00000E+00  9.000E+00
      21    -1     0     0   501   502  0.000000000E+00  0.000000000E+00 -1.398881319E+03  1.398881319E+03  0.000000000E+00  0.00000E+00  9.000E+00
      25     1     1     2     0     0 -4.871643783E+02  3.532285511E+02 -8.799833830E+01  6.208608929E+02  1.250000000E+02  0.00000E+00  9.000E+00
      25     1     1     2     0     0  5.068014681E+02 -3.346018883E+02 -9.286019888E+02  1.116571899E+03  1.250000000E+02  0.00000E+00  9.000E+00
      21     1     1     2   501   512 -1.963708986E+01 -1.862666273E+01 -1.348863472E+01  3.024088506E+01  6.078504936E-07  0.00000E+00  9.000E+00
#rwgt            1           1   2.3209122969620393E-002           3       28468           0
</event>
<event>
      5   9999  3.19816E-02  1.10603E+02 -1.00000E+00  1.21891E-01
      21    -1     0     0   511   501  0.000000000E+00  0.000000000E+00  2.529497072E+02  2.529497072E+02  0.000000000E+00  0.00000E+00  9.000E+00
      21    -1     0     0   501   502  0.000000000E+00  0.000000000E+00 -6.095947362E+02  6.095947362E+02  0.000000000E+00  0.00000E+00  9.000E+00
      25     1     1     2     0     0  6.142057080E+01  6.536228915E+01  7.539058190E+01  1.713285008E+02  1.250000000E+02  0.00000E+00  9.000E+00
      25     1     1     2     0     0 -9.614447126E+01 -1.703734612E+02 -5.069846457E+02  5.576103538E+02  1.250000000E+02  0.00000E+00  9.000E+00
      21     1     1     2   511   502  3.472390046E+01  1.050111721E+02  7.494903484E+01  1.336055887E+02  9.536743164E-07  0.00000E+00  9.000E+00
#rwgt            1           1   3.1401805893745506E-002           3       28656           0
</event>
<event>
      5   9999  3.19816E-02  5.78185E+01 -1.00000E+00  1.35569E-01
      21    -1     0     0   512   501  0.000000000E+00  0.000000000E+00  1.619404063E+03  1.619404063E+03  0.000000000E+00  0.00000E+00  9.000E+00
      21    -1     0     0   501   502  0.000000000E+00  0.000000000E+00 -1.245706922E+02  1.245706922E+02  0.000000000E+00  0.00000E+00  9.000E+00
      25     1     1     2     0     0  2.656638164E+02  1.201771285E+02  2.911107334E+02  4.305696978E+02  1.250000000E+02  0.00000E+00  9.000E+00
      25     1     1     2     0     0 -2.994764551E+02 -1.670778712E+02  5.687005208E+02  6.757562020E+02  1.250000000E+02  0.00000E+00  9.000E+00
      21     1     1     2   512   502  3.381263873E+01  4.690074276E+01  6.350221163E+02  6.376488551E+02  0.000000000E+00  0.00000E+00  9.000E+00
#rwgt            1           1   2.7698662185523925E-002           3       28730           0
</event>
<event>
      5   9999  3.19816E-02  2.88493E+01 -1.00000E+00  1.54229E-01
      21    -1     0     0   502   501  0.000000000E+00  0.000000000E+00  2.327571507E+02  2.327571507E+02  0.000000000E+00  0.00000E+00  9.000E+00
      21    -1     0     0   511   502  0.000000000E+00  0.000000000E+00 -2.124128691E+02  2.124128691E+02  0.000000000E+00  0.00000E+00  9.000E+00
      25     1     1     2     0     0 -5.631881011E+01 -1.349691500E+02  4.855803711E+01  1.984221832E+02  1.250000000E+02  0.00000E+00  9.000E+00
      25     1     1     2     0     0  3.439158358E+01  1.537168625E+02  7.018511949E+00  2.012111189E+02  1.250000000E+02  0.00000E+00  9.000E+00
      21     1     1     2   511   501  2.192722653E+01 -1.874771252E+01 -3.523226745E+01  4.553671768E+01  4.768371582E-07  0.00000E+00  9.000E+00
#rwgt            1           1   2.2186776559309420E-002           3       28812           0
</event>
<event>
      5   9999  3.19816E-02  2.39365E+01 -1.00000E+00  1.60178E-01
      21    -1     0     0   502   501  0.000000000E+00  0.000000000E+00  5.690783939E+01  5.690783939E+01  0.000000000E+00  0.00000E+00  9.000E+00
      21    -1     0     0   501   512  0.000000000E+00  0.000000000E+00 -1.065824235E+03  1.065824235E+03  0.000000000E+00  0.00000E+00  9.000E+00
      25     1     1     2     0     0  6.745023932E+01  1.004288639E+02 -1.988440937E+02  2.641958839E+02  1.250000000E+02  0.00000E+00  9.000E+00
      25     1     1     2     0     0 -8.197291343E+01 -1.194563909E+02 -3.588451474E+02  4.066745968E+02  1.250000000E+02  0.00000E+00  9.000E+00
      21     1     1     2   502   512  1.452267411E+01  1.902752700E+01 -4.512271542E+02  4.518615933E+02  5.394796609E-06  0.00000E+00  9.000E+00
#rwgt            1           1   2.9746486818766613E-002           3       28877           0
</event>
<event>
      5   9999  3.19816E-02  5.04848E+02 -1.00000E+00  9.87331E-02
      -4    -1     0     0     0   501  0.000000000E+00  0.000000000E+00  4.692875899E+02  4.692875899E+02  0.000000000E+00  0.00000E+00  9.000E+00
      21    -1     0     0   501   502  0.000000000E+00  0.000000000E+00 -1.356802312E+03  1.356802312E+03  0.000000000E+00  0.00000E+00  9.000E+00
      25     1     1     2     0     0  9.446471494E+01 -6.635247373E+02 -6.442664135E+02  9.380260502E+02  1.250000000E+02  0.00000E+00  9.000E+00
      25     1     1     2     0     0 -4.025476590E+01  1.615953991E+02 -3.155533361E+02  3.780640516E+02  1.250000000E+02  0.00000E+00  9.000E+00
      -4     1     1     2     0   502 -5.420994904E+01  5.019293382E+02  7.230502736E+01  5.099998001E+02  7.072638023E-06  0.00000E+00  9.000E+00
#rwgt            2           2   4.6128892113329461E-005           3       29003           0
</event>
<event>
      5   9999  3.19816E-02  1.29442E+02 -1.00000E+00  1.18988E-01
      21    -1     0     0   502   501  0.000000000E+00  0.000000000E+00  5.507925524E+02  5.507925524E+02  0.000000000E+00  0.00000E+00  9.000E+00
      21    -1     0     0   501   511  0.000000000E+00  0.000000000E+00 -1.168996079E+03  1.168996079E+03  0.000000000E+00  0.00000E+00  9.000E+00
      25     1     1     2     0     0  2.823745531E+02 -3.478209310E+01  4.586386866E+02  5.540032735E+02  1.250000000E+02  0.00000E+00  9.000E+00
      25     1     1     2     0     0 -1.601325137E+02 -7.788005319E+00 -2.212849304E+02  3.004914232E+02  1.250000000E+02  0.00000E+00  9.000E+00
      21     1     1     2   502   511 -1.222420393E+02  4.257009842E+01 -8.555572823E+02  8.652939343E+02  0.000000000E+00  0.00000E+00  9.000E+00
#rwgt            1           1   2.4509057001293140E-002           3       29037           0
</event>
<event>
      5   9999  3.19816E-02  4.93690E+01 -1.00000E+00  1.39391E-01
      21    -1     0     0   512   501  0.000000000E+00  0.000000000E+00  5.594719049E+02  5.594719049E+02  0.000000000E+00  0.00000E+00  9.000E+00
      21    -1     0     0   501   502  0.000000000E+00  0.000000000E+00 -1.264810911E+03  1.264810911E+03  0.000000000E+00  0.00000E+00  9.000E+00
      25     1     1     2     0     0  3.570268857E+02 -1.264234557E+02  1.160419561E+02  4.153815389E+02  1.250000000E+02  0.00000E+00  9.000E+00
      25     1     1     2     0     0 -3.315368037E+02  1.687029337E+02 -1.078191737E+03  1.147388232E+03  1.250000000E+02  0.00000E+00  9.000E+00
      21     1     1     2   512   502 -2.549008204E+01 -4.227947794E+01  2.568107752E+02  2.615130452E+02  0.000000000E+00  0.00000E+00  9.000E+00
#rwgt            1           1   2.9158678958924600E-002           3       29112           0
</event>
<event>
      5   9999  3.19816E-02  2.81006E+02 -1.00000E+00  1.06523E-01
      21    -1     0     0   502   501  0.000000000E+00  0.000000000E+00  4.739808932E+02  4.739808932E+02  0.000000000E+00  0.00000E+00  9.000E+00
       1    -1     0     0   501     0  0.000000000E+00  0.000000000E+00 -1.503413011E+03  1.503413011E+03  0.000000000E+00  0.00000E+00  9.000E+00
      25     1     1     2     0     0  4.012981314E+02  4.083482577E+02 -1.022192835E+03  1.178257901E+03  1.250000000E+02  0.00000E+00  9.000E+00
      25     1     1     2     0     0 -1.214509541E+02 -3.828522945E+02  1.840947214E+02  4.591754350E+02  1.250000000E+02  0.00000E+00  9.000E+00
       1     1     1     2   502     0 -2.798471773E+02 -2.549596325E+01 -1.913340046E+02  3.399605685E+02  6.607249480E-06  0.00000E+00  9.000E+00
#rwgt            2          12   3.4664395780972524E-004           3       29429           0
</event>
<event>
      5   9999  3.19816E-02  2.09139E+01 -1.00000E+00  1.64784E-01
      21    -1     0     0   502   501  0.000000000E+00  0.000000000E+00  3.003097391E+02  3.003097391E+02  0.000000000E+00  0.00000E+00  9.000E+00
      21    -1     0     0   501   511  0.000000000E+00  0.000000000E+00 -1.874774775E+02  1.874774775E+02  0.000000000E+00  0.00000E+00  9.000E+00
      25     1     1     2     0     0 -3.856866126E+01  1.869667403E+02  2.342827488E+01  2.293861105E+02  1.250000000E+02  0.00000E+00  9.000E+00
      25     1     1     2     0     0  2.605701515E+01 -1.702081557E+02  9.982865227E+01  2.350330703E+02  1.250000000E+02  0.00000E+00  9.000E+00
      21     1     1     2   502   511  1.251164611E+01 -1.675858461E+01 -1.042466551E+01  2.336803580E+01  3.576278687E-07  0.00000E+00  9.000E+00
#rwgt            1           1   2.5876912899000008E-002           3       29448           0
</event>
<event>
      5   9999  3.19816E-02  4.37555E+01 -1.00000E+00  1.42464E-01
      21    -1     0     0   502   501  0.000000000E+00  0.000000000E+00  5.811587697E+02  5.811587697E+02  0.000000000E+00  0.00000E+00  9.000E+00
      21    -1     0     0   501   512  0.000000000E+00  0.000000000E+00 -1.073453804E+03  1.073453804E+03  0.000000000E+00  0.00000E+00  9.000E+00
      25     1     1     2     0     0  4.397783580E+02  1.689830293E+01  4.147525812E+02  6.175234897E+02  1.250000000E+02  0.00000E+00  9.000E+00
      25     1     1     2     0     0 -4.408905001E+02  2.684309147E+01 -8.288504826E+02  9.474825102E+02  1.250000000E+02  0.00000E+00  9.000E+00
      21     1     1     2   502   512  1.112142162E+00 -4.374139440E+01 -7.819713254E+01  8.960657332E+01  1.348699152E-06  0.00000E+00  9.000E+00
#rwgt            1           1   2.2562767523582460E-002           3       29562           0
</event>
<event>
      5   9999  3.19816E-02  2.38768E+02 -1.00000E+00  1.08917E-01
       1    -1     0     0   502     0  0.000000000E+00  0.000000000E+00  2.207174543E+03  2.207174543E+03  0.000000000E+00  0.00000E+00  9.000E+00
      21    -1     0     0   501   502  0.000000000E+00  0.000000000E+00 -1.812099079E+02  1.812099079E+02  0.000000000E+00  0.00000E+00  9.000E+00
      25     1     1     2     0     0 -2.429842127E+02  4.529914587E+02  4.116898596E+02  6.703403089E+02  1.250000000E+02  0.00000E+00  9.000E+00
      25     1     1     2     0     0  1.291695658E+02 -2.430949895E+02  5.530769595E+02  6.303166457E+02  1.250000000E+02  0.00000E+00  9.000E+00
       1     1     1     2   501     0  1.138146469E+02 -2.098964692E+02  1.061197816E+03  1.087727496E+03  1.525878906E-05  0.00000E+00  9.000E+00
#rwgt            2          17   5.4424269653397558E-004           3       29733           0
</event>
<event>
      5   9999  3.19816E-02  3.44284E+02 -1.00000E+00  1.03685E-01
      21    -1     0     0   502   501  0.000000000E+00  0.000000000E+00  5.901802043E+02  5.901802043E+02  0.000000000E+00  0.00000E+00  9.000E+00
      21    -1     0     0   501   511  0.000000000E+00  0.000000000E+00 -1.083415014E+03  1.083415014E+03  0.000000000E+00  0.00000E+00  9.000E+00
      25     1     1     2     0     0  3.715481124E+02 -4.508323006E+02 -7.012873883E+01  6.015320466E+02  1.250000000E+02  0.00000E+00  9.000E+00
      25     1     1     2     0     0 -2.843797937E+01  4.224300847E+02  9.350047572E+01  4.512463120E+02  1.250000000E+02  0.00000E+00  9.000E+00
      21     1     1     2   502   511 -3.431101330E+02  2.840221584E+01 -5.166065467E+02  6.208168597E+02  0.000000000E+00  0.00000E+00  9.000E+00
#rwgt            1           1   2.9223053458026747E-002           3       29797           0
</event>
<event>
      5   9999  3.19816E-02  7.34565E+01 -1.00000E+00  1.30169E-01
      21    -1     0     0   502   501  0.000000000E+00  0.000000000E+00  1.399520536E+02  1.399520536E+02  0.000000000E+00  0.00000E+00  9.000E+00
       3    -1     0     0   501     0  0.000000000E+00  0.000000000E+00 -8.602427949E+02  8.602427949E+02  0.000000000E+00  0.00000E+00  9.000E+00
      25     1     1     2     0     0 -1.274253880E+02  1.683178416E+02 -1.421102063E+02  2.835285454E+02  1.250000000E+02  0.00000E+00  9.000E+00
      25     1     1     2     0     0  5.579301233E+01 -1.520495953E+02 -9.089010972E+01  2.238703904E+02  1.250000000E+02  0.00000E+00  9.000E+00
       3     1     1     2   502     0  7.163237562E+01 -1.626824637E+01 -4.872904253E+02  4.927959128E+02  5.394796609E-06  0.00000E+00  9.000E+00
#rwgt            1           1   2.7098476084478969E-002           3       29862           0
</event>
<event>
      5   9999  3.19816E-02  5.36350E+01 -1.00000E+00  1.37359E-01
      21    -1     0     0   502   501  0.000000000E+00  0.000000000E+00  7.494926861E+02  7.494926861E+02  0.000000000E+00  0.00000E+00  9.000E+00
      21    -1     0     0   511   502  0.000000000E+00  0.000000000E+00 -1.158876229E+02  1.158876229E+02  0.000000000E+00  0.00000E+00  9.000E+00
      25     1     1     2     0     0  1.282366442E+02 -5.585158607E+01  3.215055895E+02  3.722296075E+02  1.250000000E+02  0.00000E+00  9.000E+00
      25     1     1     2     0     0 -7.478963497E+01  6.033857675E+01  3.771852467E+02  4.088128468E+02  1.250000000E+02  0.00000E+00  9.000E+00
      21     1     1     2   511   501 -5.344700925E+01 -4.486990678E+00 -6.508577308E+01  8.433785473E+01  2.697398305E-06  0.00000E+00  9.000E+00
#rwgt            1           1   2.1704787073141808E-002           3       29935           0
</event>
<event>
      5   9999  3.19816E-02  6.32319E+01 -1.00000E+00  1.33497E-01
      21    -1     0     0   512   501  0.000000000E+00  0.000000000E+00  5.634916239E+02  5.634916239E+02  0.000000000E+00  0.00000E+00  9.000E+00
      21    -1     0     0   501   502  0.000000000E+00  0.000000000E+00 -4.385141080E+02  4.385141080E+02  0.000000000E+00  0.00000E+00  9.000E+00
      25     1     1     2     0     0  2.053543892E+02 -9.224343678E+01 -3.493664084E+02  4.340059494E+02  1.250000000E+02  0.00000E+00  9.000E+00
      25     1     1     2     0     0 -1.425492278E+02  8.490965961E+01  4.576646103E+02  5.026050419E+02  1.250000000E+02  0.00000E+00  9.000E+00
      21     1     1     2   512   502 -6.280516138E+01  7.333777171E+00  1.667931400E+01  6.539474060E+01  1.283923342E-06  0.00000E+00  9.000E+00
#rwgt            1           1   2.7162029863728294E-002           3       30016           0
</event>
<event>
      5   9999  3.19816E-02  3.85326E+02 -1.00000E+00  1.02176E-01
      -4    -1     0     0     0   501  0.000000000E+00  0.000000000E+00  6.202117832E+02  6.202117832E+02  0.000000000E+00  0.00000E+00  9.000E+00
      21    -1     0     0   501   502  0.000000000E+00  0.000000000E+00 -1.031572254E+03  1.031572254E+03  0.000000000E+00  0.00000E+00  9.000E+00
      25     1     1     2     0     0  2.831244300E+02  1.625349257E+02  2.993426970E+02  4.602261348E+02  1.250000000E+02  0.00000E+00  9.000E+00
      25     1     1     2     0     0 -7.854484961E+01  1.639970366E+02 -7.706314936E+02  8.015997881E+02  1.250000000E+02  0.00000E+00  9.000E+00
      -4     1     1     2     0   502 -2.045795804E+02 -3.265319623E+02  5.992832527E+01  3.899581148E+02  8.740569487E-06  0.00000E+00  9.000E+00
#rwgt            2           2   2.5737544957831209E-005           3       30183           0
</event>
<event>
      5   9999  3.19816E-02  1.08248E+02 -1.00000E+00  1.22299E-01
      21    -1     0     0   502   501  0.000000000E+00  0.000000000E+00  8.657193239E+02  8.657193239E+02  0.000000000E+00  0.00000E+00  9.000E+00
      21    -1     0     0   501   511  0.000000000E+00  0.000000000E+00 -7.756076952E+02  7.756076952E+02  0.000000000E+00  0.00000E+00  9.000E+00
      25     1     1     2     0     0  3.197851690E+02 -4.783938987E+02  5.376253714E+02  7.973639800E+02  1.250000000E+02  0.00000E+00  9.000E+00
      25     1     1     2     0     0 -3.966916778E+02  4.022167749E+02 -2.757648147E+02  6.409476220E+02  1.250000000E+02  0.00000E+00  9.000E+00
      21     1     1     2   502   511  7.690650879E+01  7.617712385E+01 -1.717489281E+02  2.030154171E+02  0.000000000E+00  0.00000E+00  9.000E+00
#rwgt            1           1   2.8501838056650450E-002           3       30217           0
</event>
<event>
      5   9999  3.19816E-02  3.52348E+02 -1.00000E+00  1.03371E-01
      21    -1     0     0   512   501  0.000000000E+00  0.000000000E+00  1.143169874E+03  1.143169874E+03  0.000000000E+00  0.00000E+00  9.000E+00
      21    -1     0     0   501   502  0.000000000E+00  0.000000000E+00 -3.571317131E+02  3.571317131E+02  0.000000000E+00  0.00000E+00  9.000E+00
      25     1     1     2     0     0 -1.184519017E+01 -2.945378831E+02  8.352900713E+01  3.309002389E+02  1.250000000E+02  0.00000E+00  9.000E+00
      25     1     1     2     0     0  3.475530539E+02  4.015396017E+02  2.617492118E+02  6.051155484E+02  1.250000000E+02  0.00000E+00  9.000E+00
      21     1     1     2   512   502 -3.357078637E+02 -1.070017186E+02  4.407599425E+02  5.642858003E+02  1.078959322E-05  0.00000E+00  9.000E+00
#rwgt            2          11   2.3588160030990151E-003           3       30303           0
</event>
<event>
      5   9999  3.19816E-02  7.66310E+02 -1.00000E+00  9.38548E-02
      21    -1     0     0   502   501  0.000000000E+00  0.000000000E+00  1.764111394E+03  1.764111394E+03  0.000000000E+00  0.00000E+00  9.000E+00
      21    -1     0     0   511   502  0.000000000E+00  0.000000000E+00 -1.490180306E+03  1.490180306E+03  0.000000000E+00  0.00000E+00  9.000E+00
      25     1     1     2     0     0  6.413711704E+02  1.151154320E+02  9.274386845E+02  1.140340324E+03  1.250000000E+02  0.00000E+00  9.000E+00
      25     1     1     2     0     0 -1.129475354E+03  4.756340774E+02 -5.150594399E+02  1.335235402E+03  1.250000000E+02  0.00000E+00  9.000E+00
      21     1     1     2   511   501  4.881041837E+02 -5.907495094E+02 -1.384481558E+02  7.787159744E+02  1.907348633E-05  0.00000E+00  9.000E+00
#rwgt            2          11   1.9679513726971005E-003           3       30488           0
</event>
<event>
      5   9999  3.19816E-02  2.88603E+02 -1.00000E+00  1.06141E-01
      21    -1     0     0   502   512  0.000000000E+00  0.000000000E+00  8.278769613E+02  8.278769613E+02  0.000000000E+00  0.00000E+00  9.000E+00
      21    -1     0     0   501   502  0.000000000E+00  0.000000000E+00 -2.487989633E+03  2.487989633E+03  0.000000000E+00  0.00000E+00  9.000E+00
      25     1     1     2     0     0  8.014288066E+02  7.588473986E+02 -1.809291677E+03  2.123040009E+03  1.250000000E+02  0.00000E+00  9.000E+00
      25     1     1     2     0     0 -5.282017206E+02 -6.659028254E+02  2.369435732E+02  8.911738817E+02  1.250000000E+02  0.00000E+00  9.000E+00
      21     1     1     2   501   512 -2.732270860E+02 -9.294457314E+01 -8.776456764E+01  3.016527035E+02  2.697398305E-06  0.00000E+00  9.000E+00
#rwgt            1           1   6.3427017141788888E-002           3       30508           0
</event>
<event>
      5   9999  3.19816E-02  7.13742E+01 -1.00000E+00  1.30794E-01
      21    -1     0     0   511   501  0.000000000E+00  0.000000000E+00  4.885236966E+02  4.885236966E+02  0.000000000E+00  0.00000E+00  9.000E+00
      21    -1     0     0   501   502  0.000000000E+00  0.000000000E+00 -1.629475022E+03  1.629475022E+03  0.000000000E+00  0.00000E+00  9.000E+00
      25     1     1     2     0     0 -3.187809136E+01 -1.818258439E+02 -1.551665325E+03  1.567599161E+03  1.250000000E+02  0.00000E+00  9.000E+00
      25     1     1     2     0     0  2.690421617E+01  2.530265406E+02  2.646442850E+02  3.878245282E+02  1.250000000E+02  0.00000E+00  9.000E+00
      21     1     1     2   511   502  4.973875191E+00 -7.120069671E+01  1.460697143E+02  1.625750291E+02  0.000000000E+00  0.00000E+00  9.000E+00
#rwgt            1           1   3.2309033986058604E-002           3       30570           0
</event>
<event>
      5   9999  3.19816E-02  4.38166E+01 -1.00000E+00  1.42428E-01
      21    -1     0     0   502   501  0.000000000E+00  0.000000000E+00  2.087398573E+02  2.087398573E+02  0.000000000E+00  0.00000E+00  9.000E+00
      21    -1     0     0   512   502  0.000000000E+00  0.000000000E+00 -7.499445118E+02  7.499445118E+02  0.000000000E+00  0.00000E+00  9.000E+00
      25     1     1     2     0     0  1.407031038E+02 -2.203748417E+02 -6.770248386E+01  2.976089055E+02  1.250000000E+02  0.00000E+00  9.000E+00
      25     1     1     2     0     0 -1.831974290E+02  2.096916494E+02 -1.601618673E+02  3.446863931E+02  1.250000000E+02  0.00000E+00  9.000E+00
      21     1     1     2   512   501  4.249432521E+01  1.068319229E+01 -3.133403033E+02  3.163890705E+02  3.814697266E-06  0.00000E+00  9.000E+00
#rwgt            1           1   2.7256257419587666E-002           3       30684           0
</event>
<event>
      5   9999  3.19816E-02  1.12700E+02 -1.00000E+00  1.21537E-01
      21    -1     0     0   502   501  0.000000000E+00  0.000000000E+00  8.404996871E+02  8.404996871E+02  0.000000000E+00  0.00000E+00  9.000E+00
      21    -1     0     0   501   511  0.000000000E+00  0.000000000E+00 -4.819361917E+02  4.819361917E+02  0.000000000E+00  0.00000E+00  9.000E+00
      25     1     1     2     0     0 -3.630550687E+02  3.214482748E+02 -3.930348868E+01  5.023024393E+02  1.250000000E+02  0.00000E+00  9.000E+00
      25     1     1     2     0     0  4.743678672E+02 -3.038217715E+02  4.084207361E+02  7.069406198E+02  1.250000000E+02  0.00000E+00  9.000E+00
      21     1     1     2   502   511 -1.113127985E+02 -1.762650334E+01 -1.055375204E+01  1.131928196E+02  9.078709013E-07  0.00000E+00  9.000E+00
#rwgt            1           1   2.9568999492720967E-002           3       30768           0
</event>
<event>
      5   9999  3.19816E-02  6.42722E+01 -1.00000E+00  1.33126E-01
      21    -1     0     0   502   512  0.000000000E+00  0.000000000E+00  1.554857512E+02  1.554857512E+02  0.000000000E+00  0.00000E+00  9.000E+00
      21    -1     0     0   501   502  0.000000000E+00  0.000000000E+00 -2.241434730E+03  2.241434730E+03  0.000000000E+00  0.00000E+00  9.000E+00
      25     1     1     2     0     0  2.554731017E+02 -3.186667866E+02 -1.753602316E+03  1.804871494E+03  1.250000000E+02  0.00000E+00  9.000E+00
      25     1     1     2     0     0 -2.796052334E+02  2.590970626E+02 -3.418672466E+02  5.270755057E+02  1.250000000E+02  0.00000E+00  9.000E+00
      21     1     1     2   501   512  2.413213165E+01  5.956972397E+01  9.520583931E+00  6.497348160E+01  2.145767212E-06  0.00000E+00  9.000E+00
#rwgt            1           1   2.7456760084989769E-002           3       30871           0
</event>
<event>
      5   9999  3.19816E-02  5.56379E+01 -1.00000E+00  1.36479E-01
       1    -1     0     0   502     0  0.000000000E+00  0.000000000E+00  2.399341197E+03  2.399341197E+03  0.000000000E+00  0.00000E+00  9.000E+00
      21    -1     0     0   501   502  0.000000000E+00  0.000000000E+00 -2.695139479E+01  2.695139479E+01  0.000000000E+00  0.00000E+00  9.000E+00
      25     1     1     2     0     0 -4.025567530E+01  2.753520933E+01  1.951156671E+03  1.955764828E+03  1.250000000E+02  0.00000E+00  9.000E+00
      25     1     1     2     0     0  8.119337656E+01  1.014343918E+01  3.466876613E+02  3.775083949E+02  1.250000000E+02  0.00000E+00  9.000E+00
       1     1     1     2   501     0 -4.093770126E+01 -3.767864852E+01  7.454547039E+01  9.301936946E+01  2.697398305E-06  0.00000E+00  9.000E+00
#rwgt            1           1   5.4678784987530892E-002           3       30978           0
</event>
<event>
      5   9999  3.19816E-02  2.77422E+01 -1.00000E+00  1.55438E-01
      21    -1     0     0   502   511  0.000000000E+00  0.000000000E+00  8.632855545E+01  8.632855545E+01  0.000000000E+00  0.00000E+00  9.000E+00
      21    -1     0     0   501   502  0.000000000E+00  0.000000000E+00 -1.079939032E+03  1.079939032E+03  0.000000000E+00  0.00000E+00  9.000E+00
      25     1     1     2     0     0  2.469912996E+02 -8.557438993E+00 -3.185934441E+02  4.221430024E+02  1.250000000E+02  0.00000E+00  9.000E+00
      25     1     1     2     0     0 -2.229133897E+02  2.233735516E+01 -6.679128357E+02  7.154871716E+02  1.250000000E+02  0.00000E+00  9.000E+00
      21     1     1     2   501   511 -2.407790993E+01 -1.377991617E+01 -7.104196798E+00  2.863741344E+01  3.576278687E-07  0.00000E+00  9.000E+00
#rwgt            1           1   3.4782772135288610E-002           3       31068           0
</event>
<event>
      5   9999  3.19816E-02  1.11663E+02 -1.00000E+00  1.21711E-01
      21    -1     0     0   502   501  0.000000000E+00  0.000000000E+00  9.536563757E+02  9.536563757E+02  0.000000000E+00  0.00000E+00  9.000E+00
      21    -1     0     0   501   512  0.000000000E+00  0.000000000E+00 -2.113838277E+02  2.113838277E+02  0.000000000E+00  0.00000E+00  9.000E+00
      25     1     1     2     0     0 -2.874835320E+02 -1.512836549E+02  2.536462660E+02  4.306912509E+02  1.250000000E+02  0.00000E+00  9.000E+00
      25     1     1     2     0     0  1.841275186E+02  1.090208501E+02  5.526245410E+02  6.056462434E+02  1.250000000E+02  0.00000E+00  9.000E+00
      21     1     1     2   502   512  1.033560134E+02  4.226280477E+01 -6.399825893E+01  1.287027090E+02  2.697398305E-06  0.00000E+00  9.000E+00
#rwgt            1           1   2.4916987883196347E-002           3       31132           0
</event>
<event>
      5   9999  3.19816E-02  7.78411E+01 -1.00000E+00  1.28927E-01
      21    -1     0     0   502   501  0.000000000E+00  0.000000000E+00  6.844804833E+02  6.844804833E+02  0.000000000E+00  0.00000E+00  9.000E+00
      21    -1     0     0   511   502  0.000000000E+00  0.000000000E+00 -2.003253009E+02  2.003253009E+02  0.000000000E+00  0.00000E+00  9.000E+00
      25     1     1     2     0     0  2.344040897E+02  1.206989817E+02  1.254901478E+02  3.176260359E+02  1.250000000E+02  0.00000E+00  9.000E+00
      25     1     1     2     0     0 -3.118891074E+02 -1.281357559E+02  3.141898228E+02  4.775288808E+02  1.250000000E+02  0.00000E+00  9.000E+00
      21     1     1     2   511   501  7.748501768E+01  7.436774137E+00  4.447521184E+01  8.965086750E+01  1.784161275E-06  0.00000E+00  9.000E+00
#rwgt            1           1   2.9367262435497792E-002           3       31230           0
</event>
<event>
      5   9999  3.19816E-02  1.60675E+01 -1.00000E+00  1.74616E-01
       2    -1     0     0   502     0  0.000000000E+00  0.000000000E+00  7.906682044E+02  7.906682044E+02  0.000000000E+00  0.00000E+00  9.000E+00
      21    -1     0     0   501   502  0.000000000E+00  0.000000000E+00 -5.846595716E+01  5.846595716E+01  0.000000000E+00  0.00000E+00  9.000E+00
      25     1     1     2     0     0 -1.485273442E+02  2.982669701E+01  3.293630391E+02  3.834775291E+02  1.250000000E+02  0.00000E+00  9.000E+00
      25     1     1     2     0     0  1.564692043E+02 -1.585920395E+01  2.967458747E+02  3.583535132E+02  1.250000000E+02  0.00000E+00  9.000E+00
       2     1     1     2   501     0 -7.941860067E+00 -1.396749307E+01  1.060933334E+02  1.073031193E+02  0.000000000E+00  0.00000E+00  9.000E+00
#rwgt            1           1   2.6988949654601555E-002           3       31326           0
</event>
<event>
      5   9999  3.19816E-02  3.55320E+01 -1.00000E+00  1.48104E-01
      21    -1     0     0   511   501  0.000000000E+00  0.000000000E+00  1.830883577E+03  1.830883577E+03  0.000000000E+00  0.00000E+00  9.000E+00
      21    -1     0     0   501   502  0.000000000E+00  0.000000000E+00 -2.067117695E+02  2.067117695E+02  0.000000000E+00  0.00000E+00  9.000E+00
      25     1     1     2     0     0  2.941360423E+01 -1.693003061E+02 -6.197828905E+01  2.213460234E+02  1.250000000E+02  0.00000E+00  9.000E+00
      25     1     1     2     0     0 -3.466544806E+01  2.044420240E+02  1.611783989E+02  2.908637323E+02  1.250000000E+02  0.00000E+00  9.000E+00
      21     1     1     2   511   502  5.251843832E+00 -3.514171793E+01  1.524971698E+03  1.525385591E+03  2.157918644E-05  0.00000E+00  9.000E+00
#rwgt            1           1   2.6003798667698020E-002           3       31456           0
</event>
<event>
      5   9999  3.19816E-02  5.08933E+01 -1.00000E+00  1.38638E-01
      21    -1     0     0   502   501  0.000000000E+00  0.000000000E+00  1.040073261E+03  1.040073261E+03  0.000000000E+00  0.00000E+00  9.000E+00
      21    -1     0     0   501   512  0.000000000E+00  0.000000000E+00 -1.264179415E+02  1.264179415E+02  0.000000000E+00  0.00000E+00  9.000E+00
      25     1     1     2     0     0  1.538301922E+02 -2.561088041E+02  6.214905875E+02  7.008073900E+02  1.250000000E+02  0.00000E+00  9.000E+00
      25     1     1     2     0     0 -1.592540376E+02  2.055053635E+02  2.976381988E+02  4.144970449E+02  1.250000000E+02  0.00000E+00  9.000E+00
      21     1     1     2   502   512  5.423845338E+00  5.060344063E+01 -5.473466941E+00  5.118676726E+01  1.383803697E-06  0.00000E+00  9.000E+00
#rwgt            1           1   3.0104128982014169E-002           3       31597           0
</event>
<event>
      5   9999  3.19816E-02  3.17282E+01 -1.00000E+00  1.51369E-01
      21    -1     0     0   502   501  0.000000000E+00  0.000000000E+00  5.518314500E+02  5.518314500E+02  0.000000000E+00  0.00000E+00  9.000E+00
      21    -1     0     0   511   502  0.000000000E+00  0.000000000E+00 -1.471684190E+03  1.471684190E+03  0.000000000E+00  0.00000E+00  9.000E+00
      25     1     1     2     0     0 -2.888193968E+01 -3.720996953E+02  3.352943587E+02  5.170489886E+02  1.250000000E+02  0.00000E+00  9.000E+00
      25     1     1     2     0     0  3.730447759E+01  4.026895603E+02 -2.317543856E+02  4.825822223E+02  1.250000000E+02  0.00000E+00  9.000E+00
      21     1     1     2   511   501 -8.422537913E+00 -3.058986500E+01 -1.023392713E+03  1.023884429E+03  1.078959322E-05  0.00000E+00  9.000E+00
#rwgt            1           1   3.0247849986858682E-002           3       31691           0
</event>
<event>
      5   9999  3.19816E-02  1.29718E+01 -1.00000E+00  1.83541E-01
      21    -1     0     0   502   512  0.000000000E+00  0.000000000E+00  9.859241866E+01  9.859241866E+01  0.000000000E+00  0.00000E+00  9.000E+00
      21    -1     0     0   501   502  0.000000000E+00  0.000000000E+00 -6.913095021E+02  6.913095021E+02  0.000000000E+00  0.00000E+00  9.000E+00
      25     1     1     2     0     0  3.082126123E+01 -9.354995188E+01 -1.091934799E+02  1.930019681E+02  1.250000000E+02  0.00000E+00  9.000E+00
      25     1     1     2     0     0 -4.367901259E+01  9.526622116E+01 -5.269277312E+02  5.515988968E+02  1.250000000E+02  0.00000E+00  9.000E+00
      21     1     1     2   501   512  1.285775136E+01 -1.716269279E+00  4.340412774E+01  4.530105578E+01  8.259061849E-07  0.00000E+00  9.000E+00
#rwgt            1           1   2.8288381133718322E-002           3       31866           0
</event>
<event>
      5   9999  3.19816E-02  7.24289E+01 -1.00000E+00  1.30475E-01
      21    -1     0     0   502   501  0.000000000E+00  0.000000000E+00  1.349287450E+02  1.349287450E+02  0.000000000E+00  0.00000E+00  9.000E+00
      21    -1     0     0   501   511  0.000000000E+00  0.000000000E+00 -1.099083465E+03  1.099083465E+03  0.000000000E+00  0.00000E+00  9.000E+00
      25     1     1     2     0     0 -3.343551475E+02  1.330409907E+02 -4.636784503E+02  6.000966381E+02  1.250000000E+02  0.00000E+00  9.000E+00
      25     1     1     2     0     0  2.686415346E+02 -1.025832774E+02 -3.728463090E+02  4.871662684E+02  1.250000000E+02  0.00000E+00  9.000E+00
      21     1     1     2   502   511  6.571361289E+01 -3.045771323E+01 -1.276299612E+02  1.467493040E+02  1.907348633E-06  0.00000E+00  9.000E+00
#rwgt            1           1   2.8845206868728431E-002           3       32009           0
</event>
<event>
      5   9999  3.19816E-02  9.88600E+01 -1.00000E+00  1.24052E-01
      21    -1     0     0   502   501  0.000000000E+00  0.000000000E+00  5.213020644E+02  5.213020644E+02  0.000000000E+00  0.00000E+00  9.000E+00
      21    -1     0     0   501   512  0.000000000E+00  0.000000000E+00 -5.104623738E+02  5.104623738E+02  0.000000000E+00  0.00000E+00  9.000E+00
      25     1     1     2     0     0  2.862188368E+02 -6.733372443E+01  3.065936963E+02  4.428089290E+02  1.250000000E+02  0.00000E+00  9.000E+00
      25     1     1     2     0     0 -3.849696843E+02  6.269019382E+01 -2.515745044E+02  4.806729132E+02  1.250000000E+02  0.00000E+00  9.000E+00
      21     1     1     2   502   512  9.875084751E+01  4.643530606E+00 -4.417950132E+01  1.082825960E+02  1.430511475E-06  0.00000E+00  9.000E+00
#rwgt            1           1   2.9547225608473164E-002           3       32089           0
</event>
<event>
      5   9999  3.19816E-02  6.35742E+01 -1.00000E+00  1.33374E-01
      21    -1     0     0   511   501  0.000000000E+00  0.000000000E+00  3.783829063E+02  3.783829063E+02  0.000000000E+00  0.00000E+00  9.000E+00
      21    -1     0     0   501   502  0.000000000E+00  0.000000000E+00 -1.807159282E+02  1.807159282E+02  0.000000000E+00  0.00000E+00  9.000E+00
      25     1     1     2     0     0  1.622889918E+02  7.416214209E+01 -2.123808149E+01  2.188922024E+02  1.250000000E+02  0.00000E+00  9.000E+00
      25     1     1     2     0     0 -1.077307817E+02 -1.067977994E+02  1.584014805E+02  2.524434993E+02  1.250000000E+02  0.00000E+00  9.000E+00
      21     1     1     2   511   502 -5.455821006E+01  3.263565727E+01  6.050357897E+01  8.776313280E+01  1.348699152E-06  0.00000E+00  9.000E+00
#rwgt            1           1   2.7759613701453894E-002           3       32144           0
</event>
<event>
      5   9999  3.19816E-02  1.46178E+01 -1.00000E+00  1.78446E-01
      21    -1     0     0   502   501  0.000000000E+00  0.000000000E+00  1.014348410E+03  1.014348410E+03  0.000000000E+00  0.00000E+00  9.000E+00
      21    -1     0     0   501   512  0.000000000E+00  0.000000000E+00 -8.871607810E+01  8.871607810E+01  0.000000000E+00  0.00000E+00  9.000E+00
      25     1     1     2     0     0 -1.116616332E+02 -2.422052818E+02  3.782007700E+02  4.793668129E+02  1.250000000E+02  0.00000E+00  9.000E+00
      25     1     1     2     0     0  1.008462540E+02  2.323712182E+02  5.326099327E+02  6.028803284E+02  1.250000000E+02  0.00000E+00  9.000E+00
      21     1     1     2   502   512  1.081537912E+01  9.834063586E+00  1.482162890E+01  2.081734650E+01  2.920019320E-07  0.00000E+00  9.000E+00
#rwgt            1           1   2.2261771458815929E-002           3       32235           0
</event>
<event>
      5   9999  3.19816E-02  6.90705E+02 -1.00000E+00  9.50226E-02
       2    -1     0     0   502     0  0.000000000E+00  0.000000000E+00  4.282238573E+02  4.282238573E+02  0.000000000E+00  0.00000E+00  9.000E+00
      21    -1     0     0   501   502  0.000000000E+00  0.000000000E+00 -2.135314084E+03  2.135314084E+03  0.000000000E+00  0.00000E+00  9.000E+00
      25     1     1     2     0     0 -4.022348232E+02 -3.635774535E+02 -1.473304305E+03  1.574875231E+03  1.250000000E+02  0.00000E+00  9.000E+00
      25     1     1     2     0     0 -2.260603750E+02  7.666550925E+01 -7.946561289E+01  2.809282419E+02  1.250000000E+02  0.00000E+00  9.000E+00
       2     1     1     2   501     0  6.282951982E+02  2.869119442E+02 -1.543203083E+02  7.077344681E+02  1.236103191E-05  0.00000E+00  9.000E+00
#rwgt            2          18   2.9776889110569462E-004           3       32425           0
</event>
<event>
      5   9999  3.19816E-02  7.39349E+01 -1.00000E+00  1.30029E-01
      -3    -1     0     0     0   501  0.000000000E+00  0.000000000E+00  1.677282409E+03  1.677282409E+03  0.000000000E+00  0.00000E+00  9.000E+00
      21    -1     0     0   501   502  0.000000000E+00  0.000000000E+00 -8.192604005E+01  8.192604005E+01  0.000000000E+00  0.00000E+00  9.000E+00
      25     1     1     2     0     0  1.360301674E+02  1.415169793E+01  1.313411237E+03  1.326415679E+03  1.250000000E+02  0.00000E+00  9.000E+00
      25     1     1     2     0     0 -1.776722345E+02  4.694096597E+01  1.150731096E+02  2.502752440E+02  1.250000000E+02  0.00000E+00  9.000E+00
      -3     1     1     2     0   502  4.164206707E+01 -6.109266390E+01  1.668720219E+02  1.825175253E+02  2.697398305E-06  0.00000E+00  9.000E+00
#rwgt            1           1   2.8439715161786106E-002           3       32474           0
</event>
<event>
      5   9999  3.19816E-02  2.41047E+01 -1.00000E+00  1.59946E-01
      21    -1     0     0   511   501  0.000000000E+00  0.000000000E+00  3.086021867E+02  3.086021867E+02  0.000000000E+00  0.00000E+00  9.000E+00
      21    -1     0     0   501   502  0.000000000E+00  0.000000000E+00 -4.845473478E+02  4.845473478E+02  0.000000000E+00  0.00000E+00  9.000E+00
      25     1     1     2     0     0  7.837401041E+01 -2.918591026E+02 -1.142478521E+01  3.272304188E+02  1.250000000E+02  0.00000E+00  9.000E+00
      25     1     1     2     0     0 -6.065351708E+01  2.755182899E+02 -2.372928493E+02  3.892583634E+02  1.250000000E+02  0.00000E+00  9.000E+00
      21     1     1     2   511   502 -1.772049333E+01  1.634081272E+01  7.277247345E+01  7.666075226E+01  1.348699152E-06  0.00000E+00  9.000E+00
#rwgt            1           1   2.6677249033785943E-002           3       32610           0
</event>
<event>
      5   9999  3.19816E-02  2.57716E+01 -1.00000E+00  1.57768E-01
      -1    -1     0     0     0   501  0.000000000E+00  0.000000000E+00  4.994564402E+02  4.994564402E+02  0.000000000E+00  0.00000E+00  9.000E+00
      21    -1     0     0   501   502  0.000000000E+00  0.000000000E+00 -1.590782239E+02  1.590782239E+02  0.000000000E+00  0.00000E+00  9.000E+00
      25     1     1     2     0     0 -3.317037265E+01 -7.354468953E+01  1.563827854E+02  2.158464050E+02  1.250000000E+02  0.00000E+00  9.000E+00
      25     1     1     2     0     0  4.757290791E+01  5.217312835E+01 -8.871561426E+01  1.687621910E+02  1.250000000E+02  0.00000E+00  9.000E+00
      -1     1     1     2     0   502 -1.440253526E+01  2.137156118E+01  2.727110451E+02  2.739260681E+02  3.814697266E-06  0.00000E+00  9.000E+00
#rwgt            1           1   3.1772861084270583E-002           3       32730           0
</event>
<event>
      5   9999  3.19816E-02  1.85155E+01 -1.00000E+00  1.69181E-01
      -2    -1     0     0     0   501  0.000000000E+00  0.000000000E+00  1.926518436E+02  1.926518436E+02  0.000000000E+00  0.00000E+00  9.000E+00
      21    -1     0     0   501   502  0.000000000E+00  0.000000000E+00 -1.954705976E+03  1.954705976E+03  0.000000000E+00  0.00000E+00  9.000E+00
      25     1     1     2     0     0  4.780349323E+02 -1.785206904E+02 -1.362751421E+03  1.460514795E+03  1.250000000E+02  0.00000E+00  9.000E+00
      25     1     1     2     0     0 -4.955981651E+02  1.726591866E+02 -3.786912416E+02  6.591363990E+02  1.250000000E+02  0.00000E+00  9.000E+00
      -2     1     1     2     0   502  1.756323284E+01  5.861503770E+00 -2.061146998E+01  2.770662500E+01  4.129530925E-07  0.00000E+00  9.000E+00
#rwgt            1           1   3.0215232202529158E-002           3       32887           0
</event>
<event>
      5   9999  3.19816E-02  8.48928E+01 -1.00000E+00  1.27114E-01
      21    -1     0     0   511   501  0.000000000E+00  0.000000000E+00  3.090822145E+02  3.090822145E+02  0.000000000E+00  0.00000E+00  9.000E+00
      21    -1     0     0   501   502  0.000000000E+00  0.000000000E+00 -3.162504528E+02  3.162504528E+02  0.000000000E+00  0.00000E+00  9.000E+00
      25     1     1     2     0     0 -1.166995129E+02 -4.424668538E+01  6.216418065E+01  1.872589940E+02  1.250000000E+02  0.00000E+00  9.000E+00
      25     1     1     2     0     0  3.720800483E+01  1.444917894E+01 -2.251695698E+02  2.606137939E+02  1.250000000E+02  0.00000E+00  9.000E+00
      21     1     1     2   511   502  7.949150804E+01  2.979750644E+01  1.558371508E+02  1.774598795E+02  2.697398305E-06  0.00000E+00  9.000E+00
#rwgt            1           1   3.0266924872812365E-002           3       33081           0
</event>
<event>
      5   9999  3.19816E-02  4.41168E+01 -1.00000E+00  1.42250E-01
      21    -1     0     0   502   512  0.000000000E+00  0.000000000E+00  1.643870354E+02  1.643870354E+02  0.000000000E+00  0.00000E+00  9.000E+00
      21    -1     0     0   501   502  0.000000000E+00  0.000000000E+00 -4.032641578E+02  4.032641578E+02  0.000000000E+00  0.00000E+00  9.000E+00
      25     1     1     2     0     0  5.054044883E+01 -7.050575161E+01  7.695070917E+01  1.705045736E+02  1.250000000E+02  0.00000E+00  9.000E+00
      25     1     1     2     0     0 -9.348178803E+01  8.062194373E+01 -3.045865460E+02  3.516201168E+02  1.250000000E+02  0.00000E+00  9.000E+00
      21     1     1     2   501   512  4.294133921E+01 -1.011619211E+01 -1.124128553E+01  4.552650279E+01  2.920019320E-07  0.00000E+00  9.000E+00
#rwgt            1           1   2.9152038524675121E-002           3       33125           0
</event>
<event>
      5   9999  3.19816E-02  3.87714E+01 -1.00000E+00  1.45685E-01
       2    -1     0     0   502     0  0.000000000E+00  0.000000000E+00  9.544750448E+02  9.544750448E+02  0.000000000E+00  0.00000E+00  9.000E+00
      21    -1     0     0   501   502  0.000000000E+00  0.000000000E+00 -3.644415137E+02  3.644415137E+02  0.000000000E+00  0.00000E+00  9.000E+00
      25     1     1     2     0     0 -1.641898404E+02  8.113220844E+01  9.918282137E+01  2.429052717E+02  1.250000000E+02  0.00000E+00  9.000E+00
      25     1     1     2     0     0  1.864090341E+02 -4.935913161E+01 -2.468685076E+02  3.372739420E+02  1.250000000E+02  0.00000E+00  9.000E+00
       2     1     1     2   501     0 -2.221919365E+01 -3.177307684E+01  7.377192174E+02  7.387373449E+02  0.000000000E+00  0.00000E+00  9.000E+00
#rwgt            1           1   2.7910209481471875E-002           3       33263           0
</event>
<event>
      5   9999  3.19816E-02  5.16021E+00 -1.00000E+00  2.36148E-01
      21    -1     0     0   502   501  0.000000000E+00  0.000000000E+00  3.554760071E+01  3.554760071E+01  0.000000000E+00  0.00000E+00  9.000E+00
      21    -1     0     0   501   511  0.000000000E+00  0.000000000E+00 -6.789414974E+02  6.789414974E+02  0.000000000E+00  0.00000E+00  9.000E+00
      25     1     1     2     0     0  5.014933834E+01 -6.817157874E+01 -2.997060905E+02  3.355757157E+02  1.250000000E+02  0.00000E+00  9.000E+00
      25     1     1     2     0     0 -5.214003380E+01  7.293234344E+01 -3.256787350E+02  3.601796056E+02  1.250000000E+02  0.00000E+00  9.000E+00
      21     1     1     2   502   511  1.990695464E+00 -4.760764704E+00 -1.800907116E+01  1.873377680E+01  3.371747881E-07  0.00000E+00  9.000E+00
#rwgt            1           1   5.6902134669258572E-002           3       33362           0
</event>
<event>
      5   9999  3.19816E-02  1.69627E+01 -1.00000E+00  1.72496E-01
      21    -1     0     0   512   501  0.000000000E+00  0.000000000E+00  5.716574334E+02  5.716574334E+02  0.000000000E+00  0.00000E+00  9.000E+00
      21    -1     0     0   501   502  0.000000000E+00  0.000000000E+00 -2.239560357E+03  2.239560357E+03  0.000000000E+00  0.00000E+00  9.000E+00
      25     1     1     2     0     0  6.448840079E+02 -7.594633305E+02 -1.411821590E+03  1.732491021E+03  1.250000000E+02  0.00000E+00  9.000E+00
      25     1     1     2     0     0 -6.601963776E+02  7.521651643E+02 -2.824397659E+02  1.047381933E+03  1.250000000E+02  0.00000E+00  9.000E+00
      21     1     1     2   512   502  1.531236966E+01  7.298166166E+00  2.635843212E+01  3.134483750E+01  5.840038640E-07  0.00000E+00  9.000E+00
#rwgt            1           1   2.2996162970727353E-002           3       33586           0
</event>
<event>
      5   9999  3.19816E-02  2.49563E+01 -1.00000E+00  1.58808E-01
      21    -1     0     0   511   501  0.000000000E+00  0.000000000E+00  7.585892337E+02  7.585892337E+02  0.000000000E+00  0.00000E+00  9.000E+00
      21    -1     0     0   501   502  0.000000000E+00  0.000000000E+00 -2.360052802E+02  2.360052802E+02  0.000000000E+00  0.00000E+00  9.000E+00
      25     1     1     2     0     0 -1.680598472E+02  2.386560000E+02  4.432215552E+02  5.452257749E+02  1.250000000E+02  0.00000E+00  9.000E+00
      25     1     1     2     0     0  1.553462467E+02 -2.601311739E+02 -3.747658668E+01  3.298941930E+02  1.250000000E+02  0.00000E+00  9.000E+00
      21     1     1     2   511   502  1.271360047E+01  2.147517394E+01  1.168389850E+02  1.194745460E+02  1.348699152E-06  0.00000E+00  9.000E+00
#rwgt            2          11   1.3164070003384800E-003           3       33923           0
</event>
<event>
      5   9999  3.19816E-02  2.70126E+01 -1.00000E+00  1.56273E-01
      21    -1     0     0   502   501  0.000000000E+00  0.000000000E+00  5.445673334E+02  5.445673334E+02  0.000000000E+00  0.00000E+00  9.000E+00
       3    -1     0     0   501     0  0.000000000E+00  0.000000000E+00 -1.108510730E+03  1.108510730E+03  0.000000000E+00  0.00000E+00  9.000E+00
      25     1     1     2     0     0  9.738845959E+01  7.087678745E+02 -2.168561139E+02  7.579498572E+02  1.250000000E+02  0.00000E+00  9.000E+00
      25     1     1     2     0     0 -8.412470655E+01 -6.852359643E+02 -1.779140197E+02  7.238119172E+02  1.250000000E+02  0.00000E+00  9.000E+00
       3     1     1     2   502     0 -1.326375304E+01 -2.353191018E+01 -1.691732627E+02  1.713162886E+02  2.697398305E-06  0.00000E+00  9.000E+00
#rwgt            1           1   3.1637121524120182E-002           3       33943           0
</event>
<event>
      5   9999  3.19816E-02  1.65176E+02 -1.00000E+00  1.14759E-01
      21    -1     0     0   502   501  0.000000000E+00  0.000000000E+00  8.376481593E+01  8.376481593E+01  0.000000000E+00  0.00000E+00  9.000E+00
       2    -1     0     0   501     0  0.000000000E+00  0.000000000E+00 -3.244733118E+03  3.244733118E+03  0.000000000E+00  0.00000E+00  9.000E+00
      25     1     1     2     0     0  2.676836347E+01  2.739060384E+01 -4.962412863E+02  5.131736594E+02  1.250000000E+02  0.00000E+00  9.000E+00
      25     1     1     2     0     0 -1.110409451E+02 -1.694516292E+02 -1.224728546E+02  2.677098172E+02  1.250000000E+02  0.00000E+00  9.000E+00
       2     1     1     2   502     0  8.427258161E+01  1.420610254E+02 -2.542254162E+03  2.547614458E+03  3.051757812E-05  0.00000E+00  9.000E+00
#rwgt            1           1   2.8333508783643720E-002           3       34089           0
</event>
<event>
      5   9999  3.19816E-02  6.12340E+01 -1.00000E+00  1.34233E-01
      21    -1     0     0   502   511  0.000000000E+00  0.000000000E+00  1.437699422E+03  1.437699422E+03  0.000000000E+00  0.00000E+00  9.000E+00
      21    -1     0     0   501   502  0.000000000E+00  0.000000000E+00 -4.844725326E+02  4.844725326E+02  0.000000000E+00  0.00000E+00  9.000E+00
      25     1     1     2     0     0  7.583325437E+00  4.930067374E+02 -2.633700192E+02  5.728018130E+02  1.250000000E+02  0.00000E+00  9.000E+00
      25     1     1     2     0     0 -6.244157472E+01 -4.658006776E+02  8.636752112E+02  9.911756110E+02  1.250000000E+02  0.00000E+00  9.000E+00
      21     1     1     2   501   511  5.485824929E+01 -2.720605988E+01  3.529216975E+02  3.581945306E+02  3.814697266E-06  0.00000E+00  9.000E+00
#rwgt            2          11   2.3837257711817254E-003           3       34150           0
</event>
<event>
      5   9999  3.19816E-02  1.80911E+02 -1.00000E+00  1.13257E-01
      21    -1     0     0   502   501  0.000000000E+00  0.000000000E+00  4.658393818E+02  4.658393818E+02  0.000000000E+00  0.00000E+00  9.000E+00
      21    -1     0     0   501   512  0.000000000E+00  0.000000000E+00 -4.533789709E+02  4.533789709E+02  0.000000000E+00  0.00000E+00  9.000E+00
      25     1     1     2     0     0  1.593984248E+02  1.495043655E+02  2.463692965E+01  2.529651981E+02  1.250000000E+02  0.00000E+00  9.000E+00
      25     1     1     2     0     0 -3.347516574E+02 -1.050078879E+02  1.700957635E+02  4.094421783E+02  1.250000000E+02  0.00000E+00  9.000E+00
      21     1     1     2   502   512  1.753532326E+02 -4.449647758E+01 -1.822722822E+02  2.568109764E+02  3.814697266E-06  0.00000E+00  9.000E+00
#rwgt            1           1   2.7206464793199912E-002           3       34170           0
</event>
<event>
      5   9999  3.19816E-02  1.64600E+02 -1.00000E+00  1.14817E-01
      21    -1     0     0   502   501  0.000000000E+00  0.000000000E+00  6.563934132E+02  6.563934132E+02  0.000000000E+00  0.00000E+00  9.000E+00
      21    -1     0     0   501   511  0.000000000E+00  0.000000000E+00 -2.291226791E+02  2.291226791E+02  0.000000000E+00  0.00000E+00  9.000E+00
      25     1     1     2     0     0 -1.602709669E+02  2.611587747E+01  2.878055494E+02  3.533070282E+02  1.250000000E+02  0.00000E+00  9.000E+00
      25     1     1     2     0     0  3.146410091E+02 -8.323844106E+01  8.531308780E+01  3.589302518E+02  1.250000000E+02  0.00000E+00  9.000E+00
      21     1     1     2   502   511 -1.543700422E+02  5.712256359E+01  5.415209695E+01  1.732788124E+02  1.348699152E-06  0.00000E+00  9.000E+00
#rwgt            1           1   2.8314097790878918E-002           3       34216           0
</event>
<event>
      5   9999  3.19816E-02  5.34379E+01 -1.00000E+00  1.37448E-01
      21    -1     0     0   512   501  0.000000000E+00  0.000000000E+00  3.469262723E+02  3.469262723E+02  0.000000000E+00  0.00000E+00  9.000E+00
      21    -1     0     0   501   502  0.000000000E+00  0.000000000E+00 -3.288353941E+02  3.288353941E+02  0.000000000E+00  0.00000E+00  9.000E+00
      25     1     1     2     0     0  2.923934458E+02  5.732001391E+01 -6.772835933E+01  3.301388220E+02  1.250000000E+02  0.00000E+00  9.000E+00
      25     1     1     2     0     0 -2.464350061E+02 -3.005407677E+01  5.315059142E+01  2.829901856E+02  1.250000000E+02  0.00000E+00  9.000E+00
      21     1     1     2   512   502 -4.595843968E+01 -2.726593714E+01  3.266864610E+01  6.263265876E+01  4.768371582E-07  0.00000E+00  9.000E+00
#rwgt            1           1   2.8592733603273492E-002           3       34266           0
</event>
<event>
      5   9999  3.19816E-02  3.57099E+01 -1.00000E+00  1.47964E-01
       2    -1     0     0   502     0  0.000000000E+00  0.000000000E+00  8.098923477E+02  8.098923477E+02  0.000000000E+00  0.00000E+00  9.000E+00
      21    -1     0     0   501   502  0.000000000E+00  0.000000000E+00 -7.339116290E+01  7.339116290E+01  0.000000000E+00  0.00000E+00  9.000E+00
      25     1     1     2     0     0  1.117504452E+02 -6.764929188E+01  5.134929868E+02  5.443938245E+02  1.250000000E+02  0.00000E+00  9.000E+00
      25     1     1     2     0     0 -1.385002494E+02  9.130605558E+01  1.456553521E+02  2.536919322E+02  1.250000000E+02  0.00000E+00  9.000E+00
       2     1     1     2   501     0  2.674980424E+01 -2.365676370E+01  7.735284584E+01  8.519775382E+01  9.536743164E-07  0.00000E+00  9.000E+00
#rwgt            1           1   2.9395339282108676E-002           3       34361           0
</event>
<event>
      5   9999  3.19816E-02  1.60431E+02 -1.00000E+00  1.15248E-01
      21    -1     0     0   511   501  0.000000000E+00  0.000000000E+00  2.293264716E+02  2.293264716E+02  0.000000000E+00  0.00000E+00  9.000E+00
      21    -1     0     0   501   502  0.000000000E+00  0.000000000E+00 -2.134987609E+03  2.134987609E+03  0.000000000E+00  0.00000E+00  9.000E+00
      25     1     1     2     0     0  3.093522288E+02 -5.231390341E+02 -7.739767588E+02  9.919870329E+02  1.250000000E+02  0.00000E+00  9.000E+00
      25     1     1     2     0     0 -3.301455623E+02  3.640614170E+02 -1.096494824E+03  1.208082244E+03  1.250000000E+02  0.00000E+00  9.000E+00
      21     1     1     2   511   502  2.079333355E+01  1.590776171E+02 -3.518955458E+01  1.642448043E+02  2.611744678E-06  0.00000E+00  9.000E+00
#rwgt            1           1   2.8712904410213482E-002           3       34456           0
</event>
<event>
      5   9999  3.19816E-02  3.82713E+01 -1.00000E+00  1.46040E-01
      21    -1     0     0   502   501  0.000000000E+00  0.000000000E+00  1.916336548E+02  1.916336548E+02  0.000000000E+00  0.00000E+00  9.000E+00
       2    -1     0     0   501     0  0.000000000E+00  0.000000000E+00 -1.449127366E+03  1.449127366E+03  0.000000000E+00  0.00000E+00  9.000E+00
      25     1     1     2     0     0 -1.453044391E+02  2.988633768E+02 -6.235062474E+02  7.175080060E+02  1.250000000E+02  0.00000E+00  9.000E+00
      25     1     1     2     0     0  1.673598655E+02 -2.675864118E+02 -5.606422598E+01  3.440639618E+02  1.250000000E+02  0.00000E+00  9.000E+00
       2     1     1     2   502     0 -2.205542646E+01 -3.127696500E+01 -5.779232382E+02  5.791890534E+02  7.629394531E-06  0.00000E+00  9.000E+00
#rwgt            1           1   2.7959163001089814E-002           3       34540           0
</event>
<event>
      5   9999  3.19816E-02  3.11019E+01 -1.00000E+00  1.51960E-01
      21    -1     0     0   502   511  0.000000000E+00  0.000000000E+00  2.887541932E+02  2.887541932E+02  0.000000000E+00  0.00000E+00  9.000E+00
      21    -1     0     0   501   502  0.000000000E+00  0.000000000E+00 -8.776291390E+02  8.776291390E+02  0.000000000E+00  0.00000E+00  9.000E+00
      25     1     1     2     0     0 -2.922924575E+02 -1.778898780E+02 -6.156573752E+02  7.153591357E+02  1.250000000E+02  0.00000E+00  9.000E+00
      25     1     1     2     0     0  2.995497790E+02  1.476465366E+02 -5.749329945E+01  3.611925378E+02  1.250000000E+02  0.00000E+00  9.000E+00
      21     1     1     2   501   511 -7.257321463E+00  3.024334135E+01  8.427572885E+01  8.983165858E+01  1.348699152E-06  0.00000E+00  9.000E+00
#rwgt            1           1   2.7923740632595274E-002           3       34685           0
</event>
<event>
      5   9999  3.19816E-02  2.43403E+02 -1.00000E+00  1.08629E-01
      21    -1     0     0   502   512  0.000000000E+00  0.000000000E+00  9.340376303E+02  9.340376303E+02  0.000000000E+00  0.00000E+00  9.000E+00
      21    -1     0     0   501   502  0.000000000E+00  0.000000000E+00 -1.149217812E+03  1.149217812E+03  0.000000000E+00  0.00000E+00  9.000E+00
      25     1     1     2     0     0  7.624496110E+02  4.087025947E+02 -5.449087683E+02  1.030008634E+03  1.250000000E+02  0.00000E+00  9.000E+00
      25     1     1     2     0     0 -7.163088932E+02 -1.697128259E+02  3.118675496E+02  8.091892500E+02  1.250000000E+02  0.00000E+00  9.000E+00
      21     1     1     2   501   512 -4.614071785E+01 -2.389897687E+02  1.786103650E+01  2.440575588E+02  5.293751552E-06  0.00000E+00  9.000E+00
#rwgt            2          11   7.2070269982559970E-003           3       34887           0
</event>
<event>
      5   9999  3.19816E-02  3.88800E+02 -1.00000E+00  1.02058E-01
      21    -1     0     0   502   501  0.000000000E+00  0.000000000E+00  1.283707810E+03  1.283707810E+03  0.000000000E+00  0.00000E+00  9.000E+00
      21    -1     0     0   501   511  0.000000000E+00  0.000000000E+00 -8.867019320E+02  8.867019320E+02  0.000000000E+00  0.00000E+00  9.000E+00
      25     1     1     2     0     0  4.101162433E+02 -4.021777176E+02  1.065988005E+02  5.974366525E+02  1.250000000E+02  0.00000E+00  9.000E+00
      25     1     1     2     0     0 -6.158296905E+02  7.225790064E+01  7.433511540E+02  9.760447480E+02  1.250000000E+02  0.00000E+00  9.000E+00
      21     1     1     2   502   511  2.057134473E+02  3.299198170E+02 -4.529440767E+02  5.969283413E+02  0.000000000E+00  0.00000E+00  9.000E+00
#rwgt            1           1   2.7846604014129358E-002           3       34937           0
</event>
<event>
      5   9999  3.19816E-02  7.99373E+01 -1.00000E+00  1.28366E-01
      21    -1     0     0   502   501  0.000000000E+00  0.000000000E+00  4.897700959E+02  4.897700959E+02  0.000000000E+00  0.00000E+00  9.000E+00
       1    -1     0     0   501     0  0.000000000E+00  0.000000000E+00 -1.747342379E+02  1.747342379E+02  0.000000000E+00  0.00000E+00  9.000E+00
      25     1     1     2     0     0  1.668195181E+01 -2.028929983E+02  2.241565554E+02  3.275897092E+02  1.250000000E+02  0.00000E+00  9.000E+00
      25     1     1     2     0     0 -8.608427272E+01  1.632282004E+02  1.183859930E+02  2.523770805E+02  1.250000000E+02  0.00000E+00  9.000E+00
       1     1     1     2   502     0  6.940232091E+01  3.966479784E+01 -2.750669042E+01  8.453754405E+01  1.907348633E-06  0.00000E+00  9.000E+00
#rwgt            1           1   3.1462598063777630E-002           3       34989           0
</event>
<event>
      5   9999  3.19816E-02  1.05014E+02 -1.00000E+00  1.22880E-01
      21    -1     0     0   502   501  0.000000000E+00  0.000000000E+00  3.346994803E+03  3.346994803E+03  0.000000000E+00  0.00000E+00  9.000E+00
      21    -1     0     0   501   511  0.000000000E+00  0.000000000E+00 -2.637546181E+02  2.637546181E+02  0.000000000E+00  0.00000E+00  9.000E+00
      25     1     1     2     0     0  5.472179867E+01 -4.972496713E+02  2.514762789E+03  2.567081728E+03  1.250000000E+02  0.00000E+00  9.000E+00
      25     1     1     2     0     0 -1.591581042E+02  4.862478656E+02  6.995911351E+02  8.756831877E+02  1.250000000E+02  0.00000E+00  9.000E+00
      21     1     1     2   502   511  1.044363055E+02  1.100180569E+01 -1.311137392E+02  1.679845060E+02  6.325959759E-06  0.00000E+00  9.000E+00
#rwgt            1           1   4.5315210004766869E-002           3       35087           0
</event>
<event>
      5   9999  3.19816E-02  4.09655E+01 -1.00000E+00  1.44201E-01
      21    -1     0     0   502   501  0.000000000E+00  0.000000000E+00  1.209538705E+03  1.209538705E+03  0.000000000E+00  0.00000E+00  9.000E+00
      21    -1     0     0   501   512  0.000000000E+00  0.000000000E+00 -2.270957211E+02  2.270957211E+02  0.000000000E+00  0.00000E+00  9.000E+00
      25     1     1     2     0     0 -3.406444471E+02  3.505913027E+02  5.295839063E+02  7.314622442E+02  1.250000000E+02  0.00000E+00  9.000E+00
      25     1     1     2     0     0  3.207797724E+02 -3.147643671E+02  4.686797294E+02  6.612578604E+02  1.250000000E+02  0.00000E+00  9.000E+00
      21     1     1     2   502   512  1.986467468E+01 -3.582693562E+01 -1.582065174E+01  4.391432156E+01  5.591411304E-07  0.00000E+00  9.000E+00
#rwgt            1           1   2.8974712538150014E-002           3       35174           0
</event>
<event>
      5   9999  3.19816E-02  3.13681E+02 -1.00000E+00  1.04967E-01
      21    -1     0     0   511   501  0.000000000E+00  0.000000000E+00  1.417318860E+03  1.417318860E+03  0.000000000E+00  0.00000E+00  9.000E+00
      21    -1     0     0   501   502  0.000000000E+00  0.000000000E+00 -2.813637860E+02  2.813637860E+02  0.000000000E+00  0.00000E+00  9.000E+00
      25     1     1     2     0     0 -1.032236068E+02  2.527392914E+02  6.031972639E+02  6.737983390E+02  1.250000000E+02  0.00000E+00  9.000E+00
      25     1     1     2     0     0 -4.377185932E+01 -5.298463535E+02  2.426890249E+02  5.976421143E+02  1.250000000E+02  0.00000E+00  9.000E+00
      21     1     1     2   511   502  1.469954661E+02  2.771070621E+02  2.900687848E+02  4.272421923E+02  3.814697266E-06  0.00000E+00  9.000E+00
#rwgt            2          11   3.2616739344210567E-003           3       35393           0
</event>
<event>
      5   9999  3.19816E-02  6.07998E+01 -1.00000E+00  1.34397E-01
      21    -1     0     0   502   501  0.000000000E+00  0.000000000E+00  8.400670282E+01  8.400670282E+01  0.000000000E+00  0.00000E+00  9.000E+00
      21    -1     0     0   512   502  0.000000000E+00  0.000000000E+00 -1.998438037E+03  1.998438037E+03  0.000000000E+00  0.00000E+00  9.000E+00
      25     1     1     2     0     0  3.674314302E+02 -6.546843252E+01 -8.320309542E+02  9.204305951E+02  1.250000000E+02  0.00000E+00  9.000E+00
      25     1     1     2     0     0 -3.066434938E+02  6.426937178E+01 -7.269337560E+02  8.013853443E+02  1.250000000E+02  0.00000E+00  9.000E+00
      21     1     1     2   512   501 -6.078793638E+01  1.199060735E+00 -3.554666242E+02  3.606288006E+02  3.814697266E-06  0.00000E+00  9.000E+00
#rwgt            1           1   3.1433268579686667E-002           3       35413           0
</event>
<event>
      5   9999  3.19816E-02  1.32973E+02 -1.00000E+00  1.18506E-01
      21    -1     0     0   502   501  0.000000000E+00  0.000000000E+00  2.960013054E+02  2.960013054E+02  0.000000000E+00  0.00000E+00  9.000E+00
      21    -1     0     0   511   502  0.000000000E+00  0.000000000E+00 -4.150122136E+03  4.150122136E+03  0.000000000E+00  0.00000E+00  9.000E+00
      25     1     1     2     0     0  1.924994985E+01  5.001061407E+02 -3.847688855E+02  6.435439439E+02  1.250000000E+02  0.00000E+00  9.000E+00
      25     1     1     2     0     0 -1.482015176E+02 -4.676525646E+02 -2.224673675E+02  5.529731825E+02  1.250000000E+02  0.00000E+00  9.000E+00
      21     1     1     2   511   501  1.289515677E+02 -3.245357614E+01 -3.246884577E+03  3.249606315E+03  0.000000000E+00  0.00000E+00  9.000E+00
#rwgt            1           1   3.1755302909139575E-002           3       35491           0
</event>
<event>
      5   9999  3.19816E-02  5.95540E+01 -1.00000E+00  1.34877E-01
      21    -1     0     0   502   512  0.000000000E+00  0.000000000E+00  1.026325169E+03  1.026325169E+03  0.000000000E+00  0.00000E+00  9.000E+00
      21    -1     0     0   501   502  0.000000000E+00  0.000000000E+00 -4.402772603E+02  4.402772603E+02  0.000000000E+00  0.00000E+00  9.000E+00
      25     1     1     2     0     0 -1.271320319E+02  2.404238369E+02  1.513606021E+02  3.354119956E+02  1.250000000E+02  0.00000E+00  9.000E+00
      25     1     1     2     0     0  6.881990978E+01 -2.283252987E+02 -2.948150429E+02  3.992612322E+02  1.250000000E+02  0.00000E+00  9.000E+00
      21     1     1     2   501   512  5.831212211E+01 -1.209853821E+01  7.295023495E+02  7.319292016E+02  1.078959322E-05  0.00000E+00  9.000E+00
#rwgt            1           1   2.8529894137215257E-002           3       35581           0
</event>
<event>
      5   9999  3.19816E-02  3.12598E+01 -1.00000E+00  1.51809E-01
      21    -1     0     0   502   501  0.000000000E+00  0.000000000E+00  9.694318387E+02  9.694318387E+02  0.000000000E+00  0.00000E+00  9.000E+00
      21    -1     0     0   511   502  0.000000000E+00  0.000000000E+00 -2.819188368E+02  2.819188368E+02  0.000000000E+00  0.00000E+00  9.000E+00
      25     1     1     2     0     0 -5.108573796E+01  4.667407920E+02  4.264705780E+02  6.464973886E+02  1.250000000E+02  0.00000E+00  9.000E+00
      25     1     1     2     0     0  7.781732486E+01 -4.829456379E+02  2.697068986E+02  5.724149162E+02  1.250000000E+02  0.00000E+00  9.000E+00
      21     1     1     2   511   501 -2.673158690E+01  1.620484591E+01 -8.664474689E+00  3.243837066E+01  1.192092896E-07  0.00000E+00  9.000E+00
#rwgt            1           1   2.4417407229921268E-002           3       35669           0
</event>
<event>
      5   9999  3.19816E-02  2.58642E+01 -1.00000E+00  1.57653E-01
       2    -1     0     0   502     0  0.000000000E+00  0.000000000E+00  1.462815354E+03  1.462815354E+03  0.000000000E+00  0.00000E+00  9.000E+00
      21    -1     0     0   501   502  0.000000000E+00  0.000000000E+00 -9.403689408E+02  9.403689408E+02  0.000000000E+00  0.00000E+00  9.000E+00
      25     1     1     2     0     0 -7.881109313E+01 -8.289841705E+02 -2.582070032E+02  8.807507025E+02  1.250000000E+02  0.00000E+00  9.000E+00
      25     1     1     2     0     0  9.820723618E+01  8.118743094E+02  9.098312738E+01  8.322784900E+02  1.250000000E+02  0.00000E+00  9.000E+00
       2     1     1     2   501     0 -1.939614305E+01  1.710986113E+01  6.896702891E+02  6.901551024E+02  7.629394531E-06  0.00000E+00  9.000E+00
#rwgt            1           1   2.8971776275248703E-002           3       35820           0
</event>
<event>
      5   9999  3.19816E-02  1.17908E+02 -1.00000E+00  1.20693E-01
      21    -1     0     0   511   501  0.000000000E+00  0.000000000E+00  1.560841450E+02  1.560841450E+02  0.000000000E+00  0.00000E+00  9.000E+00
      21    -1     0     0   501   502  0.000000000E+00  0.000000000E+00 -1.636446216E+03  1.636446216E+03  0.000000000E+00  0.00000E+00  9.000E+00
      25     1     1     2     0     0  1.281124406E+02  2.780090026E+02 -1.265003189E+03  1.307501385E+03  1.250000000E+02  0.00000E+00  9.000E+00
      25     1     1     2     0     0 -1.829445666E+01 -2.350858185E+02 -2.462609042E+02  3.631383512E+02  1.250000000E+02  0.00000E+00  9.000E+00
      21     1     1     2   511   502 -1.098179840E+02 -4.292318417E+01  3.090202277E+01  1.218906246E+02  3.144957056E-06  0.00000E+00  9.000E+00
#rwgt            1           1   3.3906280599657709E-002           3       36075           0
</event>
<event>
      5   9999  3.19816E-02  2.30934E+02 -1.00000E+00  1.09421E-01
      21    -1     0     0   502   501  0.000000000E+00  0.000000000E+00  5.039648355E+02  5.039648355E+02  0.000000000E+00  0.00000E+00  9.000E+00
      21    -1     0     0   501   512  0.000000000E+00  0.000000000E+00 -7.403314882E+02  7.403314882E+02  0.000000000E+00  0.00000E+00  9.000E+00
      25     1     1     2     0     0  2.560597412E+02  4.745261280E+02 -1.149334488E+02  5.653108303E+02  1.250000000E+02  0.00000E+00  9.000E+00
      25     1     1     2     0     0 -1.465434025E+02 -2.712115777E+02  1.116358719E+02  3.508821121E+02  1.250000000E+02  0.00000E+00  9.000E+00
      21     1     1     2   502   512 -1.095163387E+02 -2.033145503E+02 -2.330690758E+02  3.281033814E+02  3.814697266E-06  0.00000E+00  9.000E+00
#rwgt            1           1   3.4186539618277417E-002           3       36138           0
</event>
<event>
      5   9999  3.19816E-02  9.95841E+01 -1.00000E+00  1.23909E-01
       2    -1     0     0   502     0  0.000000000E+00  0.000000000E+00  1.846933459E+03  1.846933459E+03  0.000000000E+00  0.00000E+00  9.000E+00
      21    -1     0     0   501   502  0.000000000E+00  0.000000000E+00 -7.594371439E+01  7.594371439E+01  0.000000000E+00  0.00000E+00  9.000E+00
      25     1     1     2     0     0 -1.023350064E+02  1.694471035E+02  3.861545747E+02  4.515807015E+02  1.250000000E+02  0.00000E+00  9.000E+00
      25     1     1     2     0     0  3.093848513E+00 -1.611891138E+02  2.118932994E+02  2.941347865E+02  1.250000000E+02  0.00000E+00  9.000E+00
       2     1     1     2   501     0  9.924115793E+01 -8.257989758E+00  1.172941870E+03  1.177161685E+03  2.157918644E-05  0.00000E+00  9.000E+00
#rwgt            1           1   2.6894444494218132E-002           3       36180           0
</event>
<event>
      5   9999  3.19816E-02  8.09198E+01 -1.00000E+00  1.28110E-01
       2    -1     0     0   502     0  0.000000000E+00  0.000000000E+00  4.259843173E+02  4.259843173E+02  0.000000000E+00  0.00000E+00  9.000E+00
      21    -1     0     0   501   502  0.000000000E+00  0.000000000E+00 -3.041824537E+02  3.041824537E+02  0.000000000E+00  0.00000E+00  9.000E+00
      25     1     1     2     0     0 -2.261216226E+02 -4.916574363E+01  8.602130997E+01  2.767181316E+02  1.250000000E+02  0.00000E+00  9.000E+00
      25     1     1     2     0     0  1.453228988E+02  4.474022722E+01 -1.521825850E+02  2.488070980E+02  1.250000000E+02  0.00000E+00  9.000E+00
       2     1     1     2   501     0  8.079872387E+01  4.425516407E+00  1.879631387E+02  2.046415414E+02  2.697398305E-06  0.00000E+00  9.000E+00
#rwgt            1           1   2.9878690340119779E-002           3       36248           0
</event>
<event>
      5   9999  3.19816E-02  3.99171E+01 -1.00000E+00  1.44896E-01
      21    -1     0     0   502   501  0.000000000E+00  0.000000000E+00  1.079854139E+02  1.079854139E+02  0.000000000E+00  0.00000E+00  9.000E+00
      21    -1     0     0   501   511  0.000000000E+00  0.000000000E+00 -1.779186362E+03  1.779186362E+03  0.000000000E+00  0.00000E+00  9.000E+00
      25     1     1     2     0     0  6.218539584E+01 -2.157726807E+02 -1.093360347E+03  1.123159259E+03  1.250000000E+02  0.00000E+00  9.000E+00
      25     1     1     2     0     0 -6.005400526E+01  2.556327999E+02 -1.371938150E+02  3.215614324E+02  1.250000000E+02  0.00000E+00  9.000E+00
      21     1     1     2   502   511 -2.131390572E+00 -3.986011918E+01 -4.406467861E+02  4.424510844E+02  0.000000000E+00  0.00000E+00  9.000E+00
#rwgt            1           1   2.6866863776778341E-002           3       36309           0
</event>
<event>
      5   9999  3.19816E-02  1.05019E+01 -1.00000E+00  1.93330E-01
      21    -1     0     0   502   501  0.000000000E+00  0.000000000E+00  6.843930445E+02  6.843930445E+02  0.000000000E+00  0.00000E+00  9.000E+00
      21    -1     0     0   501   512  0.000000000E+00  0.000000000E+00 -2.475286393E+02  2.475286393E+02  0.000000000E+00  0.00000E+00  9.000E+00
      25     1     1     2     0     0 -1.257211737E+02 -2.337193897E+02 -8.570120778E+01  3.056145671E+02  1.250000000E+02  0.00000E+00  9.000E+00
      25     1     1     2     0     0  1.307347847E+02  2.244915661E+02  5.363841986E+02  6.089507826E+02  1.250000000E+02  0.00000E+00  9.000E+00
      21     1     1     2   502   512 -5.013610988E+00  9.227823600E+00 -1.381858558E+01  1.735633403E+01  2.384185791E-07  0.00000E+00  9.000E+00
#rwgt            1           1   3.1679938267149856E-002           3       36402           0
</event>
<event>
      5   9999  3.19816E-02  4.93294E+01 -1.00000E+00  1.39411E-01
      21    -1     0     0   502   511  0.000000000E+00  0.000000000E+00  1.062371006E+03  1.062371006E+03  0.000000000E+00  0.00000E+00  9.000E+00
      21    -1     0     0   501   502  0.000000000E+00  0.000000000E+00 -9.659780651E+01  9.659780651E+01  0.000000000E+00  0.00000E+00  9.000E+00
      25     1     1     2     0     0  3.027252824E+01  1.969759025E+02  6.030452943E+02  6.473056149E+02  1.250000000E+02  0.00000E+00  9.000E+00
      25     1     1     2     0     0 -7.516276263E+01 -1.765245969E+02  1.097669530E+02  2.539373115E+02  1.250000000E+02  0.00000E+00  9.000E+00
      21     1     1     2   501   511  4.489023439E+01 -2.045130557E+01  2.529609517E+02  2.577258857E+02  0.000000000E+00  0.00000E+00  9.000E+00
#rwgt            1           1   3.0566495600551930E-002           3       36592           0
</event>
<event>
      5   9999  3.19816E-02  8.70405E+01 -1.00000E+00  1.26601E-01
      21    -1     0     0   502   512  0.000000000E+00  0.000000000E+00  5.074757345E+02  5.074757345E+02  0.000000000E+00  0.00000E+00  9.000E+00
      21    -1     0     0   501   502  0.000000000E+00  0.000000000E+00 -1.109156218E+03  1.109156218E+03  0.000000000E+00  0.00000E+00  9.000E+00
      25     1     1     2     0     0 -5.127634621E+02  3.431006530E+02 -2.139648230E+02  6.648686875E+02  1.250000000E+02  0.00000E+00  9.000E+00
      25     1     1     2     0     0  4.506922797E+02 -4.041188019E+02 -5.102175396E+02  8.014876635E+02  1.250000000E+02  0.00000E+00  9.000E+00
      21     1     1     2   501   512  6.207118240E+01  6.101814887E+01  1.225018787E+02  1.502756017E+02  1.348699152E-06  0.00000E+00  9.000E+00
#rwgt            2          11   4.0123366585677386E-003           3       36729           0
</event>
<event>
      5   9999  3.19816E-02  1.29635E+01 -1.00000E+00  1.83569E-01
      21    -1     0     0   502   501  0.000000000E+00  0.000000000E+00  1.652810648E+02  1.652810648E+02  0.000000000E+00  0.00000E+00  9.000E+00
      21    -1     0     0   501   511  0.000000000E+00  0.000000000E+00 -2.519784261E+02  2.519784261E+02  0.000000000E+00  0.00000E+00  9.000E+00
      25     1     1     2     0     0 -3.196350008E+01 -1.316312066E+02 -1.091229511E+02  2.141991091E+02  1.250000000E+02  0.00000E+00  9.000E+00
      25     1     1     2     0     0  4.488540856E+01  1.305938786E+02  2.902730858E+01  1.885127202E+02  1.250000000E+02  0.00000E+00  9.000E+00
      21     1     1     2   502   511 -1.292190848E+01  1.037328074E+00 -6.601718741E+00  1.454766162E+01  1.685873940E-07  0.00000E+00  9.000E+00
#rwgt            1           1   3.4388050718466172E-002           3       36749           0
</event>
<event>
      5   9999  3.19816E-02  2.33984E+02 -1.00000E+00  1.09222E-01
       1    -1     0     0   502     0  0.000000000E+00  0.000000000E+00  1.531458285E+03  1.531458285E+03  0.000000000E+00  0.00000E+00  9.000E+00
      21    -1     0     0   501   502  0.000000000E+00  0.000000000E+00 -1.780789441E+02  1.780789441E+02  0.000000000E+00  0.00000E+00  9.000E+00
      25     1     1     2     0     0 -9.833541327E+01 -5.351623540E+01  5.827327835E+01  1.776361898E+02  1.250000000E+02  0.00000E+00  9.000E+00
      25     1     1     2     0     0  2.760405362E+02  2.057312906E+02  2.107108011E+02  4.225491490E+02  1.250000000E+02  0.00000E+00  9.000E+00
       1     1     1     2   501     0 -1.777051230E+02 -1.522150552E+02  1.084395261E+03  1.109351890E+03  2.157918644E-05  0.00000E+00  9.000E+00
#rwgt            1           1   2.6140258117701688E-002           3       36974           0
</event>
<event>
      5   9999  3.19816E-02  1.04837E+02 -1.00000E+00  1.22912E-01
      21    -1     0     0   502   501  0.000000000E+00  0.000000000E+00  2.591681857E+02  2.591681857E+02  0.000000000E+00  0.00000E+00  9.000E+00
      21    -1     0     0   501   511  0.000000000E+00  0.000000000E+00 -4.989420790E+02  4.989420790E+02  0.000000000E+00  0.00000E+00  9.000E+00
      25     1     1     2     0     0  2.416081441E+01 -7.163711737E+01  1.786184743E+02  2.307491731E+02  1.250000000E+02  0.00000E+00  9.000E+00
      25     1     1     2     0     0 -1.258899702E+02  9.697335798E+01 -3.432763368E+02  3.983914660E+02  1.250000000E+02  0.00000E+00  9.000E+00
      21     1     1     2   502   511  1.017291558E+02 -2.533624061E+01 -7.511603076E+01  1.289696255E+02  2.523185073E-06  0.00000E+00  9.000E+00
#rwgt            1           1   2.7655575388109969E-002           3       37033           0
</event>
<event>
      5   9999  3.19816E-02  3.58292E+02 -1.00000E+00  1.03145E-01
      21    -1     0     0   512   501  0.000000000E+00  0.000000000E+00  1.542322370E+03  1.542322370E+03  0.000000000E+00  0.00000E+00  9.000E+00
      21    -1     0     0   501   502  0.000000000E+00  0.000000000E+00 -2.456077981E+02  2.456077981E+02  0.000000000E+00  0.00000E+00  9.000E+00
      25     1     1     2     0     0 -1.597744283E+02  4.317570099E+02  2.530785219E+02  5.400145570E+02  1.250000000E+02  0.00000E+00  9.000E+00
      25     1     1     2     0     0 -1.417747850E+02 -2.382591075E+02  6.374858939E+02  7.063149134E+02  1.250000000E+02  0.00000E+00  9.000E+00
      21     1     1     2   512   502  3.015492133E+02 -1.934979024E+02  4.061501556E+02  5.416006972E+02  9.344061824E-06  0.00000E+00  9.000E+00
#rwgt            2          11   2.3627243662992445E-003           3       37191           0
</event>
<event>
      5   9999  3.19816E-02  2.32790E+02 -1.00000E+00  1.09299E-01
      21    -1     0     0   502   501  0.000000000E+00  0.000000000E+00  3.001371564E+02  3.001371564E+02  0.000000000E+00  0.00000E+00  9.000E+00
      21    -1     0     0   511   502  0.000000000E+00  0.000000000E+00 -8.086865162E+02  8.086865162E+02  0.000000000E+00  0.00000E+00  9.000E+00
      25     1     1     2     0     0  1.431072363E+02  7.897912840E+01  1.129648469E+02  2.347412202E+02  1.250000000E+02  0.00000E+00  9.000E+00
      25     1     1     2     0     0 -3.571146818E+02  1.262808128E+01 -3.405006397E+02  5.091719258E+02  1.250000000E+02  0.00000E+00  9.000E+00
      21     1     1     2   511   501  2.140074455E+02 -9.160720968E+01 -2.810135670E+02  3.649105266E+02  7.629394531E-06  0.00000E+00  9.000E+00
#rwgt            2          11   2.9956440131944564E-003           3       37241           0
</event>
<event>
      5   9999  3.19816E-02  1.77825E+02 -1.00000E+00  1.13538E-01
      21    -1     0     0   502   501  0.000000000E+00  0.000000000E+00  4.356991487E+02  4.356991487E+02  0.000000000E+00  0.00000E+00  9.000E+00
       2    -1     0     0   501     0  0.000000000E+00  0.000000000E+00 -2.316033374E+03  2.316033374E+03  0.000000000E+00  0.00000E+00  9.000E+00
      25     1     1     2     0     0  1.785275752E+02  3.696977961E+01 -2.598975692E+02  3.411899854E+02  1.250000000E+02  0.00000E+00  9.000E+00
      25     1     1     2     0     0 -2.899247057E+02  1.016388310E+02  3.206467291E+02  4.613308052E+02  1.250000000E+02  0.00000E+00  9.000E+00
       2     1     1     2   502     0  1.113971306E+02 -1.386086107E+02 -1.941083385E+03  1.949211732E+03  2.157918644E-05  0.00000E+00  9.000E+00
#rwgt            1           1   2.8344866916114698E-002           3       37261           0
</event>
<event>
      5   9999  3.19816E-02  2.94632E+01 -1.00000E+00  1.53586E-01
      21    -1     0     0   502   511  0.000000000E+00  0.000000000E+00  2.610410325E+02  2.610410325E+02  0.000000000E+00  0.00000E+00  9.000E+00
      21    -1     0     0   501   502  0.000000000E+00  0.000000000E+00 -8.445625953E+02  8.445625953E+02  0.000000000E+00  0.00000E+00  9.000E+00
      25     1     1     2     0     0 -1.487790466E+02 -2.036482179E+02  1.772931512E+01  2.820410076E+02  1.250000000E+02  0.00000E+00  9.000E+00
      25     1     1     2     0     0  1.754404244E+02  1.911082765E+02 -6.805489487E+02  7.389679204E+02  1.250000000E+02  0.00000E+00  9.000E+00
      21     1     1     2   501   511 -2.666137781E+01  1.253994135E+01  7.929807079E+01  8.459469976E+01  1.348699152E-06  0.00000E+00  9.000E+00
#rwgt            1           1   2.7429960709942833E-002           3       37298           0
</event>
<event>
      5   9999  3.19816E-02  8.55575E+01 -1.00000E+00  1.26953E-01
       2    -1     0     0   502     0  0.000000000E+00  0.000000000E+00  2.615181391E+03  2.615181391E+03  0.000000000E+00  0.00000E+00  9.000E+00
      21    -1     0     0   501   502  0.000000000E+00  0.000000000E+00 -1.316019178E+03  1.316019178E+03  0.000000000E+00  0.00000E+00  9.000E+00
      25     1     1     2     0     0 -3.237564326E+02  1.347058215E+03 -6.369349295E+02  1.529933060E+03  1.250000000E+02  0.00000E+00  9.000E+00
      25     1     1     2     0     0  3.029263041E+02 -1.264075176E+03  1.659177336E+03  2.111431938E+03  1.250000000E+02  0.00000E+00  9.000E+00
       2     1     1     2   501     0  2.083012857E+01 -8.298303913E+01  2.769198069E+02  2.898355715E+02  3.814697266E-06  0.00000E+00  9.000E+00
#rwgt            1           1   2.2117280789792724E-002           3       37480           0
</event>
<event>
      5   9999  3.19816E-02  4.35051E+01 -1.00000E+00  1.42613E-01
      21    -1     0     0   502   501  0.000000000E+00  0.000000000E+00  4.973532502E+02  4.973532502E+02  0.000000000E+00  0.00000E+00  9.000E+00
      21    -1     0     0   501   511  0.000000000E+00  0.000000000E+00 -7.599180260E+02  7.599180260E+02  0.000000000E+00  0.00000E+00  9.000E+00
      25     1     1     2     0     0 -2.382439218E+02  3.773555471E+02 -1.800078279E+02  4.971772252E+02  1.250000000E+02  0.00000E+00  9.000E+00
      25     1     1     2     0     0  2.728067290E+02 -4.037772998E+02  1.488491868E+02  5.246338720E+02  1.250000000E+02  0.00000E+00  9.000E+00
      21     1     1     2   502   511 -3.456280724E+01  2.642175272E+01 -2.314061347E+02  2.354601789E+02  2.697398305E-06  0.00000E+00  9.000E+00
#rwgt            1           1   3.1026104489644796E-002           3       37623           0
</event>
<event>
      5   9999  3.19816E-02  1.22626E+02 -1.00000E+00  1.19971E-01
      21    -1     0     0   502   501  0.000000000E+00  0.000000000E+00  5.153507852E+02  5.153507852E+02  0.000000000E+00  0.00000E+00  9.000E+00
      -5    -1     0     0     0   502  0.000000000E+00  0.000000000E+00 -1.713488513E+03  1.713488513E+03  0.000000000E+00  0.00000E+00  9.000E+00
      25     1     1     2     0     0  2.620096752E+02  1.000489423E+02  9.238553458E+01  3.206539377E+02  1.250000000E+02  0.00000E+00  9.000E+00
      25     1     1     2     0     0 -1.573253698E+02 -1.639103674E+02  2.515312565E+02  3.612628593E+02  1.250000000E+02  0.00000E+00  9.000E+00
      -5     1     1     2     0   501 -1.046843054E+02  6.386142511E+01 -1.542054519E+03  1.546922501E+03  2.157918644E-05  0.00000E+00  9.000E+00
#rwgt            2           6   7.6467319604175060E-005           3       37846           0
</event>
<event>
      5   9999  3.19816E-02  7.01473E+01 -1.00000E+00  1.31174E-01
       1    -1     0     0   502     0  0.000000000E+00  0.000000000E+00  1.152849575E+03  1.152849575E+03  0.000000000E+00  0.00000E+00  9.000E+00
      21    -1     0     0   501   502  0.000000000E+00  0.000000000E+00 -6.455762801E+02  6.455762801E+02  0.000000000E+00  0.00000E+00  9.000E+00
      25     1     1     2     0     0 -4.206456941E+02 -9.904068694E+01 -4.511697410E+02  6.371271403E+02  1.250000000E+02  0.00000E+00  9.000E+00
      25     1     1     2     0     0  4.004069751E+02  3.187645092E+01  3.455383101E+02  5.443928522E+02  1.250000000E+02  0.00000E+00  9.000E+00
       1     1     1     2   501     0  2.023871909E+01  6.716423602E+01  6.129047262E+02  6.169058629E+02  7.629394531E-06  0.00000E+00  9.000E+00
#rwgt            1           1   2.7065865707500077E-002           3       37865           0
</event>
<event>
      5   9999  3.19816E-02  7.55171E+01 -1.00000E+00  1.29574E-01
      21    -1     0     0   502   511  0.000000000E+00  0.000000000E+00  2.690199680E+01  2.690199680E+01  0.000000000E+00  0.00000E+00  9.000E+00
      21    -1     0     0   501   502  0.000000000E+00  0.000000000E+00 -1.885130818E+03  1.885130818E+03  0.000000000E+00  0.00000E+00  9.000E+00
      25     1     1     2     0     0 -1.088436270E+02  6.624681139E+01 -8.631915725E+02  8.814534962E+02  1.250000000E+02  0.00000E+00  9.000E+00
      25     1     1     2     0     0  3.450307710E+01 -7.952502201E+01 -8.794554312E+02  8.925141718E+02  1.250000000E+02  0.00000E+00  9.000E+00
      21     1     1     2   501   511  7.434054987E+01  1.327821062E+01 -1.155818179E+02  1.380651472E+02  2.697398305E-06  0.00000E+00  9.000E+00
#rwgt            1           1   8.4391391286925937E-002           3       37940           0
</event>
<event>
      5   9999  3.19816E-02  2.81895E+01 -1.00000E+00  1.54942E-01
      21    -1     0     0   502   501  0.000000000E+00  0.000000000E+00  1.372575812E+02  1.372575812E+02  0.000000000E+00  0.00000E+00  9.000E+00
      21    -1     0     0   501   512  0.000000000E+00  0.000000000E+00 -5.824780846E+02  5.824780846E+02  0.000000000E+00  0.00000E+00  9.000E+00
      25     1     1     2     0     0 -1.634498361E+02  1.415118032E+02 -1.266602562E+02  2.800165350E+02  1.250000000E+02  0.00000E+00  9.000E+00
      25     1     1     2     0     0  1.829476130E+02 -1.618707027E+02 -2.809956684E+02  3.927537640E+02  1.250000000E+02  0.00000E+00  9.000E+00
      21     1     1     2   502   512 -1.949777682E+01  2.035889948E+01 -3.756457889E+01  4.696536677E+01  9.536743164E-07  0.00000E+00  9.000E+00
#rwgt            1           1   2.8606180638929331E-002           3       38047           0
</event>
<event>
      5   9999  3.19816E-02  1.42352E+01 -1.00000E+00  1.79552E-01
      21    -1     0     0   502   511  0.000000000E+00  0.000000000E+00  1.004142549E+02  1.004142549E+02  0.000000000E+00  0.00000E+00  9.000E+00
      21    -1     0     0   501   502  0.000000000E+00  0.000000000E+00 -3.021987551E+02  3.021987551E+02  0.000000000E+00  0.00000E+00  9.000E+00
      25     1     1     2     0     0 -3.241353738E+01 -1.742620125E+01  1.672257412E+01  1.313733397E+02  1.250000000E+02  0.00000E+00  9.000E+00
      25     1     1     2     0     0  2.216861040E+01  7.542720900E+00 -2.226528705E+02  2.564130275E+02  1.250000000E+02  0.00000E+00  9.000E+00
      21     1     1     2   501   511  1.024492697E+01  9.883480346E+00  4.145796125E+00  1.482664284E+01  1.685873940E-07  0.00000E+00  9.000E+00
#rwgt            1           1   2.6838180793412464E-002           3       38209           0
</event>
<event>
      5   9999  3.19816E-02  1.59638E+02 -1.00000E+00  1.15332E-01
      21    -1     0     0   502   501  0.000000000E+00  0.000000000E+00  8.056599221E+02  8.056599221E+02  0.000000000E+00  0.00000E+00  9.000E+00
       1    -1     0     0   501     0  0.000000000E+00  0.000000000E+00 -3.637132953E+02  3.637132953E+02  0.000000000E+00  0.00000E+00  9.000E+00
      25     1     1     2     0     0 -2.678324644E+02 -3.362710876E+02  5.350466075E+02  6.976477231E+02  1.250000000E+02  0.00000E+00  9.000E+00
      25     1     1     2     0     0  1.954044642E+02  1.940095189E+02 -7.031202776E+01  3.104696109E+02  1.250000000E+02  0.00000E+00  9.000E+00
       1     1     1     2   502     0  7.242800018E+01  1.422615687E+02 -2.278795295E+01  1.612558834E+02  1.011524364E-06  0.00000E+00  9.000E+00
#rwgt            1           1   3.1661994351709605E-002           3       38388           0
</event>
<event>
      5   9999  3.19816E-02  1.20216E+02 -1.00000E+00  1.20335E-01
       2    -1     0     0   502     0  0.000000000E+00  0.000000000E+00  1.135458935E+03  1.135458935E+03  0.000000000E+00  0.00000E+00  9.000E+00
      21    -1     0     0   501   502  0.000000000E+00  0.000000000E+00 -1.216692843E+03  1.216692843E+03  0.000000000E+00  0.00000E+00  9.000E+00
      25     1     1     2     0     0  3.688540144E+02 -2.805594874E+02 -1.094574761E+03  1.195192795E+03  1.250000000E+02  0.00000E+00  9.000E+00
      25     1     1     2     0     0 -2.593238771E+02  3.301078376E+02  7.870404143E+02  9.007095378E+02  1.250000000E+02  0.00000E+00  9.000E+00
       2     1     1     2   501     0 -1.095301373E+02 -4.954835024E+01  2.263004388E+02  2.562494460E+02  4.672030912E-06  0.00000E+00  9.000E+00
#rwgt            1           1   2.9016071212461043E-002           3       38463           0
</event>
<event>
      5   9999  3.19816E-02  3.72840E+02 -1.00000E+00  1.02613E-01
       2    -1     0     0   502     0  0.000000000E+00  0.000000000E+00  2.442906419E+03  2.442906419E+03  0.000000000E+00  0.00000E+00  9.000E+00
      21    -1     0     0   501   502  0.000000000E+00  0.000000000E+00 -9.539307132E+02  9.539307132E+02  0.000000000E+00  0.00000E+00  9.000E+00
      25     1     1     2     0     0 -6.035490924E+01  1.152986820E+02 -5.478882930E+02  5.768388707E+02  1.250000000E+02  0.00000E+00  9.000E+00
      25     1     1     2     0     0 -2.531680547E+02 -3.170733479E+02 -2.568283120E+02  4.962009207E+02  1.250000000E+02  0.00000E+00  9.000E+00
       2     1     1     2   501     0  3.135229639E+02  2.017746659E+02  2.293692311E+03  2.323797341E+03  4.315837288E-05  0.00000E+00  9.000E+00
#rwgt            2          18   3.7994764575825381E-002           3       38560           0
</event>
<event>
      5   9999  3.19816E-02  4.66556E+01 -1.00000E+00  1.40813E-01
       2    -1     0     0   502     0  0.000000000E+00  0.000000000E+00  1.474251936E+03  1.474251936E+03  0.000000000E+00  0.00000E+00  9.000E+00
      21    -1     0     0   501   502  0.000000000E+00  0.000000000E+00 -1.118475158E+03  1.118475158E+03  0.000000000E+00  0.00000E+00  9.000E+00
      25     1     1     2     0     0 -6.631983297E+02  1.041518795E+02  3.209512110E+02  7.545292031E+02  1.250000000E+02  0.00000E+00  9.000E+00
      25     1     1     2     0     0  7.060220497E+02 -8.563497846E+01 -7.563190802E+02  1.045678744E+03  1.250000000E+02  0.00000E+00  9.000E+00
       2     1     1     2   501     0 -4.282372008E+01 -1.851690104E+01  7.911446472E+02  7.925191476E+02  1.078959322E-05  0.00000E+00  9.000E+00
#rwgt            1           1   2.8591823803286134E-002           3       38669           0
</event>
<event>
      5   9999  3.19816E-02  5.41085E+01 -1.00000E+00  1.37147E-01
       1    -1     0     0   502     0  0.000000000E+00  0.000000000E+00  3.763341225E+03  3.763341225E+03  0.000000000E+00  0.00000E+00  9.000E+00
      21    -1     0     0   501   502  0.000000000E+00  0.000000000E+00 -2.377121238E+02  2.377121238E+02  0.000000000E+00  0.00000E+00  9.000E+00
      25     1     1     2     0     0 -7.074182305E+02 -6.923148646E+01  6.841937744E+02  9.944745711E+02  1.250000000E+02  0.00000E+00  9.000E+00
      25     1     1     2     0     0  6.545064826E+02  5.791460164E+01  1.280080283E+03  1.444286456E+03  1.250000000E+02  0.00000E+00  9.000E+00
       1     1     1     2   501     0  5.291174785E+01  1.131688482E+01  1.561355044E+03  1.562292322E+03  0.000000000E+00  0.00000E+00  9.000E+00
#rwgt            1           1   2.5486127052743571E-002           3       38883           0
</event>
<event>
      5   9999  3.19816E-02  4.07833E+01 -1.00000E+00  1.44320E-01
      21    -1     0     0   502   511  0.000000000E+00  0.000000000E+00  1.666091773E+02  1.666091773E+02  0.000000000E+00  0.00000E+00  9.000E+00
      21    -1     0     0   501   502  0.000000000E+00  0.000000000E+00 -6.824847320E+02  6.824847320E+02  0.000000000E+00  0.00000E+00  9.000E+00
      25     1     1     2     0     0  7.711153556E+01 -1.376008288E+02  4.340407045E+01  2.058861101E+02  1.250000000E+02  0.00000E+00  9.000E+00
      25     1     1     2     0     0 -8.620854868E+01  9.784505713E+01 -5.725102913E+02  6.003320771E+02  1.250000000E+02  0.00000E+00  9.000E+00
      21     1     1     2   501   511  9.097013119E+00  3.975577164E+01  1.323066617E+01  4.287572219E+01  8.085167388E-07  0.00000E+00  9.000E+00
#rwgt            1           1   2.8707916177175087E-002           3       39026           0
</event>
<event>
      5   9999  3.19816E-02  9.41207E+01 -1.00000E+00  1.25023E-01
      21    -1     0     0   502   501  0.000000000E+00  0.000000000E+00  1.007830042E+02  1.007830042E+02  0.000000000E+00  0.00000E+00  9.000E+00
      21    -1     0     0   512   502  0.000000000E+00  0.000000000E+00 -1.420064606E+03  1.420064606E+03  0.000000000E+00  0.00000E+00  9.000E+00
      25     1     1     2     0     0 -1.246727302E+02  3.505211483E+01 -8.092487400E+02  8.290238016E+02  1.250000000E+02  0.00000E+00  9.000E+00
      25     1     1     2     0     0  2.140617251E+02 -6.451914138E+01 -1.064035160E+02  2.773659135E+02  1.250000000E+02  0.00000E+00  9.000E+00
      21     1     1     2   512   501 -8.938899491E+01  2.946702655E+01 -4.036293463E+02  4.144578956E+02  0.000000000E+00  0.00000E+00  9.000E+00
#rwgt            1           1   2.7902714895246383E-002           3       39130           0
</event>
<event>
      5   9999  3.19816E-02  1.67200E+02 -1.00000E+00  1.14555E-01
       2    -1     0     0   502     0  0.000000000E+00  0.000000000E+00  1.287518433E+03  1.287518433E+03  0.000000000E+00  0.00000E+00  9.000E+00
      21    -1     0     0   501   502  0.000000000E+00  0.000000000E+00 -2.672397948E+02  2.672397948E+02  0.000000000E+00  0.00000E+00  9.000E+00
      25     1     1     2     0     0  5.532091859E+01 -1.204043083E+01  5.266096857E+01  1.469814737E+02  1.250000000E+02  0.00000E+00  9.000E+00
      25     1     1     2     0     0  1.093775474E+02 -1.677142969E+01  1.149013733E+03  1.161078071E+03  1.250000000E+02  0.00000E+00  9.000E+00
       2     1     1     2   501     0 -1.646984659E+02  2.881186052E+01 -1.813960638E+02  2.466986825E+02  4.672030912E-06  0.00000E+00  9.000E+00
#rwgt            1           1   2.7545180126698099E-002           3       39197           0
</event>
<event>
      5   9999  3.19816E-02  2.07473E+02 -1.00000E+00  1.11071E-01
      21    -1     0     0   511   501  0.000000000E+00  0.000000000E+00  6.252829487E+02  6.252829487E+02  0.000000000E+00  0.00000E+00  9.000E+00
      21    -1     0     0   501   502  0.000000000E+00  0.000000000E+00 -1.018352972E+03  1.018352972E+03  0.000000000E+00  0.00000E+00  9.000E+00
      25     1     1     2     0     0 -4.048976676E+01  2.537539172E+02 -8.733942732E+02  9.189521359E+02  1.250000000E+02  0.00000E+00  9.000E+00
      25     1     1     2     0     0  7.705296940E+00 -4.888716144E+01 -5.900893853E+01  1.468209147E+02  1.250000000E+02  0.00000E+00  9.000E+00
      21     1     1     2   511   502  3.278446982E+01 -2.048667558E+02  5.393331881E+02  5.778628703E+02  7.629394531E-06  0.00000E+00  9.000E+00
#rwgt            1           1   2.2610634708466693E-002           3       39236           0
</event>
<event>
      5   9999  3.19816E-02  4.58169E+01 -1.00000E+00  1.41276E-01
      21    -1     0     0   502   501  0.000000000E+00  0.000000000E+00  6.578781472E+02  6.578781472E+02  0.000000000E+00  0.00000E+00  9.000E+00
      21    -1     0     0   501   512  0.000000000E+00  0.000000000E+00 -2.321969873E+02  2.321969873E+02  0.000000000E+00  0.00000E+00  9.000E+00
      25     1     1     2     0     0  7.861124517E+01 -1.624837670E+02  1.900723543E+02  2.904017945E+02  1.250000000E+02  0.00000E+00  9.000E+00
      25     1     1     2     0     0 -3.436148720E+01  1.743644147E+02  3.857307930E+02  4.427153776E+02  1.250000000E+02  0.00000E+00  9.000E+00
      21     1     1     2   502   512 -4.424975797E+01 -1.188064766E+01 -1.501219873E+02  1.569579624E+02  1.907348633E-06  0.00000E+00  9.000E+00
#rwgt            1           1   2.8320883620000979E-002           3       39291           0
</event>
<event>
      5   9999  3.19816E-02  6.40793E+01 -1.00000E+00  1.33194E-01
      21    -1     0     0   502   511  0.000000000E+00  0.000000000E+00  5.451623561E+02  5.451623561E+02  0.000000000E+00  0.00000E+00  9.000E+00
      21    -1     0     0   501   502  0.000000000E+00  0.000000000E+00 -2.126862274E+02  2.126862274E+02  0.000000000E+00  0.00000E+00  9.000E+00
      25     1     1     2     0     0 -2.073417218E+02 -1.595521750E+02  3.218878736E+02  4.332254486E+02  1.250000000E+02  0.00000E+00  9.000E+00
      25     1     1     2     0     0  1.435222784E+02  1.537870191E+02 -3.331098063E+01  2.469488066E+02  1.250000000E+02  0.00000E+00  9.000E+00
      21     1     1     2   501   511  6.381944335E+01  5.765155894E+00  4.389923576E+01  7.767432827E+01  8.259061849E-07  0.00000E+00  9.000E+00
#rwgt            1           1   2.8687382001105127E-002           3       39382           0
</event>
<event>
      5   9999  3.19816E-02  1.19174E+01 -1.00000E+00  1.87344E-01
      21    -1     0     0   502   501  0.000000000E+00  0.000000000E+00  4.208826847E+02  4.208826847E+02  0.000000000E+00  0.00000E+00  9.000E+00
      21    -1     0     0   512   502  0.000000000E+00  0.000000000E+00 -1.520887765E+03  1.520887765E+03  0.000000000E+00  0.00000E+00  9.000E+00
      25     1     1     2     0     0  7.563494665E+01  1.992035468E+02 -6.108732734E+02  6.589338770E+02  1.250000000E+02  0.00000E+00  9.000E+00
      25     1     1     2     0     0 -7.891415790E+01 -1.877461464E+02  3.608356031E+02  4.327856193E+02  1.250000000E+02  0.00000E+00  9.000E+00
      21     1     1     2   512   501  3.279211254E+00 -1.145740035E+01 -8.499674096E+02  8.500509529E+02  1.525878906E-05  0.00000E+00  9.000E+00
#rwgt            1           1   2.7789275896165987E-002           3       39444           0
</event>
<event>
      5   9999  3.19816E-02  4.75319E+02 -1.00000E+00  9.94806E-02
      21    -1     0     0   502   501  0.000000000E+00  0.000000000E+00  9.329535354E+02  9.329535354E+02  0.000000000E+00  0.00000E+00  9.000E+00
      21    -1     0     0   511   502  0.000000000E+00  0.000000000E+00 -3.697091178E+02  3.697091178E+02  0.000000000E+00  0.00000E+00  9.000E+00
      25     1     1     2     0     0  3.073898066E+01 -2.008283927E+01  6.333301269E+01  1.448595039E+02  1.250000000E+02  0.00000E+00  9.000E+00
      25     1     1     2     0     0 -4.271717681E+02  2.823222159E+02  4.240250774E+02  6.764642040E+02  1.250000000E+02  0.00000E+00  9.000E+00
      21     1     1     2   511   501  3.964327874E+02 -2.622393767E+02  7.588632746E+01  4.813389453E+02  9.097473158E-06  0.00000E+00  9.000E+00
#rwgt            1           1   2.8059534793138732E-002           3       39764           0
</event>
<event>
      5   9999  3.19816E-02  1.61978E+02 -1.00000E+00  1.15086E-01
       2    -1     0     0   502     0  0.000000000E+00  0.000000000E+00  5.646155633E+02  5.646155633E+02  0.000000000E+00  0.00000E+00  9.000E+00
      21    -1     0     0   501   502  0.000000000E+00  0.000000000E+00 -1.989065521E+02  1.989065521E+02  0.000000000E+00  0.00000E+00  9.000E+00
      25     1     1     2     0     0 -1.160995916E+02  9.948680587E+01 -8.868672690E+00  1.976876149E+02  1.250000000E+02  0.00000E+00  9.000E+00
      25     1     1     2     0     0 -1.414967027E+01 -3.194888318E+00  3.834923618E+02  4.036109662E+02  1.250000000E+02  0.00000E+00  9.000E+00
       2     1     1     2   501     0  1.302492619E+02 -9.629191755E+01 -8.914677885E+00  1.622235343E+02  1.892388805E-06  0.00000E+00  9.000E+00
#rwgt            2          18   1.0405526073501559E-004           3       39839           0
</event>
<event>
      5   9999  3.19816E-02  2.65866E+01 -1.00000E+00  1.56775E-01
      21    -1     0     0   502   511  0.000000000E+00  0.000000000E+00  5.870994302E+01  5.870994302E+01  0.000000000E+00  0.00000E+00  9.000E+00
      21    -1     0     0   501   502  0.000000000E+00  0.000000000E+00 -1.172805046E+03  1.172805046E+03  0.000000000E+00  0.00000E+00  9.000E+00
      25     1     1     2     0     0 -1.695283488E+02  1.914717561E+01 -5.928500490E+02  6.294463091E+02  1.250000000E+02  0.00000E+00  9.000E+00
      25     1     1     2     0     0  1.819741157E+02 -4.264078883E+01 -5.286406887E+02  5.744726219E+02  1.250000000E+02  0.00000E+00  9.000E+00
      21     1     1     2   501   511 -1.244576694E+01  2.349361321E+01  7.395635107E+00  2.759605760E+01  6.899736466E-07  0.00000E+00  9.000E+00
#rwgt            1           1   2.9643613689325686E-002           3       39858           0
</event>
<event>
      5   9999  3.19816E-02  3.74610E+01 -1.00000E+00  1.46629E-01
      21    -1     0     0   502   501  0.000000000E+00  0.000000000E+00  4.576463524E+02  4.576463524E+02  0.000000000E+00  0.00000E+00  9.000E+00
      21    -1     0     0   501   512  0.000000000E+00  0.000000000E+00 -1.751110785E+02  1.751110785E+02  0.000000000E+00  0.00000E+00  9.000E+00
      25     1     1     2     0     0  1.309056832E+02  9.737917690E+01 -3.261308447E+01  2.081048180E+02  1.250000000E+02  0.00000E+00  9.000E+00
      25     1     1     2     0     0 -1.601109843E+02 -1.208393626E+02  3.049652313E+02  3.858321801E+02  1.250000000E+02  0.00000E+00  9.000E+00
      21     1     1     2   502   512  2.920530112E+01  2.346018573E+01  1.018312702E+01  3.882043281E+01  5.057621821E-07  0.00000E+00  9.000E+00
#rwgt            1           1   2.7098405309230657E-002           3       40004           0
</event>
<event>
      5   9999  3.19816E-02  3.21762E+01 -1.00000E+00  1.50957E-01
      21    -1     0     0   502   511  0.000000000E+00  0.000000000E+00  2.355949856E+02  2.355949856E+02  0.000000000E+00  0.00000E+00  9.000E+00
      21    -1     0     0   501   502  0.000000000E+00  0.000000000E+00 -5.361096747E+02  5.361096747E+02  0.000000000E+00  0.00000E+00  9.000E+00
      25     1     1     2     0     0 -2.000550493E+02  1.855309345E+02 -3.164809268E+02  4.361524131E+02  1.250000000E+02  0.00000E+00  9.000E+00
      25     1     1     2     0     0  1.908632300E+02 -1.546955760E+02 -3.230565081E+01  2.775394546E+02  1.250000000E+02  0.00000E+00  9.000E+00
      21     1     1     2   501   511  9.191819300E+00 -3.083535853E+01  4.827188849E+01  5.801279252E+01  6.743495762E-07  0.00000E+00  9.000E+00
#rwgt            1           1   2.9451688477413026E-002           3       40155           0
</event>
<event>
      5   9999  3.19816E-02  2.66092E+01 -1.00000E+00  1.56748E-01
      21    -1     0     0   512   501  0.000000000E+00  0.000000000E+00  9.152629740E+02  9.152629740E+02  0.000000000E+00  0.00000E+00  9.000E+00
      21    -1     0     0   501   502  0.000000000E+00  0.000000000E+00 -1.377588364E+02  1.377588364E+02  0.000000000E+00  0.00000E+00  9.000E+00
      25     1     1     2     0     0  1.871495166E+02  6.635894229E+01  4.844724829E-01  2.346352180E+02  1.250000000E+02  0.00000E+00  9.000E+00
      25     1     1     2     0     0 -1.609388725E+02 -6.177051469E+01  5.494804054E+02  5.892967275E+02  1.250000000E+02  0.00000E+00  9.000E+00
      21     1     1     2   512   502 -2.621064406E+01 -4.588427598E+00  2.275392596E+02  2.290898649E+02  2.697398305E-06  0.00000E+00  9.000E+00
#rwgt            1           1   2.7566157806946410E-002           3       40285           0
</event>
<event>
      5   9999  3.19816E-02  2.28732E+01 -1.00000E+00  1.61698E-01
      21    -1     0     0   511   501  0.000000000E+00  0.000000000E+00  1.523332279E+02  1.523332279E+02  0.000000000E+00  0.00000E+00  9.000E+00
      21    -1     0     0   501   502  0.000000000E+00  0.000000000E+00 -1.255594274E+03  1.255594274E+03  0.000000000E+00  0.00000E+00  9.000E+00
      25     1     1     2     0     0  3.774220782E+02  1.117970532E+02 -4.302071764E+02  5.963633295E+02  1.250000000E+02  0.00000E+00  9.000E+00
      25     1     1     2     0     0 -3.965410283E+02 -9.924127903E+01 -6.562272608E+02  7.831684597E+02  1.250000000E+02  0.00000E+00  9.000E+00
      21     1     1     2   511   502  1.911895006E+01 -1.255577421E+01 -1.682660872E+01  2.839571232E+01  2.384185791E-07  0.00000E+00  9.000E+00
#rwgt            1           1   2.9340102665786891E-002           3       40417           0
</event>
<event>
      5   9999  3.19816E-02  1.14529E+03 -1.00000E+00  8.95989E-02
       2    -1     0     0   502     0  0.000000000E+00  0.000000000E+00  1.948368921E+03  1.948368921E+03  0.000000000E+00  0.00000E+00  9.000E+00
      21    -1     0     0   501   502  0.000000000E+00  0.000000000E+00 -8.396704063E+02  8.396704063E+02  0.000000000E+00  0.00000E+00  9.000E+00
      25     1     1     2     0     0  3.771150458E+02  1.407501638E+01  8.697021507E+01  4.069430945E+02  1.250000000E+02  0.00000E+00  9.000E+00
      25     1     1     2     0     0  6.225187124E+02 -5.730246958E+02  1.372404196E+01  8.553947618E+02  1.250000000E+02  0.00000E+00  9.000E+00
       2     1     1     2   501     0 -9.996337582E+02  5.589496794E+02  1.008004258E+03  1.525701471E+03  2.157918644E-05  0.00000E+00  9.000E+00
#rwgt            2          18   6.2023440018139260E-003           3       40686           0
</event>
<event>
      5   9999  3.19816E-02  1.21477E+01 -1.00000E+00  1.86471E-01
      21    -1     0     0   502   501  0.000000000E+00  0.000000000E+00  2.901407213E+03  2.901407213E+03  0.000000000E+00  0.00000E+00  9.000E+00
      21    -1     0     0   501   511  0.000000000E+00  0.000000000E+00 -1.027125992E+01  1.027125992E+01  0.000000000E+00  0.00000E+00  9.000E+00
      25     1     1     2     0     0  6.340986040E+01  4.529592070E+01  1.244952307E+03  1.253636223E+03  1.250000000E+02  0.00000E+00  9.000E+00
      25     1     1     2     0     0 -5.920060950E+01 -5.669106748E+01  1.634050332E+03  1.640872962E+03  1.250000000E+02  0.00000E+00  9.000E+00
      21     1     1     2   502   511 -4.209250900E+00  1.139514679E+01  1.213331321E+01  1.716928807E+01  4.460403188E-07  0.00000E+00  9.000E+00
#rwgt            1           1   3.3644286627446840E-002           3       40705           0
</event>
<event>
      5   9999  3.19816E-02  3.58026E+01 -1.00000E+00  1.47891E-01
      21    -1     0     0   502   501  0.000000000E+00  0.000000000E+00  5.650531946E+02  5.650531946E+02  0.000000000E+00  0.00000E+00  9.000E+00
      21    -1     0     0   512   502  0.000000000E+00  0.000000000E+00 -1.199249243E+03  1.199249243E+03  0.000000000E+00  0.00000E+00  9.000E+00
      25     1     1     2     0     0 -1.454166625E+02 -3.100094867E+02 -6.653421921E+02  7.586548097E+02  1.250000000E+02  0.00000E+00  9.000E+00
      25     1     1     2     0     0  1.777379903E+02  3.254095189E+02  4.436740895E+02  5.915689696E+02  1.250000000E+02  0.00000E+00  9.000E+00
      21     1     1     2   512   501 -3.232132784E+01 -1.540003212E+01 -4.125279461E+02  4.140786587E+02  5.394796609E-06  0.00000E+00  9.000E+00
#rwgt            1           1   3.0626343203041830E-002           3       40827           0
</event>
<event>
      5   9999  3.19816E-02  2.04961E+02 -1.00000E+00  1.11262E-01
       1    -1     0     0   502     0  0.000000000E+00  0.000000000E+00  1.818912749E+03  1.818912749E+03  0.000000000E+00  0.00000E+00  9.000E+00
      21    -1     0     0   501   502  0.000000000E+00  0.000000000E+00 -1.187306901E+02  1.187306901E+02  0.000000000E+00  0.00000E+00  9.000E+00
      25     1     1     2     0     0  3.250193203E+01 -9.340372647E+01  4.221954581E+01  1.648882099E+02  1.250000000E+02  0.00000E+00  9.000E+00
      25     1     1     2     0     0  1.712182905E+02  1.159199545E+02  2.417606942E+02  3.417987304E+02  1.250000000E+02  0.00000E+00  9.000E+00
       1     1     1     2   501     0 -2.037202225E+02 -2.251622799E+01  1.416201818E+03  1.430956498E+03  0.000000000E+00  0.00000E+00  9.000E+00
#rwgt            1           1   2.9165467251071567E-002           3       40988           0
</event>
<event>
      5   9999  3.19816E-02  1.19991E+01 -1.00000E+00  1.87031E-01
      21    -1     0     0   502   511  0.000000000E+00  0.000000000E+00  4.796903729E+02  4.796903729E+02  0.000000000E+00  0.00000E+00  9.000E+00
      21    -1     0     0   501   502  0.000000000E+00  0.000000000E+00 -3.852326364E+02  3.852326364E+02  0.000000000E+00  0.00000E+00  9.000E+00
      25     1     1     2     0     0 -1.032089240E+01  1.446588001E+02 -3.339813877E+02  3.849691631E+02  1.250000000E+02  0.00000E+00  9.000E+00
      25     1     1     2     0     0  3.413477295E+00 -1.544703733E+02  4.217157903E+02  4.661994807E+02  1.250000000E+02  0.00000E+00  9.000E+00
      21     1     1     2   501   511  6.907415108E+00  9.811573176E+00  6.723333766E+00  1.375436544E+01  8.429369702E-08  0.00000E+00  9.000E+00
#rwgt            1           1   3.0738611291239497E-002           3       41047           0
</event>
<event>
      5   9999  3.19816E-02  7.53076E+01 -1.00000E+00  1.29633E-01
      21    -1     0     0   502   512  0.000000000E+00  0.000000000E+00  2.453675725E+02  2.453675725E+02  0.000000000E+00  0.00000E+00  9.000E+00
      21    -1     0     0   501   502  0.000000000E+00  0.000000000E+00 -2.416201827E+03  2.416201827E+03  0.000000000E+00  0.00000E+00  9.000E+00
      25     1     1     2     0     0  3.869381644E+02 -1.193746939E+02 -2.105916046E+03  2.148133807E+03  1.250000000E+02  0.00000E+00  9.000E+00
      25     1     1     2     0     0 -3.631513251E+02  1.908269720E+02 -8.097471985E+01  4.364352454E+02  1.250000000E+02  0.00000E+00  9.000E+00
      21     1     1     2   501   512 -2.378683932E+01 -7.145227806E+01  1.605651201E+01  7.700034638E+01  1.192092896E-06  0.00000E+00  9.000E+00
#rwgt            1           1   2.9529694968507329E-002           3       41251           0
</event>
<event>
      5   9999  3.19816E-02  6.67363E+01 -1.00000E+00  1.32280E-01
      21    -1     0     0   502   501  0.000000000E+00  0.000000000E+00  2.133663191E+03  2.133663191E+03  0.000000000E+00  0.00000E+00  9.000E+00
      21    -1     0     0   511   502  0.000000000E+00  0.000000000E+00 -9.406215573E+01  9.406215573E+01  0.000000000E+00  0.00000E+00  9.000E+00
      25     1     1     2     0     0 -3.699850490E+01 -2.667702767E+01  1.956052871E+03  1.960573484E+03  1.250000000E+02  0.00000E+00  9.000E+00
      25     1     1     2     0     0  7.679859792E+01  8.024654202E+01  9.531547960E+00  1.674914402E+02  1.250000000E+02  0.00000E+00  9.000E+00
      21     1     1     2   511   501 -3.980009302E+01 -5.356951435E+01  7.401661651E+01  9.966042239E+01  1.348699152E-06  0.00000E+00  9.000E+00
#rwgt            1           1   2.0366276836796118E-002           3       41383           0
</event>
<event>
      5   9999  3.19816E-02  2.63314E+02 -1.00000E+00  1.07466E-01
      21    -1     0     0   502   501  0.000000000E+00  0.000000000E+00  1.787731031E+03  1.787731031E+03  0.000000000E+00  0.00000E+00  9.000E+00
      21    -1     0     0   501   512  0.000000000E+00  0.000000000E+00 -3.582556064E+02  3.582556064E+02  0.000000000E+00  0.00000E+00  9.000E+00
      25     1     1     2     0     0 -3.028270973E+02  3.080390646E+02  1.611566109E+02  4.776910816E+02  1.250000000E+02  0.00000E+00  9.000E+00
      25     1     1     2     0     0  5.211077872E+02 -1.607718038E+02  1.287978717E+03  1.404248936E+03  1.250000000E+02  0.00000E+00  9.000E+00
      21     1     1     2   502   512 -2.182806899E+02 -1.472672608E+02 -1.965990331E+01  2.640466199E+02  1.563415176E-06  0.00000E+00  9.000E+00
#rwgt            1           1   2.9390755539731125E-002           3       41475           0
</event>
<event>
      5   9999  3.19816E-02  1.00085E+01 -1.00000E+00  1.95714E-01
      21    -1     0     0   502   511  0.000000000E+00  0.000000000E+00  3.618376623E+02  3.618376623E+02  0.000000000E+00  0.00000E+00  9.000E+00
      21    -1     0     0   501   502  0.000000000E+00  0.000000000E+00 -5.505391425E+02  5.505391425E+02  0.000000000E+00  0.00000E+00  9.000E+00
      25     1     1     2     0     0  4.132820334E+02  3.297106291E+01 -4.076090223E+00  4.330482013E+02  1.250000000E+02  0.00000E+00  9.000E+00
      25     1     1     2     0     0 -4.053694277E+02 -2.684230703E+01 -1.924827894E+02  4.666042291E+02  1.250000000E+02  0.00000E+00  9.000E+00
      21     1     1     2   501   511 -7.912605698E+00 -6.128755888E+00  7.857399443E+00  1.272437439E+01  2.230201594E-07  0.00000E+00  9.000E+00
#rwgt            1           1   2.9896626655349260E-002           3       41523           0
</event>
<event>
      5   9999  3.19816E-02  1.21375E+02 -1.00000E+00  1.20159E-01
      21    -1     0     0   502   512  0.000000000E+00  0.000000000E+00  6.298410286E+02  6.298410286E+02  0.000000000E+00  0.00000E+00  9.000E+00
      21    -1     0     0   501   502  0.000000000E+00  0.000000000E+00 -3.951454078E+02  3.951454078E+02  0.000000000E+00  0.00000E+00  9.000E+00
      25     1     1     2     0     0  1.501774761E+02 -2.078833595E+02 -1.887120537E+02  3.420614049E+02  1.250000000E+02  0.00000E+00  9.000E+00
      25     1     1     2     0     0 -2.067549926E+02  3.152658110E+02  2.434729071E+02  4.658800436E+02  1.250000000E+02  0.00000E+00  9.000E+00
      21     1     1     2   501   512  5.657751654E+01 -1.073824514E+02  1.799347674E+02  2.170449879E+02  0.000000000E+00  0.00000E+00  9.000E+00
#rwgt            1           1   2.6915106497728925E-002           3       41787           0
</event>
<event>
      5   9999  3.19816E-02  2.96419E+01 -1.00000E+00  1.53403E-01
      21    -1     0     0   502   501  0.000000000E+00  0.000000000E+00  2.275169096E+02  2.275169096E+02  0.000000000E+00  0.00000E+00  9.000E+00
      21    -1     0     0   511   502  0.000000000E+00  0.000000000E+00 -7.304670224E+02  7.304670224E+02  0.000000000E+00  0.00000E+00  9.000E+00
      25     1     1     2     0     0  2.250355663E+02 -1.125807875E+02 -2.167462235E+02  3.548511874E+02  1.250000000E+02  0.00000E+00  9.000E+00
      25     1     1     2     0     0 -2.428640714E+02  1.362616867E+02  1.003841636E+01  3.054111561E+02  1.250000000E+02  0.00000E+00  9.000E+00
      21     1     1     2   511   501  1.782850515E+01 -2.368089920E+01 -2.962423057E+02  2.977215885E+02  6.607249480E-06  0.00000E+00  9.000E+00
#rwgt            1           1   2.6783009372978055E-002           3       41885           0
</event>
<event>
      5   9999  3.19816E-02  9.59894E+00 -1.00000E+00  1.97835E-01
      21    -1     0     0   502   512  0.000000000E+00  0.000000000E+00  1.647885687E+02  1.647885687E+02  0.000000000E+00  0.00000E+00  9.000E+00
      21    -1     0     0   501   502  0.000000000E+00  0.000000000E+00 -6.156255188E+02  6.156255188E+02  0.000000000E+00  0.00000E+00  9.000E+00
      25     1     1     2     0     0  4.858306014E+01  1.881202214E+02  3.294454833E+01  2.333663958E+02  1.250000000E+02  0.00000E+00  9.000E+00
      25     1     1     2     0     0 -4.283007238E+01 -1.958041467E+02 -4.826856887E+02  5.373864094E+02  1.250000000E+02  0.00000E+00  9.000E+00
      21     1     1     2   501   512 -5.752987758E+00  7.683925280E+00 -1.095809755E+00  9.661282258E+00  8.688795410E-08  0.00000E+00  9.000E+00
#rwgt            1           1   2.8310383784750159E-002           3       42021           0
</event>
<event>
      5   9999  3.19816E-02  3.00630E+01 -1.00000E+00  1.52977E-01
      21    -1     0     0   502   501  0.000000000E+00  0.000000000E+00  1.554017163E+02  1.554017163E+02  0.000000000E+00  0.00000E+00  9.000E+00
      21    -1     0     0   511   502  0.000000000E+00  0.000000000E+00 -2.507747197E+02  2.507747197E+02  0.000000000E+00  0.00000E+00  9.000E+00
      25     1     1     2     0     0 -4.316200834E+01  1.083973159E+01  8.645466934E+01  1.583662483E+02  1.250000000E+02  0.00000E+00  9.000E+00
      25     1     1     2     0     0  2.449775692E+01  1.272786684E+01 -1.058687441E+02  1.661184206E+02  1.250000000E+02  0.00000E+00  9.000E+00
      21     1     1     2   511   501  1.866425142E+01 -2.356759844E+01 -7.595892869E+01  8.169176718E+01  9.536743164E-07  0.00000E+00  9.000E+00
#rwgt            1           1   2.1777662533022029E-002           3       42229           0
</event>
<event>
      5   9999  3.19816E-02  2.53362E+01 -1.00000E+00  1.58318E-01
      21    -1     0     0   502   501  0.000000000E+00  0.000000000E+00  3.463005173E+02  3.463005173E+02  0.000000000E+00  0.00000E+00  9.000E+00
      21    -1     0     0   501   512  0.000000000E+00  0.000000000E+00 -5.927876583E+02  5.927876583E+02  0.000000000E+00  0.00000E+00  9.000E+00
      25     1     1     2     0     0 -4.035987492E+02 -9.161944234E+00  2.414237205E+01  4.233010107E+02  1.250000000E+02  0.00000E+00  9.000E+00
      25     1     1     2     0     0  3.836899617E+02 -6.508562713E+00 -2.211775986E+02  4.602226398E+02  1.250000000E+02  0.00000E+00  9.000E+00
      21     1     1     2   502   512  1.990878753E+01  1.567050695E+01 -4.945191444E+01  5.556452511E+01  6.743495762E-07  0.00000E+00  9.000E+00
#rwgt            1           1   3.0515534027655351E-002           3       42366           0
</event>
<event>
      5   9999  3.19816E-02  5.94186E+01 -1.00000E+00  1.34930E-01
      21    -1     0     0   502   501  0.000000000E+00  0.000000000E+00  3.217700932E+02  3.217700932E+02  0.000000000E+00  0.00000E+00  9.000E+00
       2    -1     0     0   501     0  0.000000000E+00  0.000000000E+00 -1.646710158E+03  1.646710158E+03  0.000000000E+00  0.00000E+00  9.000E+00
      25     1     1     2     0     0 -6.023503367E+01 -1.688657615E+02 -6.799430358E+02  7.142068584E+02  1.250000000E+02  0.00000E+00  9.000E+00
      25     1     1     2     0     0  9.402941882E+01  1.199933892E+02  2.716809504E+02  3.356716906E+02  1.250000000E+02  0.00000E+00  9.000E+00
       2     1     1     2   502     0 -3.379438515E+01  4.887237238E+01 -9.166779796E+02  9.186017023E+02  0.000000000E+00  0.00000E+00  9.000E+00
#rwgt            1           1   2.9200101257223901E-002           3       42522           0
</event>
<event>
      5   9999  3.19816E-02  9.09329E+00 -1.00000E+00  2.00653E-01
      21    -1     0     0   502   501  0.000000000E+00  0.000000000E+00  4.827960195E+02  4.827960195E+02  0.000000000E+00  0.00000E+00  9.000E+00
      21    -1     0     0   501   511  0.000000000E+00  0.000000000E+00 -1.878235226E+03  1.878235226E+03  0.000000000E+00  0.00000E+00  9.000E+00
      25     1     1     2     0     0 -3.614709474E+02  7.817500071E+02 -2.520587245E+02  9.060645231E+02  1.250000000E+02  0.00000E+00  9.000E+00
      25     1     1     2     0     0  3.644772656E+02 -7.731680535E+02 -1.043517007E+03  1.354690097E+03  1.250000000E+02  0.00000E+00  9.000E+00
      21     1     1     2   502   511 -3.006318160E+00 -8.581953622E+00 -9.986347486E+01  1.002766248E+02  0.000000000E+00  0.00000E+00  9.000E+00
#rwgt            1           1   2.8622378382275673E-002           3       42730           0
</event>
<event>
      5   9999  3.19816E-02  5.01338E+02 -1.00000E+00  9.88190E-02
      21    -1     0     0   502   501  0.000000000E+00  0.000000000E+00  1.985106434E+03  1.985106434E+03  0.000000000E+00  0.00000E+00  9.000E+00
      21    -1     0     0   512   502  0.000000000E+00  0.000000000E+00 -4.827383837E+02  4.827383837E+02  0.000000000E+00  0.00000E+00  9.000E+00
      25     1     1     2     0     0 -3.234405931E+01 -6.192447155E+02  8.950107343E+02  1.095983289E+03  1.250000000E+02  0.00000E+00  9.000E+00
      25     1     1     2     0     0  4.765871339E+02  3.868922814E+02  6.044426551E+02  8.705152824E+02  1.250000000E+02  0.00000E+00  9.000E+00
      21     1     1     2   512   501 -4.442430746E+02  2.323524341E+02  2.914660619E+00  5.013462458E+02  1.926807150E-06  0.00000E+00  9.000E+00
#rwgt            2          11   2.5132797164019146E-003           3       43204           0
</event>
<event>
      5   9999  3.19816E-02  1.26940E+01 -1.00000E+00  1.84497E-01
      21    -1     0     0   511   501  0.000000000E+00  0.000000000E+00  3.107530890E+02  3.107530890E+02  0.000000000E+00  0.00000E+00  9.000E+00
      21    -1     0     0   501   502  0.000000000E+00  0.000000000E+00 -5.826259038E+02  5.826259038E+02  0.000000000E+00  0.00000E+00  9.000E+00
      25     1     1     2     0     0  4.277880522E+01 -2.139582393E+02  1.885560032E+02  3.143032305E+02  1.250000000E+02  0.00000E+00  9.000E+00
      25     1     1     2     0     0 -5.198281103E+01  2.052160927E+02 -4.892705116E+02  5.475641432E+02  1.250000000E+02  0.00000E+00  9.000E+00
      21     1     1     2   511   502  9.204005815E+00  8.742146592E+00  2.884169357E+01  3.151161910E+01  3.371747881E-07  0.00000E+00  9.000E+00
#rwgt            1           1   2.8726925741494286E-002           3       43224           0
</event>
<event>
      5   9999  3.19816E-02  2.41174E+02 -1.00000E+00  1.08766E-01
       2    -1     0     0   502     0  0.000000000E+00  0.000000000E+00  2.124834799E+03  2.124834799E+03  0.000000000E+00  0.00000E+00  9.000E+00
      21    -1     0     0   501   502  0.000000000E+00  0.000000000E+00 -2.516807049E+02  2.516807049E+02  0.000000000E+00  0.00000E+00  9.000E+00
      25     1     1     2     0     0  3.618035837E+02 -2.352274628E+02  2.929695875E+02  5.363673849E+02  1.250000000E+02  0.00000E+00  9.000E+00
      25     1     1     2     0     0 -4.772888302E+02  4.469533336E+02  9.072360844E+02  1.125288506E+03  1.250000000E+02  0.00000E+00  9.000E+00
       2     1     1     2   501     0  1.154852466E+02 -2.117258708E+02  6.729484223E+02  7.148596125E+02  1.078959322E-05  0.00000E+00  9.000E+00
#rwgt            1           1   2.9695888401153211E-002           3       43436           0
</event>
<event>
      5   9999  3.19816E-02  6.32061E+01 -1.00000E+00  1.33506E-01
      21    -1     0     0   511   501  0.000000000E+00  0.000000000E+00  2.921131810E+02  2.921131810E+02  0.000000000E+00  0.00000E+00  9.000E+00
      21    -1     0     0   501   502  0.000000000E+00  0.000000000E+00 -7.407662077E+02  7.407662077E+02  0.000000000E+00  0.00000E+00  9.000E+00
      25     1     1     2     0     0 -3.518942738E+01  3.103280276E+02 -3.225010234E+02  4.660189810E+02  1.250000000E+02  0.00000E+00  9.000E+00
      25     1     1     2     0     0  8.999570005E+01 -2.788434170E+02 -2.649564421E+02  4.143426039E+02  1.250000000E+02  0.00000E+00  9.000E+00
      21     1     1     2   511   502 -5.480627267E+01 -3.148461069E+01  1.388044388E+02  1.525178037E+02  1.907348633E-06  0.00000E+00  9.000E+00
#rwgt            1           1   3.0161337311380550E-002           3       43489           0
</event>
<event>
      5   9999  3.19816E-02  3.60138E+01 -1.00000E+00  1.47726E-01
      21    -1     0     0   502   501  0.000000000E+00  0.000000000E+00  3.309715964E+02  3.309715964E+02  0.000000000E+00  0.00000E+00  9.000E+00
      21    -1     0     0   512   502  0.000000000E+00  0.000000000E+00 -3.413605212E+02  3.413605212E+02  0.000000000E+00  0.00000E+00  9.000E+00
      25     1     1     2     0     0  1.268981867E+01  6.330483698E+01  2.930674110E+02  3.250877439E+02  1.250000000E+02  0.00000E+00  9.000E+00
      25     1     1     2     0     0 -1.103522725E+01 -2.732909846E+01 -1.998546767E+02  2.375616713E+02  1.250000000E+02  0.00000E+00  9.000E+00
      21     1     1     2   512   501 -1.654591419E+00 -3.597573852E+01 -1.036016591E+02  1.096827024E+02  1.348699152E-06  0.00000E+00  9.000E+00
#rwgt            1           1   3.2947816312291579E-002           3       43587           0
</event>
<event>
      5   9999  3.19816E-02  2.51254E+02 -1.00000E+00  1.08156E-01
      21    -1     0     0   502   511  0.000000000E+00  0.000000000E+00  3.467292473E+02  3.467292473E+02  0.000000000E+00  0.00000E+00  9.000E+00
      21    -1     0     0   501   502  0.000000000E+00  0.000000000E+00 -1.480160359E+03  1.480160359E+03  0.000000000E+00  0.00000E+00  9.000E+00
      25     1     1     2     0     0  5.333999943E+02 -2.834694038E+02 -6.875955997E+02  9.237332762E+02  1.250000000E+02  0.00000E+00  9.000E+00
      25     1     1     2     0     0 -3.020346491E+02  1.854965301E+02 -5.196142946E+02  6.412939319E+02  1.250000000E+02  0.00000E+00  9.000E+00
      21     1     1     2   501   511 -2.313653452E+02  9.797287371E+01  7.377878249E+01  2.618623984E+02  5.560829062E-06  0.00000E+00  9.000E+00
#rwgt            1           1   2.4660379606910716E-002           3       43725           0
</event>
<event>
      5   9999  3.19816E-02  4.99480E+01 -1.00000E+00  1.39101E-01
      21    -1     0     0   502   512  0.000000000E+00  0.000000000E+00  7.553765866E+02  7.553765866E+02  0.000000000E+00  0.00000E+00  9.000E+00
      21    -1     0     0   501   502  0.000000000E+00  0.000000000E+00 -2.530881110E+02  2.530881110E+02  0.000000000E+00  0.00000E+00  9.000E+00
      25     1     1     2     0     0 -3.672141474E+02 -1.648622944E+01  2.185625827E+02  4.455475601E+02  1.250000000E+02  0.00000E+00  9.000E+00
      25     1     1     2     0     0  4.120593082E+02 -5.507226697E+00  2.251704771E+02  4.859526178E+02  1.250000000E+02  0.00000E+00  9.000E+00
      21     1     1     2   501   512 -4.484516076E+01  2.199345614E+01  5.855541587E+01  7.696451965E+01  1.168007728E-06  0.00000E+00  9.000E+00
#rwgt            1           1   2.8590334326561159E-002           3       43776           0
</event>
<event>
      5   9999  3.19816E-02  1.62489E+02 -1.00000E+00  1.15034E-01
      21    -1     0     0   502   511  0.000000000E+00  0.000000000E+00  1.352379259E+03  1.352379259E+03  0.000000000E+00  0.00000E+00  9.000E+00
      21    -1     0     0   501   502  0.000000000E+00  0.000000000E+00 -1.657683369E+02  1.657683369E+02  0.000000000E+00  0.00000E+00  9.000E+00
      25     1     1     2     0     0 -4.732771605E+01 -2.309633029E+02  2.104876114E+02  3.398734979E+02  1.250000000E+02  0.00000E+00  9.000E+00
      25     1     1     2     0     0 -1.118868585E+02  1.985085224E+02  8.647836969E+01  2.739120497E+02  1.250000000E+02  0.00000E+00  9.000E+00
      21     1     1     2   501   511  1.592145746E+02  3.245478053E+01  8.896449414E+02  9.043620488E+02  2.157918644E-05  0.00000E+00  9.000E+00
#rwgt            1           1   2.8411767690690464E-002           3       43858           0
</event>
<event>
      5   9999  3.19816E-02  3.91254E+01 -1.00000E+00  1.45438E-01
      21    -1     0     0   502   501  0.000000000E+00  0.000000000E+00  1.516464915E+02  1.516464915E+02  0.000000000E+00  0.00000E+00  9.000E+00
      21    -1     0     0   512   502  0.000000000E+00  0.000000000E+00 -2.304548783E+03  2.304548783E+03  0.000000000E+00  0.00000E+00  9.000E+00
      25     1     1     2     0     0 -4.526688856E+02 -2.160425010E+02 -1.638557910E+03  1.718161956E+03  1.250000000E+02  0.00000E+00  9.000E+00
      25     1     1     2     0     0  4.240496129E+02  1.893641914E+02 -4.303374020E+02  6.453620307E+02  1.250000000E+02  0.00000E+00  9.000E+00
      21     1     1     2   512   501  2.861927273E+01  2.667830960E+01 -8.400697967E+01  9.267128793E+01  9.536743164E-07  0.00000E+00  9.000E+00
#rwgt            1           1   3.3442817473983213E-002           3       43922           0
</event>
<event>
      5   9999  3.19816E-02  1.32172E+02 -1.00000E+00  1.18614E-01
      21    -1     0     0   502   501  0.000000000E+00  0.000000000E+00  2.338227309E+02  2.338227309E+02  0.000000000E+00  0.00000E+00  9.000E+00
      21    -1     0     0   511   502  0.000000000E+00  0.000000000E+00 -9.251585701E+02  9.251585701E+02  0.000000000E+00  0.00000E+00  9.000E+00
      25     1     1     2     0     0 -3.409911985E+02 -8.514962639E+01 -1.619391338E+02  4.066629309E+02  1.250000000E+02  0.00000E+00  9.000E+00
      25     1     1     2     0     0  2.975717086E+02  2.099863114E+02 -3.022388403E+02  4.895063731E+02  1.250000000E+02  0.00000E+00  9.000E+00
      21     1     1     2   511   501  4.341948998E+01 -1.248366850E+02 -2.271578652E+02  2.628119970E+02  3.814697266E-06  0.00000E+00  9.000E+00
#rwgt            2          11   3.1899765218425993E-003           3       44100           0
</event>
<event>
      5   9999  3.19816E-02  2.89784E+02 -1.00000E+00  1.06083E-01
       2    -1     0     0   502     0  0.000000000E+00  0.000000000E+00  1.547304811E+03  1.547304811E+03  0.000000000E+00  0.00000E+00  9.000E+00
      21    -1     0     0   501   502  0.000000000E+00  0.000000000E+00 -4.698884182E+02  4.698884182E+02  0.000000000E+00  0.00000E+00  9.000E+00
      25     1     1     2     0     0 -2.169721861E+02  1.120905178E+02  3.346866103E+02  4.327601424E+02  1.250000000E+02  0.00000E+00  9.000E+00
      25     1     1     2     0     0  4.483612751E+02 -2.865436575E+02 -2.123267714E+02  5.863810693E+02  1.250000000E+02  0.00000E+00  9.000E+00
       2     1     1     2   501     0 -2.313890889E+02  1.744531397E+02  9.550565543E+02  9.980520178E+02  1.525878906E-05  0.00000E+00  9.000E+00
#rwgt            2          18   1.6754283256224104E-003           3       44150           0
</event>
<event>
      5   9999  3.19816E-02  1.87347E+02 -1.00000E+00  1.12691E-01
      21    -1     0     0   502   501  0.000000000E+00  0.000000000E+00  3.989706216E+02  3.989706216E+02  0.000000000E+00  0.00000E+00  9.000E+00
      21    -1     0     0   501   511  0.000000000E+00  0.000000000E+00 -1.202061024E+03  1.202061024E+03  0.000000000E+00  0.00000E+00  9.000E+00
      25     1     1     2     0     0  3.144072518E+02 -1.650431274E+02 -1.115052078E+02  3.926188549E+02  1.250000000E+02  0.00000E+00  9.000E+00
      25     1     1     2     0     0 -4.214786275E+02  3.187782152E+02 -5.614618594E+01  5.459314775E+02  1.250000000E+02  0.00000E+00  9.000E+00
      21     1     1     2   502   511  1.070713757E+02 -1.537350878E+02 -6.354390084E+02  6.624813130E+02  1.321449896E-05  0.00000E+00  9.000E+00
#rwgt            1           1   2.7521203109659071E-002           3       44184           0
</event>
<event>
      5   9999  3.19816E-02  1.38764E+02 -1.00000E+00  1.17750E-01
      21    -1     0     0   502   512  0.000000000E+00  0.000000000E+00  1.382348987E+03  1.382348987E+03  0.000000000E+00  0.00000E+00  9.000E+00
      21    -1     0     0   501   502  0.000000000E+00  0.000000000E+00 -2.512383067E+02  2.512383067E+02  0.000000000E+00  0.00000E+00  9.000E+00
      25     1     1     2     0     0  1.057674107E+02  2.556441222E+02 -7.905426274E+01  3.137120317E+02  1.250000000E+02  0.00000E+00  9.000E+00
      25     1     1     2     0     0 -1.740626155E+01 -3.626382804E+02  9.573594613E+02  1.031490009E+03  1.250000000E+02  0.00000E+00  9.000E+00
      21     1     1     2   501   512 -8.836114917E+01  1.069941582E+02  2.528054818E+02  2.883852531E+02  3.814697266E-06  0.00000E+00  9.000E+00
#rwgt            1           1   3.5676825280191754E-002           3       44256           0
</event>
<event>
      5   9999  3.19816E-02  1.72906E+02 -1.00000E+00  1.13999E-01
      21    -1     0     0   511   501  0.000000000E+00  0.000000000E+00  2.582674439E+02  2.582674439E+02  0.000000000E+00  0.00000E+00  9.000E+00
      21    -1     0     0   501   502  0.000000000E+00  0.000000000E+00 -3.555061556E+02  3.555061556E+02  0.000000000E+00  0.00000E+00  9.000E+00
      25     1     1     2     0     0 -5.550854219E+01 -4.215291672E+01 -2.007976872E+02  2.465821929E+02  1.250000000E+02  0.00000E+00  9.000E+00
      25     1     1     2     0     0 -1.917822422E+01 -1.137909726E+02  9.319311833E+01  1.939746041E+02  1.250000000E+02  0.00000E+00  9.000E+00
      21     1     1     2   511   502  7.468676641E+01  1.559438893E+02  1.036585711E+01  1.732168025E+02  4.224787985E-06  0.00000E+00  9.000E+00
#rwgt            1           1   2.7531116508418382E-002           3       44343           0
</event>
<event>
      5   9999  3.19816E-02  2.68686E+01 -1.00000E+00  1.56441E-01
      21    -1     0     0   502   512  0.000000000E+00  0.000000000E+00  1.610224721E+03  1.610224721E+03  0.000000000E+00  0.00000E+00  9.000E+00
      21    -1     0     0   501   502  0.000000000E+00  0.000000000E+00 -9.725259518E+01  9.725259518E+01  0.000000000E+00  0.00000E+00  9.000E+00
      25     1     1     2     0     0  1.678313883E+02  2.311457087E+02  3.071957026E+02  4.377098506E+02  1.250000000E+02  0.00000E+00  9.000E+00
      25     1     1     2     0     0 -1.541309988E+02 -2.080325203E+02  6.204571552E+02  6.838318329E+02  1.250000000E+02  0.00000E+00  9.000E+00
      21     1     1     2   501   512 -1.370038948E+01 -2.311318840E+01  5.853192677E+02  5.859356324E+02  0.000000000E+00  0.00000E+00  9.000E+00
#rwgt            1           1   3.6152069670725429E-002           3       44392           0
</event>
<event>
      5   9999  3.19816E-02  2.10500E+01 -1.00000E+00  1.64556E-01
      21    -1     0     0   502   501  0.000000000E+00  0.000000000E+00  1.247823915E+03  1.247823915E+03  0.000000000E+00  0.00000E+00  9.000E+00
      21    -1     0     0   511   502  0.000000000E+00  0.000000000E+00 -4.317257545E+02  4.317257545E+02  0.000000000E+00  0.00000E+00  9.000E+00
      25     1     1     2     0     0 -3.595366962E+02  1.604501681E+02 -2.659740718E+02  4.913024519E+02  1.250000000E+02  0.00000E+00  9.000E+00
      25     1     1     2     0     0  3.681254795E+02 -1.796682481E+02  1.085488184E+03  1.166921868E+03  1.250000000E+02  0.00000E+00  9.000E+00
      21     1     1     2   511   501 -8.588783252E+00  1.921808003E+01 -3.415952075E+00  2.132534939E+01  4.440446027E-07  0.00000E+00  9.000E+00
#rwgt            1           1   2.8352809468318248E-002           3       44549           0
</event>
<event>
      5   9999  3.19816E-02  5.38963E+01 -1.00000E+00  1.37241E-01
      21    -1     0     0   502   512  0.000000000E+00  0.000000000E+00  1.453096103E+02  1.453096103E+02  0.000000000E+00  0.00000E+00  9.000E+00
      21    -1     0     0   501   502  0.000000000E+00  0.000000000E+00 -1.390975730E+03  1.390975730E+03  0.000000000E+00  0.00000E+00  9.000E+00
      25     1     1     2     0     0 -1.653760144E+02  1.012401934E+02 -7.986083429E+02  8.312635492E+02  1.250000000E+02  0.00000E+00  9.000E+00
      25     1     1     2     0     0  2.120191083E+02 -1.282444189E+02 -5.345267844E+02  6.022811773E+02  1.250000000E+02  0.00000E+00  9.000E+00
      21     1     1     2   501   512 -4.664309387E+01  2.700422550E+01  8.746900770E+01  1.027406137E+02  4.156969970E-06  0.00000E+00  9.000E+00
#rwgt            2          11   4.2324868656089566E-003           3       44826           0
</event>
<event>
      5   9999  3.19816E-02  1.45599E+02 -1.00000E+00  1.16908E-01
      21    -1     0     0   502   501  0.000000000E+00  0.000000000E+00  1.066367974E+02  1.066367974E+02  0.000000000E+00  0.00000E+00  9.000E+00
      21    -1     0     0   511   502  0.000000000E+00  0.000000000E+00 -1.532268138E+03  1.532268138E+03  0.000000000E+00  0.00000E+00  9.000E+00
      25     1     1     2     0     0  1.244376778E+02  5.242193925E+01 -1.062238033E+03  1.078057250E+03  1.250000000E+02  0.00000E+00  9.000E+00
      25     1     1     2     0     0 -6.649230522E+01 -1.859935713E+02 -8.881726312E+01  2.500566764E+02  1.250000000E+02  0.00000E+00  9.000E+00
      21     1     1     2   511   501 -5.794537255E+01  1.335716320E+02 -2.745760445E+02  3.107910090E+02  0.000000000E+00  0.00000E+00  9.000E+00
#rwgt            2          11   3.4851457179866235E-003           3       44846           0
</event>
<event>
      5   9999  3.19816E-02  7.52825E+01 -1.00000E+00  1.29640E-01
      21    -1     0     0   502   501  0.000000000E+00  0.000000000E+00  4.446797670E+01  4.446797670E+01  0.000000000E+00  0.00000E+00  9.000E+00
      21    -1     0     0   512   502  0.000000000E+00  0.000000000E+00 -3.354501643E+03  3.354501643E+03  0.000000000E+00  0.00000E+00  9.000E+00
      25     1     1     2     0     0  1.957106618E+02 -1.103338276E+01 -4.596850704E+02  5.151308209E+02  1.250000000E+02  0.00000E+00  9.000E+00
      25     1     1     2     0     0 -2.620473919E+02  4.662677981E+01 -1.352376524E+03  1.383976212E+03  1.250000000E+02  0.00000E+00  9.000E+00
      21     1     1     2   512   501  6.633673000E+01 -3.559339705E+01 -1.497972072E+03  1.499862587E+03  0.000000000E+00  0.00000E+00  9.000E+00
#rwgt            1           1   2.6268364197125325E-002           3       44866           0
</event>
<event>
      5   9999  3.19816E-02  7.49286E+01 -1.00000E+00  1.29741E-01
      21    -1     0     0   502   501  0.000000000E+00  0.000000000E+00  3.534559851E+02  3.534559851E+02  0.000000000E+00  0.00000E+00  9.000E+00
      21    -1     0     0   501   511  0.000000000E+00  0.000000000E+00 -4.871636963E+02  4.871636963E+02  0.000000000E+00  0.00000E+00  9.000E+00
      25     1     1     2     0     0  1.342437885E+02  1.569557516E+02  4.573138907E+00  2.414589330E+02  1.250000000E+02  0.00000E+00  9.000E+00
      25     1     1     2     0     0 -2.061818115E+02 -1.779131775E+02  1.255565493E+02  3.248899586E+02  1.250000000E+02  0.00000E+00  9.000E+00
      21     1     1     2   502   511  7.193802302E+01  2.095742581E+01 -2.638373994E+02  2.742707898E+02  5.394796609E-06  0.00000E+00  9.000E+00
#rwgt            1           1   2.6730806347033832E-002           3       44948           0
</event>
<event>
      5   9999  3.19816E-02  1.71591E+01 -1.00000E+00  1.72053E-01
      21    -1     0     0   502   512  0.000000000E+00  0.000000000E+00  1.595786993E+03  1.595786993E+03  0.000000000E+00  0.00000E+00  9.000E+00
      21    -1     0     0   501   502  0.000000000E+00  0.000000000E+00 -1.820362118E+02  1.820362118E+02  0.000000000E+00  0.00000E+00  9.000E+00
      25     1     1     2     0     0  3.872713499E+02  2.456176862E+02  3.067460088E+02  5.657077515E+02  1.250000000E+02  0.00000E+00  9.000E+00
      25     1     1     2     0     0 -3.967384869E+02 -2.313066211E+02  1.078374574E+03  1.178736995E+03  1.250000000E+02  0.00000E+00  9.000E+00
      21     1     1     2   501   512  9.467136999E+00 -1.431106506E+01  2.863019851E+01  3.337845911E+01  3.371747881E-07  0.00000E+00  9.000E+00
#rwgt            1           1   2.9108182311651919E-002           3       44996           0
</event>
<event>
      5   9999  3.19816E-02  4.54196E+02 -1.00000E+00  1.00052E-01
      21    -1     0     0   502   501  0.000000000E+00  0.000000000E+00  2.511709469E+02  2.511709469E+02  0.000000000E+00  0.00000E+00  9.000E+00
      21    -1     0     0   511   502  0.000000000E+00  0.000000000E+00 -1.433371785E+03  1.433371785E+03  0.000000000E+00  0.00000E+00  9.000E+00
      25     1     1     2     0     0  3.336591201E+02  8.502073825E+01 -5.022007501E+02  6.216007784E+02  1.250000000E+02  0.00000E+00  9.000E+00
      25     1     1     2     0     0  8.095245573E+01  1.004273413E+02  6.448463174E+01  1.908460602E+02  1.250000000E+02  0.00000E+00  9.000E+00
      21     1     1     2   511   501 -4.146115758E+02 -1.854480796E+02 -7.444847198E+02  8.720958933E+02  1.078959322E-05  0.00000E+00  9.000E+00
#rwgt            1           1   2.7339007456921496E-002           3       45185           0
</event>
<event>
      5   9999  3.19816E-02  3.61017E+01 -1.00000E+00  1.47657E-01
      21    -1     0     0   502   501  0.000000000E+00  0.000000000E+00  1.327185578E+02  1.327185578E+02  0.000000000E+00  0.00000E+00  9.000E+00
      21    -1     0     0   501   512  0.000000000E+00  0.000000000E+00 -6.641656612E+02  6.641656612E+02  0.000000000E+00  0.00000E+00  9.000E+00
      25     1     1     2     0     0 -1.117156208E+02 -2.024513064E+02 -4.232316052E+02  4.982137122E+02  1.250000000E+02  0.00000E+00  9.000E+00
      25     1     1     2     0     0  9.140911391E+01  1.726020487E+02 -6.201463373E+01  2.400373057E+02  1.250000000E+02  0.00000E+00  9.000E+00
      21     1     1     2   502   512  2.030650688E+01  2.984925767E+01 -4.620086445E+01  5.863320119E+01  0.000000000E+00  0.00000E+00  9.000E+00
#rwgt            1           1   2.8985886625380534E-002           3       45238           0
</event>
<event>
      5   9999  3.19816E-02  1.06670E+02 -1.00000E+00  1.22580E-01
      21    -1     0     0   502   501  0.000000000E+00  0.000000000E+00  3.316776888E+02  3.316776888E+02  0.000000000E+00  0.00000E+00  9.000E+00
      21    -1     0     0   501   511  0.000000000E+00  0.000000000E+00 -4.838057500E+02  4.838057500E+02  0.000000000E+00  0.00000E+00  9.000E+00
      25     1     1     2     0     0 -1.227663717E+02  5.252400730E+01  1.082284910E+02  2.125294324E+02  1.250000000E+02  0.00000E+00  9.000E+00
      25     1     1     2     0     0  7.074523961E+01  4.060126971E+01  1.302158722E+02  1.980770694E+02  1.250000000E+02  0.00000E+00  9.000E+00
      21     1     1     2   502   511  5.202113204E+01 -9.312527701E+01 -3.905724244E+02  4.048769370E+02  0.000000000E+00  0.00000E+00  9.000E+00
#rwgt            1           1   7.3849147902158782E-002           3       45338           0
</event>
<event>
      5   9999  3.19816E-02  3.31896E+01 -1.00000E+00  1.50053E-01
      21    -1     0     0   502   501  0.000000000E+00  0.000000000E+00  2.567841513E+02  2.567841513E+02  0.000000000E+00  0.00000E+00  9.000E+00
      21    -1     0     0   512   502  0.000000000E+00  0.000000000E+00 -8.429976114E+02  8.429976114E+02  0.000000000E+00  0.00000E+00  9.000E+00
      25     1     1     2     0     0 -8.067884703E+01  1.622029321E+02  1.792843365E+02  2.838780387E+02  1.250000000E+02  0.00000E+00  9.000E+00
      25     1     1     2     0     0  6.517401844E+01 -1.915482551E+02 -7.278190563E+02  7.656918214E+02  1.250000000E+02  0.00000E+00  9.000E+00
      21     1     1     2   512   501  1.550482860E+01  2.934532303E+01 -3.767874028E+01  5.021190260E+01  8.259061849E-07  0.00000E+00  9.000E+00
#rwgt            1           1   2.6860583044698638E-002           3       45408           0
</event>
<event>
      5   9999  3.19816E-02  1.94148E+01 -1.00000E+00  1.67440E-01
      21    -1     0     0   502   501  0.000000000E+00  0.000000000E+00  2.597518334E+03  2.597518334E+03  0.000000000E+00  0.00000E+00  9.000E+00
      21    -1     0     0   501   511  0.000000000E+00  0.000000000E+00 -3.577814064E+02  3.577814064E+02  0.000000000E+00  0.00000E+00  9.000E+00
      25     1     1     2     0     0  9.624567180E+01  2.359552310E+02  2.362103202E+03  2.379095340E+03  1.250000000E+02  0.00000E+00  9.000E+00
      25     1     1     2     0     0 -1.023110218E+02 -2.543982775E+02  1.263258157E+02  3.267556281E+02  1.250000000E+02  0.00000E+00  9.000E+00
      21     1     1     2   502   511  6.065350022E+00  1.844304650E+01 -2.486920900E+02  2.494487724E+02  1.078959322E-05  0.00000E+00  9.000E+00
#rwgt            1           1   7.8849911636761652E-002           3       45529           0
</event>
<event>
      5   9999  3.19816E-02  1.09666E+02 -1.00000E+00  1.22052E-01
      21    -1     0     0   502   501  0.000000000E+00  0.000000000E+00  1.354168871E+03  1.354168871E+03  0.000000000E+00  0.00000E+00  9.000E+00
      21    -1     0     0   501   512  0.000000000E+00  0.000000000E+00 -2.821814100E+03  2.821814100E+03  0.000000000E+00  0.00000E+00  9.000E+00
      25     1     1     2     0     0 -7.579027144E+01  1.621297088E+03 -3.173955383E+02  1.658527461E+03  1.250000000E+02  0.00000E+00  9.000E+00
      25     1     1     2     0     0  1.645783629E+02 -1.556929248E+03 -2.260472694E+02  1.586769387E+03  1.250000000E+02  0.00000E+00  9.000E+00
      21     1     1     2   502   512 -8.878809141E+01 -6.436784029E+01 -9.242024212E+02  9.306861229E+02  1.525878906E-05  0.00000E+00  9.000E+00
#rwgt            2          11   3.6819007925386706E-003           3       45735           0
</event>
<event>
      5   9999  3.19816E-02  4.19943E+01 -1.00000E+00  1.43542E-01
      21    -1     0     0   502   501  0.000000000E+00  0.000000000E+00  1.951060564E+02  1.951060564E+02  0.000000000E+00  0.00000E+00  9.000E+00
      21    -1     0     0   501   511  0.000000000E+00  0.000000000E+00 -3.931950247E+02  3.931950247E+02  0.000000000E+00  0.00000E+00  9.000E+00
      25     1     1     2     0     0  4.266100696E+01 -1.443250779E+02  9.145913171E+01  2.159617151E+02  1.250000000E+02  0.00000E+00  9.000E+00
      25     1     1     2     0     0 -7.866580493E+01  1.227108596E+02 -2.412058005E+02  3.083042363E+02  1.250000000E+02  0.00000E+00  9.000E+00
      21     1     1     2   502   511  3.600479797E+01  2.161421833E+01 -4.834229955E+01  6.403512970E+01  9.536743164E-07  0.00000E+00  9.000E+00
#rwgt            1           1   2.7312855042323846E-002           3       45770           0
</event>
<event>
      5   9999  3.19816E-02  8.98847E+00 -1.00000E+00  2.01268E-01
      21    -1     0     0   502   501  0.000000000E+00  0.000000000E+00  1.560300084E+02  1.560300084E+02  0.000000000E+00  0.00000E+00  9.000E+00
       2    -1     0     0   501     0  0.000000000E+00  0.000000000E+00 -8.764210060E+02  8.764210060E+02  0.000000000E+00  0.00000E+00  9.000E+00
      25     1     1     2     0     0 -2.864046869E+02  2.057043072E+01 -1.434384080E+02  3.444566217E+02  1.250000000E+02  0.00000E+00  9.000E+00
      25     1     1     2     0     0  2.916749181E+02 -1.328913837E+01 -3.997515476E+02  5.105655284E+02  1.250000000E+02  0.00000E+00  9.000E+00
       2     1     1     2   502     0 -5.270231187E+00 -7.281292352E+00 -1.772010421E+02  1.774288643E+02  2.697398305E-06  0.00000E+00  9.000E+00
#rwgt            1           1   2.8379253340184846E-002           3       45852           0
</event>
<event>
      5   9999  3.19816E-02  1.19972E+02 -1.00000E+00  1.20373E-01
      21    -1     0     0   511   501  0.000000000E+00  0.000000000E+00  1.215047249E+03  1.215047249E+03  0.000000000E+00  0.00000E+00  9.000E+00
      21    -1     0     0   501   502  0.000000000E+00  0.000000000E+00 -1.945516874E+02  1.945516874E+02  0.000000000E+00  0.00000E+00  9.000E+00
      25     1     1     2     0     0 -7.673260966E+01 -2.635748713E+02  7.772850324E-01  3.016375479E+02  1.250000000E+02  0.00000E+00  9.000E+00
      25     1     1     2     0     0 -4.311190550E+01  2.580449323E+02  8.642092540E+02  9.115527731E+02  1.250000000E+02  0.00000E+00  9.000E+00
      21     1     1     2   511   502  1.198445152E+02  5.529939008E+00  1.555090221E+02  1.964086149E+02  3.814697266E-06  0.00000E+00  9.000E+00
#rwgt            1           1   2.6222157952863017E-002           3       46091           0
</event>
<event>
      5   9999  3.19816E-02  3.90863E+01 -1.00000E+00  1.45465E-01
      21    -1     0     0   512   501  0.000000000E+00  0.000000000E+00  3.406634863E+02  3.406634863E+02  0.000000000E+00  0.00000E+00  9.000E+00
      21    -1     0     0   501   502  0.000000000E+00  0.000000000E+00 -6.554589270E+02  6.554589270E+02  0.000000000E+00  0.00000E+00  9.000E+00
      25     1     1     2     0     0 -1.117693506E+02  1.656252065E+02 -5.783850031E+02  6.245624937E+02  1.250000000E+02  0.00000E+00  9.000E+00
      25     1     1     2     0     0  7.297810570E+01 -1.608320487E+02  1.887624907E+02  2.871393907E+02  1.250000000E+02  0.00000E+00  9.000E+00
      21     1     1     2   512   502  3.879124490E+01 -4.793157812E+00  7.482707165E+01  8.442052887E+01  1.907348633E-06  0.00000E+00  9.000E+00
#rwgt            1           1   2.6880877496839792E-002           3       46199           0
</event>
<event>
      5   9999  3.19816E-02  7.83146E+01 -1.00000E+00  1.28799E-01
      21    -1     0     0   502   501  0.000000000E+00  0.000000000E+00  5.829096598E+02  5.829096598E+02  0.000000000E+00  0.00000E+00  9.000E+00
      21    -1     0     0   501   511  0.000000000E+00  0.000000000E+00 -2.569576788E+03  2.569576788E+03  0.000000000E+00  0.00000E+00  9.000E+00
      25     1     1     2     0     0 -8.913851127E+01 -6.709021298E+02  2.660612005E+02  7.378813620E+02  1.250000000E+02  0.00000E+00  9.000E+00
      25     1     1     2     0     0  1.550764071E+02  7.131558245E+02 -1.671992795E+03  1.828612815E+03  1.250000000E+02  0.00000E+00  9.000E+00
      21     1     1     2   502   511 -6.593789584E+01 -4.225369473E+01 -5.807355343E+02  5.859922710E+02  0.000000000E+00  0.00000E+00  9.000E+00
#rwgt            1           1   3.5084414328735387E-002           3       46351           0
</event>
<event>
      5   9999  3.19816E-02  2.88904E+02 -1.00000E+00  1.06127E-01
      21    -1     0     0   502   501  0.000000000E+00  0.000000000E+00  1.576589715E+03  1.576589715E+03  0.000000000E+00  0.00000E+00  9.000E+00
      21    -1     0     0   501   512  0.000000000E+00  0.000000000E+00 -1.401288548E+02  1.401288548E+02  0.000000000E+00  0.00000E+00  9.000E+00
      25     1     1     2     0     0  4.407420465E+01 -7.006822615E+01  2.379534836E+02  2.812453594E+02  1.250000000E+02  0.00000E+00  9.000E+00
      25     1     1     2     0     0 -9.264757659E+01 -2.147230421E+02  1.098031149E+03  1.129595929E+03  1.250000000E+02  0.00000E+00  9.000E+00
      21     1     1     2   502   512  4.857337194E+01  2.847912682E+02  1.004762272E+02  3.058772812E+02  3.303624740E-06  0.00000E+00  9.000E+00
#rwgt            2          11   6.5900829489852104E-003           3       46467           0
</event>
<event>
      5   9999  3.19816E-02  4.58479E+01 -1.00000E+00  1.41258E-01
      21    -1     0     0   502   501  0.000000000E+00  0.000000000E+00  4.213932769E+02  4.213932769E+02  0.000000000E+00  0.00000E+00  9.000E+00
      21    -1     0     0   501   511  0.000000000E+00  0.000000000E+00 -8.040977300E+02  8.040977300E+02  0.000000000E+00  0.00000E+00  9.000E+00
      25     1     1     2     0     0  2.568331495E+00 -1.713136904E+02  3.621393423E+02  4.196723484E+02  1.250000000E+02  0.00000E+00  9.000E+00
      25     1     1     2     0     0 -4.700570435E+01  1.825984837E+02 -7.177651939E+02  7.525713362E+02  1.250000000E+02  0.00000E+00  9.000E+00
      21     1     1     2   502   511  4.443737286E+01 -1.128479333E+01 -2.707860143E+01  5.324732221E+01  8.259061849E-07  0.00000E+00  9.000E+00
#rwgt            1           1   2.6682556031728616E-002           3       46502           0
</event>
<event>
      5   9999  3.19816E-02  6.35977E+01 -1.00000E+00  1.33366E-01
       2    -1     0     0   502     0  0.000000000E+00  0.000000000E+00  3.758329978E+03  3.758329978E+03  0.000000000E+00  0.00000E+00  9.000E+00
      21    -1     0     0   501   502  0.000000000E+00  0.000000000E+00 -9.174495326E+01  9.174495326E+01  0.000000000E+00  0.00000E+00  9.000E+00
      25     1     1     2     0     0  2.082871602E+02  8.546069316E+01  1.464266080E+03  1.486737107E+03  1.250000000E+02  0.00000E+00  9.000E+00
      25     1     1     2     0     0 -1.737944998E+02 -1.388922014E+02  1.234197368E+02  2.834660530E+02  1.250000000E+02  0.00000E+00  9.000E+00
       2     1     1     2   501     0 -3.449266039E+01  5.343150826E+01  2.078899208E+03  2.079871772E+03  3.051757812E-05  0.00000E+00  9.000E+00
#rwgt            1           1   2.8538134630887044E-002           3       46583           0
</event>
<event>
      5   9999  3.19816E-02  2.02569E+01 -1.00000E+00  1.65913E-01
       2    -1     0     0   502     0  0.000000000E+00  0.000000000E+00  3.077503034E+02  3.077503034E+02  0.000000000E+00  0.00000E+00  9.000E+00
      21    -1     0     0   501   502  0.000000000E+00  0.000000000E+00 -3.166292042E+02  3.166292042E+02  0.000000000E+00  0.00000E+00  9.000E+00
      25     1     1     2     0     0 -1.490679408E+02 -4.213573438E+01  1.206356034E+02  2.327544197E+02  1.250000000E+02  0.00000E+00  9.000E+00
      25     1     1     2     0     0  1.437484771E+02  2.258976182E+01 -2.240445636E+02  2.949489591E+02  1.250000000E+02  0.00000E+00  9.000E+00
       2     1     1     2   501     0  5.319463623E+00  1.954597257E+01  9.453005940E+01  9.667612874E+01  1.348699152E-06  0.00000E+00  9.000E+00
#rwgt            1           1   2.9951914753024694E-002           3       46657           0
</event>
<event>
      5   9999  3.19816E-02  7.74744E+01 -1.00000E+00  1.29027E-01
      21    -1     0     0   502   511  0.000000000E+00  0.000000000E+00  5.041542053E+02  5.041542053E+02  0.000000000E+00  0.00000E+00  9.000E+00
      21    -1     0     0   501   502  0.000000000E+00  0.000000000E+00 -1.898894188E+02  1.898894188E+02  0.000000000E+00  0.00000E+00  9.000E+00
      25     1     1     2     0     0  2.212637293E+02 -3.842498114E+01  1.071393868E+02  2.784563974E+02  1.250000000E+02  0.00000E+00  9.000E+00
      25     1     1     2     0     0 -1.984742774E+02  1.124717057E+02  9.019914641E+01  2.753231000E+02  1.250000000E+02  0.00000E+00  9.000E+00
      21     1     1     2   501   511 -2.278945182E+01 -7.404672454E+01  1.169262533E+02  1.402641267E+02  0.000000000E+00  0.00000E+00  9.000E+00
#rwgt            1           1   2.5005923130165291E-002           3       46792           0
</event>
<event>
      5   9999  3.19816E-02  4.80520E+01 -1.00000E+00  1.40067E-01
      21    -1     0     0   502   501  0.000000000E+00  0.000000000E+00  1.614241193E+02  1.614241193E+02  0.000000000E+00  0.00000E+00  9.000E+00
       2    -1     0     0   501     0  0.000000000E+00  0.000000000E+00 -1.771379940E+03  1.771379940E+03  0.000000000E+00  0.00000E+00  9.000E+00
      25     1     1     2     0     0  3.011004053E+01  4.948387315E+02 -7.098096540E+02  8.747723874E+02  1.250000000E+02  0.00000E+00  9.000E+00
      25     1     1     2     0     0 -7.738568113E+01 -4.862359100E+02 -8.230170980E+02  9.671587498E+02  1.250000000E+02  0.00000E+00  9.000E+00
       2     1     1     2   502     0  4.727564060E+01 -8.602821520E+00 -7.712906878E+01  9.087292216E+01  9.536743164E-07  0.00000E+00  9.000E+00
#rwgt            1           1   2.6924191683312001E-002           3       46866           0
</event>
<event>
      5   9999  3.19816E-02  5.03101E+01 -1.00000E+00  1.38922E-01
      21    -1     0     0   511   501  0.000000000E+00  0.000000000E+00  1.216553203E+02  1.216553203E+02  0.000000000E+00  0.00000E+00  9.000E+00
      21    -1     0     0   501   502  0.000000000E+00  0.000000000E+00 -8.310458920E+02  8.310458920E+02  0.000000000E+00  0.00000E+00  9.000E+00
      25     1     1     2     0     0  2.481899585E+02 -6.755310448E+00 -2.079741698E+02  3.471629949E+02  1.250000000E+02  0.00000E+00  9.000E+00
      25     1     1     2     0     0 -2.443758981E+02 -4.340999206E+01 -4.706348795E+02  5.465585026E+02  1.250000000E+02  0.00000E+00  9.000E+00
      21     1     1     2   511   502 -3.814060476E+00  5.016530251E+01 -3.078152239E+01  5.897971477E+01  1.685873940E-06  0.00000E+00  9.000E+00
#rwgt            1           1   2.9076342928348098E-002           3       46956           0
</event>
<event>
      5   9999  3.19816E-02  3.10721E+01 -1.00000E+00  1.51988E-01
      21    -1     0     0   502   501  0.000000000E+00  0.000000000E+00  6.458068512E+02  6.458068512E+02  0.000000000E+00  0.00000E+00  9.000E+00
      21    -1     0     0   512   502  0.000000000E+00  0.000000000E+00 -2.025695104E+02  2.025695104E+02  0.000000000E+00  0.00000E+00  9.000E+00
      25     1     1     2     0     0  3.496778065E+01 -2.126348459E+02  7.554291651E+01  2.603229833E+02  1.250000000E+02  0.00000E+00  9.000E+00
      25     1     1     2     0     0 -4.668463586E+01  1.838564916E+02  4.478025299E+02  5.021302326E+02  1.250000000E+02  0.00000E+00  9.000E+00
      21     1     1     2   512   501  1.171685521E+01  2.877835436E+01 -8.010810563E+01  8.592314567E+01  1.651812370E-06  0.00000E+00  9.000E+00
#rwgt            1           1   2.8039342666648710E-002           3       47066           0
</event>
<event>
      5   9999  3.19816E-02  1.57664E+02 -1.00000E+00  1.15542E-01
      21    -1     0     0   502   501  0.000000000E+00  0.000000000E+00  8.148419605E+02  8.148419605E+02  0.000000000E+00  0.00000E+00  9.000E+00
      -2    -1     0     0     0   502  0.000000000E+00  0.000000000E+00 -1.421696795E+03  1.421696795E+03  0.000000000E+00  0.00000E+00  9.000E+00
      25     1     1     2     0     0 -5.184884805E+01  4.502518589E+02  6.366870478E+02  7.914609506E+02  1.250000000E+02  0.00000E+00  9.000E+00
      25     1     1     2     0     0  1.926653827E+02 -5.211646852E+02 -1.058384250E+03  1.201888015E+03  1.250000000E+02  0.00000E+00  9.000E+00
      -2     1     1     2     0   501 -1.408165347E+02  7.091282629E+01 -1.851576324E+02  2.431897905E+02  2.697398305E-06  0.00000E+00  9.000E+00
#rwgt            2           9   4.3891038063358086E-005           3       47186           0
</event>
<event>
      5   9999  3.19816E-02  1.22400E+02 -1.00000E+00  1.20004E-01
       2    -1     0     0   502     0  0.000000000E+00  0.000000000E+00  4.540313199E+03  4.540313199E+03  0.000000000E+00  0.00000E+00  9.000E+00
      21    -1     0     0   501   502  0.000000000E+00  0.000000000E+00 -1.047571969E+03  1.047571969E+03  0.000000000E+00  0.00000E+00  9.000E+00
      25     1     1     2     0     0 -1.796648157E+03 -5.993287693E+02  2.156666448E+03  2.872973154E+03  1.250000000E+02  0.00000E+00  9.000E+00
      25     1     1     2     0     0  1.685642101E+03  6.508978248E+02  5.126177276E+02  1.882407821E+03  1.250000000E+02  0.00000E+00  9.000E+00
       2     1     1     2   501     0  1.110060565E+02 -5.156905554E+01  8.234570536E+02  8.325041929E+02  1.078959322E-05  0.00000E+00  9.000E+00
#rwgt            2          18   1.6884887758965327E-003           3       47235           0
</event>
<event>
      5   9999  3.19816E-02  1.28706E+01 -1.00000E+00  1.83886E-01
      21    -1     0     0   502   501  0.000000000E+00  0.000000000E+00  1.571067265E+03  1.571067265E+03  0.000000000E+00  0.00000E+00  9.000E+00
      21    -1     0     0   501   511  0.000000000E+00  0.000000000E+00 -2.569569512E+02  2.569569512E+02  0.000000000E+00  0.00000E+00  9.000E+00
      25     1     1     2     0     0 -4.473023991E+01 -3.875623157E+02  9.681662255E+01  4.209558187E+02  1.250000000E+02  0.00000E+00  9.000E+00
      25     1     1     2     0     0  3.190424684E+01  3.886328345E+02  1.279560379E+03  1.343485439E+03  1.250000000E+02  0.00000E+00  9.000E+00
      21     1     1     2   502   511  1.282599308E+01 -1.070518760E+00 -6.226668825E+01  6.358295821E+01  1.651812370E-06  0.00000E+00  9.000E+00
#rwgt            1           1   2.7455938806566216E-002           3       47269           0
</event>
<event>
      5   9999  3.19816E-02  3.43873E+02 -1.00000E+00  1.03701E-01
      21    -1     0     0   502   501  0.000000000E+00  0.000000000E+00  9.300652126E+01  9.300652126E+01  0.000000000E+00  0.00000E+00  9.000E+00
      21    -1     0     0   501   512  0.000000000E+00  0.000000000E+00 -3.083678748E+03  3.083678748E+03  0.000000000E+00  0.00000E+00  9.000E+00
      25     1     1     2     0     0 -2.295760918E+02 -1.025533579E+02 -3.854782631E+02  4.769076058E+02  1.250000000E+02  0.00000E+00  9.000E+00
      25     1     1     2     0     0 -1.100510050E+02  1.564245662E+02 -3.464572927E+02  4.150150892E+02  1.250000000E+02  0.00000E+00  9.000E+00
      21     1     1     2   502   512  3.396270968E+02 -5.387120831E+01 -2.258736671E+03  2.284762574E+03  3.051757812E-05  0.00000E+00  9.000E+00
#rwgt            2          11   6.8018682019287547E-004           3       47667           0
</event>
<event>
      5   9999  3.19816E-02  5.30412E+01 -1.00000E+00  1.37628E-01
      21    -1     0     0   502   501  0.000000000E+00  0.000000000E+00  1.194989566E+03  1.194989566E+03  0.000000000E+00  0.00000E+00  9.000E+00
      21    -1     0     0   511   502  0.000000000E+00  0.000000000E+00 -5.434516463E+02  5.434516463E+02  0.000000000E+00  0.00000E+00  9.000E+00
      25     1     1     2     0     0 -5.668085450E+01  5.190819550E+01  1.165409515E+03  1.174611220E+03  1.250000000E+02  0.00000E+00  9.000E+00
      25     1     1     2     0     0  1.016996676E+02 -2.386048653E+01 -2.792896395E+02  3.233262252E+02  1.250000000E+02  0.00000E+00  9.000E+00
      21     1     1     2   511   501 -4.501881306E+01 -2.804770897E+01 -2.345819564E+02  2.405037667E+02  2.697398305E-06  0.00000E+00  9.000E+00
#rwgt            1           1   3.0675299568712188E-002           3       47687           0
</event>
<event>
      5   9999  3.19816E-02  1.50231E+02 -1.00000E+00  1.16367E-01
       1    -1     0     0   502     0  0.000000000E+00  0.000000000E+00  2.370872011E+03  2.370872011E+03  0.000000000E+00  0.00000E+00  9.000E+00
      21    -1     0     0   501   502  0.000000000E+00  0.000000000E+00 -2.738601108E+02  2.738601108E+02  0.000000000E+00  0.00000E+00  9.000E+00
      25     1     1     2     0     0  1.268904525E+02 -5.107643721E+02  1.284356766E+02  5.559695619E+02  1.250000000E+02  0.00000E+00  9.000E+00
      25     1     1     2     0     0 -2.559918341E+02  4.339394617E+02  1.229801442E+03  1.334867732E+03  1.250000000E+02  0.00000E+00  9.000E+00
       1     1     1     2   501     0  1.291013815E+02  7.682491043E+01  7.387747817E+02  7.538948280E+02  0.000000000E+00  0.00000E+00  9.000E+00
#rwgt            1           1   2.5661945133054320E-002           3       47794           0
</event>
<event>
      5   9999  3.19816E-02  4.01825E+01 -1.00000E+00  1.44718E-01
      21    -1     0     0   502   501  0.000000000E+00  0.000000000E+00  1.176883625E+02  1.176883625E+02  0.000000000E+00  0.00000E+00  9.000E+00
      21    -1     0     0   501   511  0.000000000E+00  0.000000000E+00 -2.096103473E+03  2.096103473E+03  0.000000000E+00  0.00000E+00  9.000E+00
      25     1     1     2     0     0 -1.733711508E+02 -2.768580814E+02 -2.053454723E+02  4.055856459E+02  1.250000000E+02  0.00000E+00  9.000E+00
      25     1     1     2     0     0  1.546986052E+02  2.412776152E+02 -1.504735779E+03  1.536880383E+03  1.250000000E+02  0.00000E+00  9.000E+00
      21     1     1     2   502   511  1.867254560E+01  3.558046626E+01 -2.683338586E+02  2.713258063E+02  0.000000000E+00  0.00000E+00  9.000E+00
#rwgt            1           1   3.0139009640833769E-002           3       47866           0
</event>
<event>
      5   9999  3.19816E-02  3.79027E+02 -1.00000E+00  1.02394E-01
      21    -1     0     0   502   501  0.000000000E+00  0.000000000E+00  1.283910858E+03  1.283910858E+03  0.000000000E+00  0.00000E+00  9.000E+00
       2    -1     0     0   501     0  0.000000000E+00  0.000000000E+00 -1.986106137E+03  1.986106137E+03  0.000000000E+00  0.00000E+00  9.000E+00
      25     1     1     2     0     0 -8.268919491E+01  1.095615123E+03  7.887240204E+02  1.358278536E+03  1.250000000E+02  0.00000E+00  9.000E+00
      25     1     1     2     0     0 -1.432118110E+02 -7.912625431E+02 -1.086519131E+03  1.357481070E+03  1.250000000E+02  0.00000E+00  9.000E+00
       2     1     1     2   502     0  2.259010059E+02 -3.043525796E+02 -4.044001689E+02  5.542573895E+02  7.629394531E-06  0.00000E+00  9.000E+00
#rwgt            1           1   6.1449233574580354E-002           3       47943           0
</event>
<event>
      5   9999  3.19816E-02  2.31044E+02 -1.00000E+00  1.09413E-01
       1    -1     0     0   502     0  0.000000000E+00  0.000000000E+00  2.102042243E+03  2.102042243E+03  0.000000000E+00  0.00000E+00  9.000E+00
      21    -1     0     0   501   502  0.000000000E+00  0.000000000E+00 -4.282727137E+02  4.282727137E+02  0.000000000E+00  0.00000E+00  9.000E+00
      25     1     1     2     0     0 -1.925528136E+02  3.600953437E+02 -1.579244969E+02  4.553135066E+02  1.250000000E+02  0.00000E+00  9.000E+00
      25     1     1     2     0     0  5.640135770E+00 -2.242827973E+02  3.002123114E+01  2.585746674E+02  1.250000000E+02  0.00000E+00  9.000E+00
       1     1     1     2   501     0  1.869126778E+02 -1.358125464E+02  1.801672795E+03  1.816426783E+03  3.051757812E-05  0.00000E+00  9.000E+00
#rwgt            1           1   2.8103267410673274E-002           3       48008           0
</event>
<event>
      5   9999  3.19816E-02  2.03762E+01 -1.00000E+00  1.65704E-01
      21    -1     0     0   502   501  0.000000000E+00  0.000000000E+00  6.341393009E+02  6.341393009E+02  0.000000000E+00  0.00000E+00  9.000E+00
      21    -1     0     0   511   502  0.000000000E+00  0.000000000E+00 -3.343991673E+02  3.343991673E+02  0.000000000E+00  0.00000E+00  9.000E+00
      25     1     1     2     0     0  1.166278945E+02  6.650468508E+01 -2.708023453E+02  3.270838564E+02  1.250000000E+02  0.00000E+00  9.000E+00
      25     1     1     2     0     0 -1.089740653E+02 -8.538876288E+01  5.865811529E+02  6.155233843E+02  1.250000000E+02  0.00000E+00  9.000E+00
      21     1     1     2   511   501 -7.653829203E+00  1.888407780E+01 -1.603867406E+01  2.593122753E+01  5.331201500E-07  0.00000E+00  9.000E+00
#rwgt            1           1   2.7922577855097785E-002           3       48062           0
</event>
<event>
      5   9999  3.19816E-02  6.06397E+01 -1.00000E+00  1.34458E-01
      21    -1     0     0   502   501  0.000000000E+00  0.000000000E+00  4.987354012E+02  4.987354012E+02  0.000000000E+00  0.00000E+00  9.000E+00
       1    -1     0     0   501     0  0.000000000E+00  0.000000000E+00 -4.251271055E+02  4.251271055E+02  0.000000000E+00  0.00000E+00  9.000E+00
      25     1     1     2     0     0 -5.108699895E+01 -8.705403737E+00  3.620822955E+02  3.865414004E+02  1.250000000E+02  0.00000E+00  9.000E+00
      25     1     1     2     0     0  7.112816111E+01  6.593765182E+01  7.053574573E+01  1.732260969E+02  1.250000000E+02  0.00000E+00  9.000E+00
       1     1     1     2   502     0 -2.004116216E+01 -5.723224808E+01 -3.590097456E+02  3.640950094E+02  5.394796609E-06  0.00000E+00  9.000E+00
#rwgt            1           1   3.2375102771004687E-002           3       48213           0
</event>
<event>
      5   9999  3.19816E-02  4.33083E+01 -1.00000E+00  1.42732E-01
      21    -1     0     0   502   501  0.000000000E+00  0.000000000E+00  1.504227248E+02  1.504227248E+02  0.000000000E+00  0.00000E+00  9.000E+00
      21    -1     0     0   511   502  0.000000000E+00  0.000000000E+00 -1.071226761E+03  1.071226761E+03  0.000000000E+00  0.00000E+00  9.000E+00
      25     1     1     2     0     0 -1.044746126E+02  3.421804428E+02 -2.806781711E+02  4.716011406E+02  1.250000000E+02  0.00000E+00  9.000E+00
      25     1     1     2     0     0  7.303242926E+01 -3.123979462E+02 -5.334608384E+02  6.349265143E+02  1.250000000E+02  0.00000E+00  9.000E+00
      21     1     1     2   511   501  3.144218333E+01 -2.978249663E+01 -1.066650271E+02  1.151218311E+02  0.000000000E+00  0.00000E+00  9.000E+00
#rwgt            1           1   2.9688906853642331E-002           3       48270           0
</event>
<event>
      5   9999  3.19816E-02  3.82311E+01 -1.00000E+00  1.46069E-01
      21    -1     0     0   502   501  0.000000000E+00  0.000000000E+00  4.782170943E+02  4.782170943E+02  0.000000000E+00  0.00000E+00  9.000E+00
      21    -1     0     0   501   512  0.000000000E+00  0.000000000E+00 -5.159752044E+02  5.159752044E+02  0.000000000E+00  0.00000E+00  9.000E+00
      25     1     1     2     0     0  1.600571977E+02 -4.885874504E+01  3.597566100E+02  4.159991609E+02  1.250000000E+02  0.00000E+00  9.000E+00
      25     1     1     2     0     0 -1.946972087E+02  3.268200785E+01 -6.369651213E+01  2.421928207E+02  1.250000000E+02  0.00000E+00  9.000E+00
      21     1     1     2   502   512  3.464001105E+01  1.617673719E+01 -3.338182079E+02  3.360003171E+02  5.394796609E-06  0.00000E+00  9.000E+00
#rwgt            1           1   2.8329342775722414E-002           3       48368           0
</event>
<event>
      5   9999  3.19816E-02  1.40292E+02 -1.00000E+00  1.17557E-01
      21    -1     0     0   502   511  0.000000000E+00  0.000000000E+00  3.317704850E+02  3.317704850E+02  0.000000000E+00  0.00000E+00  9.000E+00
      21    -1     0     0   501   502  0.000000000E+00  0.000000000E+00 -4.925146799E+02  4.925146799E+02  0.000000000E+00  0.00000E+00  9.000E+00
      25     1     1     2     0     0 -7.163940633E+01  1.266009421E+02 -1.187379866E+02  2.255741841E+02  1.250000000E+02  0.00000E+00  9.000E+00
      25     1     1     2     0     0  2.003692301E+02 -7.082955592E+01 -2.478544821E+02  3.496019146E+02  1.250000000E+02  0.00000E+00  9.000E+00
      21     1     1     2   501   511 -1.287298238E+02 -5.577138616E+01  2.058482738E+02  2.491090662E+02  3.814697266E-06  0.00000E+00  9.000E+00
#rwgt            2          11   3.8161411717835469E-003           3       48705           0
</event>
<event>
      5   9999  3.19816E-02  5.79610E+01 -1.00000E+00  1.35511E-01
      21    -1     0     0   502   501  0.000000000E+00  0.000000000E+00  1.321147897E+03  1.321147897E+03  0.000000000E+00  0.00000E+00  9.000E+00
      21    -1     0     0   501   512  0.000000000E+00  0.000000000E+00 -6.001702406E+02  6.001702406E+02  0.000000000E+00  0.00000E+00  9.000E+00
      25     1     1     2     0     0 -3.073294929E+00  2.248581631E+02  7.173711067E+02  7.621134714E+02  1.250000000E+02  0.00000E+00  9.000E+00
      25     1     1     2     0     0 -5.234288031E+01 -2.078720515E+02  5.533354491E+02  6.064286323E+02  1.250000000E+02  0.00000E+00  9.000E+00
      21     1     1     2   502   512  5.541617524E+01 -1.698611166E+01 -5.497288995E+02  5.527760337E+02  0.000000000E+00  0.00000E+00  9.000E+00
#rwgt            1           1   3.0693440426888610E-002           3       48725           0
</event>
<event>
      5   9999  3.19816E-02  6.89413E+02 -1.00000E+00  9.50439E-02
      21    -1     0     0   502   501  0.000000000E+00  0.000000000E+00  5.975606608E+02  5.975606608E+02  0.000000000E+00  0.00000E+00  9.000E+00
       2    -1     0     0   501     0  0.000000000E+00  0.000000000E+00 -4.472015670E+03  4.472015670E+03  0.000000000E+00  0.00000E+00  9.000E+00
      25     1     1     2     0     0 -3.206892967E+02  1.703967088E+02  3.893791394E+02  5.469166094E+02  1.250000000E+02  0.00000E+00  9.000E+00
      25     1     1     2     0     0 -1.683055822E+02 -6.563742544E+02 -1.214359442E+03  1.396226265E+03  1.250000000E+02  0.00000E+00  9.000E+00
       2     1     1     2   502     0  4.889948789E+02  4.859775456E+02 -3.049474707E+03  3.126433456E+03  4.315837288E-05  0.00000E+00  9.000E+00
#rwgt            2          13   4.8215628186784869E-004           3       48795           0
</event>
<event>
      5   9999  3.19816E-02  2.24198E+02 -1.00000E+00  1.09872E-01
      21    -1     0     0   502   501  0.000000000E+00  0.000000000E+00  5.164377532E+02  5.164377532E+02  0.000000000E+00  0.00000E+00  9.000E+00
       4    -1     0     0   501     0  0.000000000E+00  0.000000000E+00 -6.166859902E+02  6.166859902E+02  0.000000000E+00  0.00000E+00  9.000E+00
      25     1     1     2     0     0  3.642119371E+02 -1.643064626E+01 -1.856490716E+02  4.277977081E+02  1.250000000E+02  0.00000E+00  9.000E+00
      25     1     1     2     0     0 -2.351364254E+02 -1.668839289E+02  2.704548001E+02  4.146205291E+02  1.250000000E+02  0.00000E+00  9.000E+00
       4     1     1     2   502     0 -1.290755116E+02  1.833145752E+02 -1.850539655E+02  2.907055062E+02  2.697398305E-06  0.00000E+00  9.000E+00
#rwgt            2          15   2.6121654818337878E-005           3       48889           0
</event>
<event>
      5   9999  3.19816E-02  8.46420E+01 -1.00000E+00  1.27175E-01
      21    -1     0     0   511   501  0.000000000E+00  0.000000000E+00  9.126927678E+02  9.126927678E+02  0.000000000E+00  0.00000E+00  9.000E+00
      21    -1     0     0   501   502  0.000000000E+00  0.000000000E+00 -1.002757738E+03  1.002757738E+03  0.000000000E+00  0.00000E+00  9.000E+00
      25     1     1     2     0     0 -6.745965742E+02 -5.771932811E+02  9.149343131E+01  9.012372993E+02  1.250000000E+02  0.00000E+00  9.000E+00
      25     1     1     2     0     0  6.288634800E+02  6.484165181E+02 -1.804164027E+02  9.295635190E+02  1.250000000E+02  0.00000E+00  9.000E+00
      21     1     1     2   511   502  4.573309423E+01 -7.122323703E+01 -1.141998606E+00  8.464968731E+01  1.761049970E-06  0.00000E+00  9.000E+00
#rwgt            1           1   2.7132887990540311E-002           3       48908           0
</event>
<event>
      5   9999  3.19816E-02  2.95111E+02 -1.00000E+00  1.05824E-01
      21    -1     0     0   502   501  0.000000000E+00  0.000000000E+00  1.554095886E+02  1.554095886E+02  0.000000000E+00  0.00000E+00  9.000E+00
       1    -1     0     0   501     0  0.000000000E+00  0.000000000E+00 -1.001093529E+03  1.001093529E+03  0.000000000E+00  0.00000E+00  9.000E+00
      25     1     1     2     0     0 -3.056569161E+01 -4.099448438E+01 -1.536587053E+02  2.045746977E+02  1.250000000E+02  0.00000E+00  9.000E+00
      25     1     1     2     0     0  2.852157235E+02 -1.081500173E+02 -5.032445344E+02  6.016016095E+02  1.250000000E+02  0.00000E+00  9.000E+00
       1     1     1     2   502     0 -2.546500319E+02  1.491445016E+02 -1.887807010E+02  3.503268105E+02  7.136645101E-06  0.00000E+00  9.000E+00
#rwgt            2          12   3.2113328241476505E-004           3       49140           0
</event>
<event>
      5   9999  3.19816E-02  1.86652E+01 -1.00000E+00  1.68883E-01
      21    -1     0     0   502   501  0.000000000E+00  0.000000000E+00  2.744702418E+02  2.744702418E+02  0.000000000E+00  0.00000E+00  9.000E+00
      21    -1     0     0   501   511  0.000000000E+00  0.000000000E+00 -5.191370222E+02  5.191370222E+02  0.000000000E+00  0.00000E+00  9.000E+00
      25     1     1     2     0     0 -1.570364398E+02  1.891860387E+02 -1.928454950E+02  3.365504206E+02  1.250000000E+02  0.00000E+00  9.000E+00
      25     1     1     2     0     0  1.721442032E+02 -2.001470431E+02  9.645887684E+01  3.076065352E+02  1.250000000E+02  0.00000E+00  9.000E+00
      21     1     1     2   502   511 -1.510776344E+01  1.096100441E+01 -1.482801621E+02  1.494503082E+02  1.907348633E-06  0.00000E+00  9.000E+00
#rwgt            1           1   2.7546381881874801E-002           3       49159           0
</event>
<event>
      5   9999  3.19816E-02  3.50111E+01 -1.00000E+00  1.48522E-01
      21    -1     0     0   502   501  0.000000000E+00  0.000000000E+00  1.024493240E+03  1.024493240E+03  0.000000000E+00  0.00000E+00  9.000E+00
      21    -1     0     0   501   512  0.000000000E+00  0.000000000E+00 -1.093390291E+02  1.093390291E+02  0.000000000E+00  0.00000E+00  9.000E+00
      25     1     1     2     0     0  2.015216769E+02  2.100491966E+02  5.764543562E+02  6.577661256E+02  1.250000000E+02  0.00000E+00  9.000E+00
      25     1     1     2     0     0 -1.668470396E+02 -2.148914771E+02  2.990070262E+02  4.231388463E+02  1.250000000E+02  0.00000E+00  9.000E+00
      21     1     1     2   502   512 -3.467463728E+01  4.842280528E+00  3.969282876E+01  5.292729736E+01  0.000000000E+00  0.00000E+00  9.000E+00
#rwgt            1           1   2.9436005462953409E-002           3       49340           0
</event>
<event>
      5   9999  3.19816E-02  2.36017E+01 -1.00000E+00  1.60646E-01
      21    -1     0     0   511   501  0.000000000E+00  0.000000000E+00  5.913015087E+02  5.913015087E+02  0.000000000E+00  0.00000E+00  9.000E+00
      21    -1     0     0   501   502  0.000000000E+00  0.000000000E+00 -8.628172514E+01  8.628172514E+01  0.000000000E+00  0.00000E+00  9.000E+00
      25     1     1     2     0     0  1.835287592E+01  1.426301820E+02  1.750874244E+02  2.587678555E+02  1.250000000E+02  0.00000E+00  9.000E+00
      25     1     1     2     0     0 -8.679313050E+00 -1.641583632E+02  2.025534981E+02  2.892684190E+02  1.250000000E+02  0.00000E+00  9.000E+00
      21     1     1     2   511   502 -9.673562873E+00  2.152818115E+01  1.273788611E+02  1.295469593E+02  1.907348633E-06  0.00000E+00  9.000E+00
#rwgt            1           1   2.4667392399249439E-002           3       49442           0
</event>
<event>
      5   9999  3.19816E-02  1.32406E+02 -1.00000E+00  1.18582E-01
      21    -1     0     0   502   512  0.000000000E+00  0.000000000E+00  1.403087547E+02  1.403087547E+02  0.000000000E+00  0.00000E+00  9.000E+00
      21    -1     0     0   501   502  0.000000000E+00  0.000000000E+00 -1.170491892E+03  1.170491892E+03  0.000000000E+00  0.00000E+00  9.000E+00
      25     1     1     2     0     0 -1.893631262E+02  4.293745708E+01 -7.907897644E+02  8.238176196E+02  1.250000000E+02  0.00000E+00  9.000E+00
      25     1     1     2     0     0  2.413538535E+02  7.883446188E+01 -2.071215595E+02  3.507005780E+02  1.250000000E+02  0.00000E+00  9.000E+00
      21     1     1     2   501   512 -5.199072731E+01 -1.217719190E+02 -3.227181321E+01  1.362824490E+02  1.507891493E-06  0.00000E+00  9.000E+00
#rwgt            1           1   2.9799944245420443E-002           3       49548           0
</event>
<event>
      5   9999  3.19816E-02  5.18447E+01 -1.00000E+00  1.38184E-01
      21    -1     0     0   511   501  0.000000000E+00  0.000000000E+00  1.239650689E+03  1.239650689E+03  0.000000000E+00  0.00000E+00  9.000E+00
      21    -1     0     0   501   502  0.000000000E+00  0.000000000E+00 -3.561278062E+02  3.561278062E+02  0.000000000E+00  0.00000E+00  9.000E+00
      25     1     1     2     0     0  3.077518948E+02 -2.372953337E+02  8.203411544E+02  9.162995765E+02  1.250000000E+02  0.00000E+00  9.000E+00
      25     1     1     2     0     0 -3.595190038E+02  2.401306103E+02 -1.387885954E+02  4.709606123E+02  1.250000000E+02  0.00000E+00  9.000E+00
      21     1     1     2   511   502  5.176710901E+01 -2.835276523E+00  2.019703235E+02  2.085183060E+02  2.697398305E-06  0.00000E+00  9.000E+00
#rwgt            1           1   3.0465417391108557E-002           3       49600           0
</event>
<event>
      5   9999  3.19816E-02  3.26046E+01 -1.00000E+00  1.50570E-01
      21    -1     0     0   502   501  0.000000000E+00  0.000000000E+00  2.110966691E+02  2.110966691E+02  0.000000000E+00  0.00000E+00  9.000E+00
      21    -1     0     0   501   512  0.000000000E+00  0.000000000E+00 -6.501246914E+02  6.501246914E+02  0.000000000E+00  0.00000E+00  9.000E+00
      25     1     1     2     0     0  6.794414578E+01  2.527266171E+02 -4.195071724E+02  5.099984487E+02  1.250000000E+02  0.00000E+00  9.000E+00
      25     1     1     2     0     0 -8.472118327E+01 -2.247697271E+02  4.914645723E+01  2.752080728E+02  1.250000000E+02  0.00000E+00  9.000E+00
      21     1     1     2   502   512  1.677703749E+01 -2.795689007E+01 -6.866730709E+01  7.601483903E+01  9.536743164E-07  0.00000E+00  9.000E+00
#rwgt            1           1   2.7967159469083250E-002           3       49752           0
</event>
<event>
      5   9999  3.19816E-02  1.50202E+01 -1.00000E+00  1.77329E-01
      21    -1     0     0   502   501  0.000000000E+00  0.000000000E+00  3.363677744E+02  3.363677744E+02  0.000000000E+00  0.00000E+00  9.000E+00
      21    -1     0     0   501   511  0.000000000E+00  0.000000000E+00 -3.491965714E+02  3.491965714E+02  0.000000000E+00  0.00000E+00  9.000E+00
      25     1     1     2     0     0 -1.165657299E+02 -2.726984601E+02  5.072098268E+01  3.258061350E+02  1.250000000E+02  0.00000E+00  9.000E+00
      25     1     1     2     0     0  1.217240270E+02  2.868051510E+02 -4.977229730E+01  3.393762145E+02  1.250000000E+02  0.00000E+00  9.000E+00
      21     1     1     2   502   511 -5.158297056E+00 -1.410669087E+01 -1.377748233E+01  2.038199635E+01  2.920019320E-07  0.00000E+00  9.000E+00
#rwgt            1           1   2.8372203411419560E-002           3       49881           0
</event>
<event>
      5   9999  3.19816E-02  1.93289E+01 -1.00000E+00  1.67601E-01
      -1    -1     0     0     0   501  0.000000000E+00  0.000000000E+00  2.890835459E+02  2.890835459E+02  0.000000000E+00  0.00000E+00  9.000E+00
      21    -1     0     0   501   502  0.000000000E+00  0.000000000E+00 -1.197840991E+03  1.197840991E+03  0.000000000E+00  0.00000E+00  9.000E+00
      25     1     1     2     0     0  3.294719516E+01 -1.075769242E+02 -1.104428423E+03  1.117159547E+03  1.250000000E+02  0.00000E+00  9.000E+00
      25     1     1     2     0     0 -4.172595143E+01  9.035654539E+01 -1.289829722E+01  1.603019850E+02  1.250000000E+02  0.00000E+00  9.000E+00
      -1     1     1     2     0   502  8.778756271E+00  1.722037886E+01  2.085692749E+02  2.094630050E+02  3.814697266E-06  0.00000E+00  9.000E+00
#rwgt            1           1   2.3526945842684534E-002           3       50085           0
</event>
<event>
      5   9999  3.19816E-02  9.08042E+01 -1.00000E+00  1.25742E-01
      21    -1     0     0   511   501  0.000000000E+00  0.000000000E+00  1.984223999E+02  1.984223999E+02  0.000000000E+00  0.00000E+00  9.000E+00
      21    -1     0     0   501   502  0.000000000E+00  0.000000000E+00 -4.342476170E+02  4.342476170E+02  0.000000000E+00  0.00000E+00  9.000E+00
      25     1     1     2     0     0 -1.268312129E+02 -1.030845077E+00 -1.616573660E+02  2.405105469E+02  1.250000000E+02  0.00000E+00  9.000E+00
      25     1     1     2     0     0  8.938877676E+01 -8.169441430E+01 -1.815743226E+02  2.515125551E+02  1.250000000E+02  0.00000E+00  9.000E+00
      21     1     1     2   511   502  3.744243609E+01  8.272525938E+01  1.074064715E+02  1.406469149E+02  1.348699152E-06  0.00000E+00  9.000E+00
#rwgt            1           1   3.6285037011022120E-002           3       50200           0
</event>
<event>
      5   9999  3.19816E-02  2.01544E+01 -1.00000E+00  1.66094E-01
      21    -1     0     0   502   501  0.000000000E+00  0.000000000E+00  3.134812457E+01  3.134812457E+01  0.000000000E+00  0.00000E+00  9.000E+00
       2    -1     0     0   501     0  0.000000000E+00  0.000000000E+00 -2.498696403E+03  2.498696403E+03  0.000000000E+00  0.00000E+00  9.000E+00
      25     1     1     2     0     0  2.115137952E+02  2.524899400E+01 -8.775048909E+02  9.116004776E+02  1.250000000E+02  0.00000E+00  9.000E+00
      25     1     1     2     0     0 -2.218907411E+02 -4.252668854E+01 -1.171575279E+03  1.199690650E+03  1.250000000E+02  0.00000E+00  9.000E+00
       2     1     1     2   502     0  1.037694589E+01  1.727769454E+01 -4.182681080E+02  4.187533999E+02  5.394796609E-06  0.00000E+00  9.000E+00
#rwgt            1           1   8.0283470782867808E-002           3       50278           0
</event>
<event>
      5   9999  3.19816E-02  7.86592E+01 -1.00000E+00  1.28706E-01
      21    -1     0     0   502   501  0.000000000E+00  0.000000000E+00  8.183941082E+02  8.183941082E+02  0.000000000E+00  0.00000E+00  9.000E+00
      21    -1     0     0   501   511  0.000000000E+00  0.000000000E+00 -2.350569800E+02  2.350569800E+02  0.000000000E+00  0.00000E+00  9.000E+00
      25     1     1     2     0     0  1.645707441E+02 -3.136919429E+02  4.098508426E+01  3.778768873E+02  1.250000000E+02  0.00000E+00  9.000E+00
      25     1     1     2     0     0 -1.176228626E+02  2.505795745E+02  5.030802238E+02  5.876563388E+02  1.250000000E+02  0.00000E+00  9.000E+00
      21     1     1     2   502   511 -4.694788148E+01  6.311236840E+01  3.927182008E+01  8.791786208E+01  4.768371582E-07  0.00000E+00  9.000E+00
#rwgt            1           1   2.8318665521184949E-002           3       50404           0
</event>
<event>
      5   9999  3.19816E-02  4.19787E+01 -1.00000E+00  1.43552E-01
       1    -1     0     0   502     0  0.000000000E+00  0.000000000E+00  7.394777411E+02  7.394777411E+02  0.000000000E+00  0.00000E+00  9.000E+00
      21    -1     0     0   501   502  0.000000000E+00  0.000000000E+00 -3.713831532E+02  3.713831532E+02  0.000000000E+00  0.00000E+00  9.000E+00
      25     1     1     2     0     0  2.080363735E+02 -4.270900156E+01  2.082018833E+02  3.226084557E+02  1.250000000E+02  0.00000E+00  9.000E+00
      25     1     1     2     0     0 -1.778082859E+02  7.183754180E+01 -2.713279367E+02  3.549933354E+02  1.250000000E+02  0.00000E+00  9.000E+00
       1     1     1     2   501     0 -3.022808758E+01 -2.912854023E+01  4.312206413E+02  4.332591033E+02  5.394796609E-06  0.00000E+00  9.000E+00
#rwgt            1           1   2.6824079994156945E-002           3       50478           0
</event>
<event>
      5   9999  3.19816E-02  1.06385E+02 -1.00000E+00  1.22631E-01
      21    -1     0     0   511   501  0.000000000E+00  0.000000000E+00  1.090806537E+03  1.090806537E+03  0.000000000E+00  0.00000E+00  9.000E+00
      21    -1     0     0   501   502  0.000000000E+00  0.000000000E+00 -2.052283140E+03  2.052283140E+03  0.000000000E+00  0.00000E+00  9.000E+00
      25     1     1     2     0     0  1.279337699E+03  3.795868794E+02 -2.022346670E+02  1.355475934E+03  1.250000000E+02  0.00000E+00  9.000E+00
      25     1     1     2     0     0 -1.220928619E+03 -2.906703708E+02 -9.433215179E+02  1.575003633E+03  1.250000000E+02  0.00000E+00  9.000E+00
      21     1     1     2   511   502 -5.840908069E+01 -8.891650860E+01  1.840795817E+02  2.126101094E+02  0.000000000E+00  0.00000E+00  9.000E+00
#rwgt            1           1   5.7070676090981973E-002           3       50533           0
</event>
<event>
      5   9999  3.19816E-02  1.45917E+02 -1.00000E+00  1.16871E-01
       2    -1     0     0   502     0  0.000000000E+00  0.000000000E+00  1.188369317E+03  1.188369317E+03  0.000000000E+00  0.00000E+00  9.000E+00
      21    -1     0     0   501   502  0.000000000E+00  0.000000000E+00 -1.928204183E+02  1.928204183E+02  0.000000000E+00  0.00000E+00  9.000E+00
      25     1     1     2     0     0 -1.324493108E+01 -1.472230201E+02  2.637097697E+02  3.271358869E+02  1.250000000E+02  0.00000E+00  9.000E+00
      25     1     1     2     0     0  1.042784455E+01  1.332808978E+00 -1.295873248E+02  1.803562892E+02  1.250000000E+02  0.00000E+00  9.000E+00
       2     1     1     2   501     0  2.817086530E+00  1.458902111E+02  8.614264536E+02  8.736975590E+02  1.078959322E-05  0.00000E+00  9.000E+00
#rwgt            1           1   3.3395369571023688E-002           3       50658           0
</event>
<event>
      5   9999  3.19816E-02  2.74746E+01 -1.00000E+00  1.55741E-01
      21    -1     0     0   511   501  0.000000000E+00  0.000000000E+00  1.338296555E+03  1.338296555E+03  0.000000000E+00  0.00000E+00  9.000E+00
      21    -1     0     0   501   502  0.000000000E+00  0.000000000E+00 -2.412762183E+02  2.412762183E+02  0.000000000E+00  0.00000E+00  9.000E+00
      25     1     1     2     0     0  2.948942437E+02 -3.694421073E+02  2.059571084E+02  5.305595312E+02  1.250000000E+02  0.00000E+00  9.000E+00
      25     1     1     2     0     0 -2.944684055E+02  3.969134157E+02  7.602456591E+02  9.153416650E+02  1.250000000E+02  0.00000E+00  9.000E+00
      21     1     1     2   511   502 -4.258382509E-01 -2.747130842E+01  1.308175694E+02  1.336715773E+02  0.000000000E+00  0.00000E+00  9.000E+00
#rwgt            1           1   2.8841935894299734E-002           3       50704           0
</event>
<event>
      5   9999  3.19816E-02  4.07126E+01 -1.00000E+00  1.44366E-01
      21    -1     0     0   502   501  0.000000000E+00  0.000000000E+00  1.080240949E+02  1.080240949E+02  0.000000000E+00  0.00000E+00  9.000E+00
       2    -1     0     0   501     0  0.000000000E+00  0.000000000E+00 -2.497821765E+02  2.497821765E+02  0.000000000E+00  0.00000E+00  9.000E+00
      25     1     1     2     0     0  1.138970331E+01  4.069223209E+01 -4.241373752E+01  1.385983702E+02  1.250000000E+02  0.00000E+00  9.000E+00
      25     1     1     2     0     0 -3.656984920E+01 -7.268406372E+01 -5.489187275E+01  1.589290555E+02  1.250000000E+02  0.00000E+00  9.000E+00
       2     1     1     2   502     0  2.518014589E+01  3.199183162E+01 -4.445247128E+01  6.027884572E+01  6.743495762E-07  0.00000E+00  9.000E+00
#rwgt            1           1   1.4971931330265646E-002           3       50898           0
</event>
<event>
      5   9999  3.19816E-02  2.04424E+01 -1.00000E+00  1.65589E-01
      21    -1     0     0   502   501  0.000000000E+00  0.000000000E+00  3.409213753E+02  3.409213753E+02  0.000000000E+00  0.00000E+00  9.000E+00
      21    -1     0     0   501   511  0.000000000E+00  0.000000000E+00 -2.623537897E+02  2.623537897E+02  0.000000000E+00  0.00000E+00  9.000E+00
      25     1     1     2     0     0 -7.435368753E+01 -4.824038895E+01 -4.160568307E+01  1.587817333E+02  1.250000000E+02  0.00000E+00  9.000E+00
      25     1     1     2     0     0  7.316884624E+01  2.783232109E+01  2.622898770E+02  3.009141036E+02  1.250000000E+02  0.00000E+00  9.000E+00
      21     1     1     2   502   511  1.184841288E+00  2.040806786E+01 -1.421166083E+02  1.435793281E+02  1.907348633E-06  0.00000E+00  9.000E+00
#rwgt            1           1   3.3135235601362119E-002           3       51001           0
</event>
<event>
      5   9999  3.19816E-02  1.66757E+01 -1.00000E+00  1.73158E-01
      21    -1     0     0   502   512  0.000000000E+00  0.000000000E+00  4.780407316E+02  4.780407316E+02  0.000000000E+00  0.00000E+00  9.000E+00
      21    -1     0     0   501   502  0.000000000E+00  0.000000000E+00 -2.643125074E+03  2.643125074E+03  0.000000000E+00  0.00000E+00  9.000E+00
      25     1     1     2     0     0  1.058262113E+02 -4.315356381E+02 -2.752776134E+02  5.374243746E+02  1.250000000E+02  0.00000E+00  9.000E+00
      25     1     1     2     0     0 -1.112464479E+02  4.157654270E+02 -2.214107777E+03  2.259011932E+03  1.250000000E+02  0.00000E+00  9.000E+00
      21     1     1     2   501   512  5.420236561E+00  1.577021108E+01  3.243010473E+02  3.247294994E+02  5.394796609E-06  0.00000E+00  9.000E+00
#rwgt            1           1   1.7704520401534102E-002           3       51119           0
</event>
<event>
      5   9999  3.19816E-02  7.57883E+01 -1.00000E+00  1.29497E-01
      21    -1     0     0   502   501  0.000000000E+00  0.000000000E+00  1.369011762E+03  1.369011762E+03  0.000000000E+00  0.00000E+00  9.000E+00
      21    -1     0     0   511   502  0.000000000E+00  0.000000000E+00 -1.250689381E+02  1.250689381E+02  0.000000000E+00  0.00000E+00  9.000E+00
      25     1     1     2     0     0 -3.297880096E+01  2.186361967E+02  5.571289593E+02  6.122965500E+02  1.250000000E+02  0.00000E+00  9.000E+00
      25     1     1     2     0     0  1.024769582E+02 -1.884058302E+02  7.456194517E+02  7.858572712E+02  1.250000000E+02  0.00000E+00  9.000E+00
      21     1     1     2   511   501 -6.949815720E+01 -3.023036646E+01 -5.880558754E+01  9.592687859E+01  2.939421655E-06  0.00000E+00  9.000E+00
#rwgt            2          11   5.0297328796825467E-003           3       51466           0
</event>
<event>
      5   9999  3.19816E-02  2.76524E+02 -1.00000E+00  1.06755E-01
      -2    -1     0     0     0   501  0.000000000E+00  0.000000000E+00  1.966210218E+03  1.966210218E+03  0.000000000E+00  0.00000E+00  9.000E+00
      21    -1     0     0   501   502  0.000000000E+00  0.000000000E+00 -1.574255090E+02  1.574255090E+02  0.000000000E+00  0.00000E+00  9.000E+00
      25     1     1     2     0     0 -1.803747264E+02  5.303408117E+01  1.518821095E+03  1.535509744E+03  1.250000000E+02  0.00000E+00  9.000E+00
      25     1     1     2     0     0 -3.939718081E+01  1.147925027E+02  2.558045159E+02  3.095002535E+02  1.250000000E+02  0.00000E+00  9.000E+00
      -2     1     1     2     0   502  2.197719072E+02 -1.678265839E+02  3.415909879E+01  2.786257301E+02  5.288379911E-06  0.00000E+00  9.000E+00
#rwgt            1           1   2.8813235167439399E-002           3       51531           0
</event>
<event>
      5   9999  3.19816E-02  5.64386E+01 -1.00000E+00  1.36139E-01
      21    -1     0     0   511   501  0.000000000E+00  0.000000000E+00  2.843674332E+03  2.843674332E+03  0.000000000E+00  0.00000E+00  9.000E+00
      21    -1     0     0   501   502  0.000000000E+00  0.000000000E+00 -3.590001895E+02  3.590001895E+02  0.000000000E+00  0.00000E+00  9.000E+00
      25     1     1     2     0     0  9.660318191E+01 -4.387824554E+01 -9.621017478E+01  1.901022696E+02  1.250000000E+02  0.00000E+00  9.000E+00
      25     1     1     2     0     0 -1.398540285E+02  7.619662114E+00 -1.746812085E+02  2.564288072E+02  1.250000000E+02  0.00000E+00  9.000E+00
      21     1     1     2   511   502  4.325084664E+01  3.625858342E+01  2.755565526E+03  2.756143445E+03  0.000000000E+00  0.00000E+00  9.000E+00
#rwgt            1           1   2.9090334384700614E-002           3       51560           0
</event>
<event>
      5   9999  3.19816E-02  1.98260E+02 -1.00000E+00  1.11786E-01
      21    -1     0     0   502   501  0.000000000E+00  0.000000000E+00  1.040130772E+03  1.040130772E+03  0.000000000E+00  0.00000E+00  9.000E+00
      21    -1     0     0   512   502  0.000000000E+00  0.000000000E+00 -2.736490191E+02  2.736490191E+02  0.000000000E+00  0.00000E+00  9.000E+00
      25     1     1     2     0     0 -1.091750301E+02 -1.149159494E+02  1.562874000E+02  2.552951508E+02  1.250000000E+02  0.00000E+00  9.000E+00
      25     1     1     2     0     0  1.717694858E+02  3.030352804E+02  7.359107315E+02  8.237261330E+02  1.250000000E+02  0.00000E+00  9.000E+00
      21     1     1     2   512   501 -6.259445564E+01 -1.881193310E+02 -1.257163790E+02  2.347585068E+02  4.046097457E-06  0.00000E+00  9.000E+00
#rwgt            1           1   2.9383676327934361E-002           3       51651           0
</event>
<event>
      5   9999  3.19816E-02  2.31966E+01 -1.00000E+00  1.61226E-01
      21    -1     0     0   511   501  0.000000000E+00  0.000000000E+00  3.532195108E+01  3.532195108E+01  0.000000000E+00  0.00000E+00  9.000E+00
      21    -1     0     0   501   502  0.000000000E+00  0.000000000E+00 -7.890339024E+02  7.890339024E+02  0.000000000E+00  0.00000E+00  9.000E+00
      25     1     1     2     0     0  2.388974483E+00  4.999602689E+01 -2.703068645E+02  3.019869383E+02  1.250000000E+02  0.00000E+00  9.000E+00
      25     1     1     2     0     0  1.975445450E+01 -5.690622982E+01 -4.790836716E+02  4.987732169E+02  1.250000000E+02  0.00000E+00  9.000E+00
      21     1     1     2   511   502 -2.214342898E+01  6.910202930E+00 -4.321415259E+00  2.359569837E+01  5.430241572E-07  0.00000E+00  9.000E+00
#rwgt            1           1   2.0432862827260832E-002           3       51691           0
</event>
<event>
      5   9999  3.19816E-02  5.53635E+01 -1.00000E+00  1.36597E-01
      21    -1     0     0   512   501  0.000000000E+00  0.000000000E+00  3.248123904E+02  3.248123904E+02  0.000000000E+00  0.00000E+00  9.000E+00
      21    -1     0     0   501   502  0.000000000E+00  0.000000000E+00 -4.390697904E+02  4.390697904E+02  0.000000000E+00  0.00000E+00  9.000E+00
      25     1     1     2     0     0  2.702430326E+02 -4.987715000E+01  2.748165710E+01  3.031489209E+02  1.250000000E+02  0.00000E+00  9.000E+00
      25     1     1     2     0     0 -2.972779261E+02  9.819103424E+01 -1.902822502E+02  3.871020270E+02  1.250000000E+02  0.00000E+00  9.000E+00
      21     1     1     2   512   502  2.703489350E+01 -4.831388424E+01  4.854319306E+01  7.363123298E+01  1.348699152E-06  0.00000E+00  9.000E+00
#rwgt            1           1   3.2270997719255352E-002           3       51775           0
</event>
<event>
      5   9999  3.19816E-02  6.11838E+01 -1.00000E+00  1.34252E-01
      21    -1     0     0   502   511  0.000000000E+00  0.000000000E+00  1.488297229E+03  1.488297229E+03  0.000000000E+00  0.00000E+00  9.000E+00
      21    -1     0     0   501   502  0.000000000E+00  0.000000000E+00 -1.375147552E+02  1.375147552E+02  0.000000000E+00  0.00000E+00  9.000E+00
      25     1     1     2     0     0 -7.233039165E+01  2.465675458E+02  2.429394806E+02  3.750624367E+02  1.250000000E+02  0.00000E+00  9.000E+00
      25     1     1     2     0     0  1.235160203E+02 -2.800860069E+02  3.186974483E+02  4.592357152E+02  1.250000000E+02  0.00000E+00  9.000E+00
      21     1     1     2   501   511 -5.118562865E+01  3.351846113E+01  7.891455449E+02  7.915138324E+02  1.078959322E-05  0.00000E+00  9.000E+00
#rwgt            1           1   2.7618725795645095E-002           3       51876           0
</event>
<event>
      5   9999  3.19816E-02  2.71938E+01 -1.00000E+00  1.56063E-01
      21    -1     0     0   502   501  0.000000000E+00  0.000000000E+00  4.931159747E+02  4.931159747E+02  0.000000000E+00  0.00000E+00  9.000E+00
      21    -1     0     0   501   512  0.000000000E+00  0.000000000E+00 -4.287271568E+02  4.287271568E+02  0.000000000E+00  0.00000E+00  9.000E+00
      25     1     1     2     0     0  9.551800933E+01 -3.672300529E+02 -9.524604074E+01  4.107047725E+02  1.250000000E+02  0.00000E+00  9.000E+00
      25     1     1     2     0     0 -6.838873000E+01  3.691019157E+02  2.143905552E+02  4.500017253E+02  1.250000000E+02  0.00000E+00  9.000E+00
      21     1     1     2   502   512 -2.712927933E+01 -1.871862819E+00 -5.475569661E+01  6.113663369E+01  6.743495762E-07  0.00000E+00  9.000E+00
#rwgt            1           1   2.6693023580942159E-002           3       51964           0
</event>
<event>
      5   9999  3.19816E-02  2.25822E+02 -1.00000E+00  1.09761E-01
      21    -1     0     0   502   501  0.000000000E+00  0.000000000E+00  1.336198252E+02  1.336198252E+02  0.000000000E+00  0.00000E+00  9.000E+00
      21    -1     0     0   501   511  0.000000000E+00  0.000000000E+00 -9.193749314E+02  9.193749314E+02  0.000000000E+00  0.00000E+00  9.000E+00
      25     1     1     2     0     0 -5.517112015E+01  2.256373705E+01 -3.309151233E+02  3.587238403E+02  1.250000000E+02  0.00000E+00  9.000E+00
      25     1     1     2     0     0  2.429684151E+02  1.028470249E+02 -2.006287966E+02  3.542429609E+02  1.250000000E+02  0.00000E+00  9.000E+00
      21     1     1     2   502   511 -1.877972950E+02 -1.254107620E+02 -2.542111863E+02  3.400279554E+02  3.814697266E-06  0.00000E+00  9.000E+00
#rwgt            1           1   2.8520526141299636E-002           3       52146           0
</event>
<event>
      5   9999  3.19816E-02  8.93884E+01 -1.00000E+00  1.26060E-01
      21    -1     0     0   512   501  0.000000000E+00  0.000000000E+00  1.310861952E+03  1.310861952E+03  0.000000000E+00  0.00000E+00  9.000E+00
      21    -1     0     0   501   502  0.000000000E+00  0.000000000E+00 -7.760711356E+02  7.760711356E+02  0.000000000E+00  0.00000E+00  9.000E+00
      25     1     1     2     0     0  6.437538150E+02  3.412032723E+02  8.228596718E+02  1.106147227E+03  1.250000000E+02  0.00000E+00  9.000E+00
      25     1     1     2     0     0 -7.331236350E+02 -3.430234915E+02 -3.288240988E+02  8.825449948E+02  1.250000000E+02  0.00000E+00  9.000E+00
      21     1     1     2   512   502  8.936981999E+01  1.820219247E+00  4.075524340E+01  9.824086618E+01  1.066240300E-06  0.00000E+00  9.000E+00
#rwgt            1           1   3.6896402915601673E-002           3       52180           0
</event>
<event>
      5   9999  3.19816E-02  1.20307E+02 -1.00000E+00  1.20321E-01
      21    -1     0     0   511   501  0.000000000E+00  0.000000000E+00  2.427440183E+03  2.427440183E+03  0.000000000E+00  0.00000E+00  9.000E+00
      21    -1     0     0   501   502  0.000000000E+00  0.000000000E+00 -4.269788129E+01  4.269788129E+01  0.000000000E+00  0.00000E+00  9.000E+00
      25     1     1     2     0     0  1.500190312E+02 -1.711802089E+02  7.286621501E+02  7.735514868E+02  1.250000000E+02  0.00000E+00  9.000E+00
      25     1     1     2     0     0 -1.249358266E+02  5.351756284E+01  4.787783762E+02  5.131538013E+02  1.250000000E+02  0.00000E+00  9.000E+00
      21     1     1     2   511   502 -2.508320462E+01  1.176626461E+02  1.177301775E+03  1.183432776E+03  1.525878906E-05  0.00000E+00  9.000E+00
#rwgt            1           1   3.0360909838663346E-002           3       52299           0
</event>
<event>
      5   9999  3.42237E-02  1.56178E+02 -1.00000E+00  1.15703E-01
      21    -1     0     0   502   501  0.000000000E+00  0.000000000E+00  2.553739220E+03  2.553739220E+03  0.000000000E+00  0.00000E+00  9.000E+00
      21    -1     0     0   512   502  0.000000000E+00  0.000000000E+00 -4.334274423E+02  4.334274423E+02  0.000000000E+00  0.00000E+00  9.000E+00
      25     1     1     2     0     0 -6.859611697E+02  2.054794127E+02  1.521155436E+03  1.685913217E+03  1.250000000E+02  0.00000E+00  9.000E+00
      25     1     1     2     0     0  6.421319475E+02 -3.553811445E+02  7.691270480E+02  1.070425435E+03  1.250000000E+02  0.00000E+00  9.000E+00
      21     1     1     2   512   501  4.382922212E+01  1.499017318E+02 -1.699707055E+02  2.308280109E+02  6.325959759E-06  0.00000E+00  9.000E+00
#rwgt            1           1   3.8530875616713249E-002           3       52367           0
</event>
<event>
      5   9999  3.19816E-02  8.68124E+01 -1.00000E+00  1.26655E-01
      21    -1     0     0   511   501  0.000000000E+00  0.000000000E+00  1.433718706E+02  1.433718706E+02  0.000000000E+00  0.00000E+00  9.000E+00
      21    -1     0     0   501   502  0.000000000E+00  0.000000000E+00 -1.550156343E+03  1.550156343E+03  0.000000000E+00  0.00000E+00  9.000E+00
      25     1     1     2     0     0 -2.973559052E+01  2.676911146E+02 -1.321869029E+03  1.354808278E+03  1.250000000E+02  0.00000E+00  9.000E+00
      25     1     1     2     0     0  7.092854600E+01 -1.912742612E+02 -4.622923012E+01  2.436777449E+02  1.250000000E+02  0.00000E+00  9.000E+00
      21     1     1     2   511   502 -4.119295548E+01 -7.641685335E+01 -3.868621335E+01  9.504219147E+01  9.536743164E-07  0.00000E+00  9.000E+00
#rwgt            2          11   4.6208752629776084E-003           3       52449           0
</event>
<event>
      5   9999  3.19816E-02  1.53289E+02 -1.00000E+00  1.16022E-01
      21    -1     0     0   502   501  0.000000000E+00  0.000000000E+00  5.619467052E+02  5.619467052E+02  0.000000000E+00  0.00000E+00  9.000E+00
      21    -1     0     0   512   502  0.000000000E+00  0.000000000E+00 -3.420400244E+02  3.420400244E+02  0.000000000E+00  0.00000E+00  9.000E+00
      25     1     1     2     0     0  2.777995052E+02 -1.989156322E+02  1.718382741E+02  4.023597722E+02  1.250000000E+02  0.00000E+00  9.000E+00
      25     1     1     2     0     0 -2.971732113E+02  4.685604150E+01  9.835101416E+01  3.403018192E+02  1.250000000E+02  0.00000E+00  9.000E+00
      21     1     1     2   512   501  1.937370610E+01  1.520595907E+02 -5.028260737E+01  1.613251382E+02  3.015782986E-06  0.00000E+00  9.000E+00
#rwgt            1           1   2.9249005988134357E-002           3       52499           0
</event>
<event>
      5   9999  3.19816E-02  4.83116E+01 -1.00000E+00  1.39932E-01
      21    -1     0     0   502   501  0.000000000E+00  0.000000000E+00  1.060123047E+03  1.060123047E+03  0.000000000E+00  0.00000E+00  9.000E+00
      21    -1     0     0   501   511  0.000000000E+00  0.000000000E+00 -4.231359729E+02  4.231359729E+02  0.000000000E+00  0.00000E+00  9.000E+00
      25     1     1     2     0     0  3.448417140E+02 -3.595549600E+02  1.651889077E+02  5.395442078E+02  1.250000000E+02  0.00000E+00  9.000E+00
      25     1     1     2     0     0 -3.297880872E+02  3.136485462E+02  6.249353059E+02  7.831377462E+02  1.250000000E+02  0.00000E+00  9.000E+00
      21     1     1     2   502   511 -1.505362675E+01  4.590641376E+01 -1.531371397E+02  1.605770658E+02  1.907348633E-06  0.00000E+00  9.000E+00
#rwgt            1           1   2.9339105200496745E-002           3       52613           0
</event>
<event>
      5   9999  3.19816E-02  2.94742E+01 -1.00000E+00  1.53575E-01
      21    -1     0     0   502   501  0.000000000E+00  0.000000000E+00  2.022035268E+02  2.022035268E+02  0.000000000E+00  0.00000E+00  9.000E+00
      -1    -1     0     0     0   502  0.000000000E+00  0.000000000E+00 -1.133024469E+03  1.133024469E+03  0.000000000E+00  0.00000E+00  9.000E+00
      25     1     1     2     0     0  2.251935893E+02 -2.238543775E+01 -1.671140698E+02  3.078398493E+02  1.250000000E+02  0.00000E+00  9.000E+00
      25     1     1     2     0     0 -2.193493613E+02 -6.503531139E+00  1.035813230E+01  2.527621987E+02  1.250000000E+02  0.00000E+00  9.000E+00
      -1     1     1     2     0   501 -5.844228066E+00  2.888896889E+01 -7.740650043E+02  7.746259474E+02  1.078959322E-05  0.00000E+00  9.000E+00
#rwgt            1           1   2.5028251063301931E-002           3       52692           0
</event>
<event>
      5   9999  3.19816E-02  1.01290E+02 -1.00000E+00  1.23578E-01
      21    -1     0     0   502   501  0.000000000E+00  0.000000000E+00  1.616568404E+02  1.616568404E+02  0.000000000E+00  0.00000E+00  9.000E+00
      21    -1     0     0   501   511  0.000000000E+00  0.000000000E+00 -1.526170340E+03  1.526170340E+03  0.000000000E+00  0.00000E+00  9.000E+00
      25     1     1     2     0     0 -1.821109369E+02  2.414361118E+02 -2.175705870E+02  3.929602395E+02  1.250000000E+02  0.00000E+00  9.000E+00
      25     1     1     2     0     0  2.736027250E+02 -2.848977410E+02 -5.457224750E+02  6.851738420E+02  1.250000000E+02  0.00000E+00  9.000E+00
      21     1     1     2   502   511 -9.149178809E+01  4.346162916E+01 -6.012204371E+02  6.096930986E+02  1.078959322E-05  0.00000E+00  9.000E+00
#rwgt            2          11   1.6306134678283222E-003           3       52968           0
</event>
<event>
      5   9999  3.19816E-02  1.75225E+01 -1.00000E+00  1.71252E-01
      21    -1     0     0   502   501  0.000000000E+00  0.000000000E+00  1.191697919E+03  1.191697919E+03  0.000000000E+00  0.00000E+00  9.000E+00
      21    -1     0     0   512   502  0.000000000E+00  0.000000000E+00 -5.163873124E+01  5.163873124E+01  0.000000000E+00  0.00000E+00  9.000E+00
      25     1     1     2     0     0  1.455891814E+02  1.453370985E+02  6.737162161E+02  7.154282785E+02  1.250000000E+02  0.00000E+00  9.000E+00
      25     1     1     2     0     0 -1.281751110E+02 -1.433909232E+02  4.411567775E+02  4.972264255E+02  1.250000000E+02  0.00000E+00  9.000E+00
      21     1     1     2   512   501 -1.741407033E+01 -1.946175305E+00  2.518619433E+01  3.068194629E+01  0.000000000E+00  0.00000E+00  9.000E+00
#rwgt            1           1   2.6564620093962519E-002           3       52988           0
</event>
<event>
      5   9999  3.19816E-02  1.00804E+02 -1.00000E+00  1.23672E-01
      21    -1     0     0   511   501  0.000000000E+00  0.000000000E+00  1.580389064E+02  1.580389064E+02  0.000000000E+00  0.00000E+00  9.000E+00
      21    -1     0     0   501   502  0.000000000E+00  0.000000000E+00 -1.352633758E+03  1.352633758E+03  0.000000000E+00  0.00000E+00  9.000E+00
      25     1     1     2     0     0  3.067118614E+01 -3.788587054E+01  8.375238216E+01  1.581629614E+02  1.250000000E+02  0.00000E+00  9.000E+00
      25     1     1     2     0     0  5.817088359E-01  1.337222411E+02 -1.224729835E+03  1.238333616E+03  1.250000000E+02  0.00000E+00  9.000E+00
      21     1     1     2   511   502 -3.125289498E+01 -9.583637056E+01 -5.361739871E+01  1.141760869E+02  0.000000000E+00  0.00000E+00  9.000E+00
#rwgt            1           1   2.9451340206487306E-002           3       53179           0
</event>
<event>
      5   9999  3.19816E-02  1.16534E+02 -1.00000E+00  1.20911E-01
      21    -1     0     0   512   501  0.000000000E+00  0.000000000E+00  6.416138587E+02  6.416138587E+02  0.000000000E+00  0.00000E+00  9.000E+00
      21    -1     0     0   501   502  0.000000000E+00  0.000000000E+00 -4.578956945E+02  4.578956945E+02  0.000000000E+00  0.00000E+00  9.000E+00
      25     1     1     2     0     0 -2.197432765E+02  2.138919282E+02  3.289209693E+02  4.667449717E+02  1.250000000E+02  0.00000E+00  9.000E+00
      25     1     1     2     0     0  3.060299651E+02 -2.922165336E+02 -2.212824382E+02  4.935947321E+02  1.250000000E+02  0.00000E+00  9.000E+00
      21     1     1     2   512   502 -8.628668859E+01  7.832460539E+01  7.607963306E+01  1.391698495E+02  3.015782986E-06  0.00000E+00  9.000E+00
#rwgt            1           1   2.7762633659173308E-002           3       53257           0
</event>
<event>
      5   9999  3.19816E-02  3.54469E+01 -1.00000E+00  1.48172E-01
      21    -1     0     0   502   501  0.000000000E+00  0.000000000E+00  3.819153680E+02  3.819153680E+02  0.000000000E+00  0.00000E+00  9.000E+00
       1    -1     0     0   501     0  0.000000000E+00  0.000000000E+00 -1.729313822E+03  1.729313822E+03  0.000000000E+00  0.00000E+00  9.000E+00
      25     1     1     2     0     0  1.274720430E+02  4.194636899E+02 -1.340171798E+03  1.415586224E+03  1.250000000E+02  0.00000E+00  9.000E+00
      25     1     1     2     0     0 -1.124676785E+02 -4.515783690E+02  1.729856854E+02  5.119775868E+02  1.250000000E+02  0.00000E+00  9.000E+00
       1     1     1     2   502     0 -1.500436450E+01  3.211467917E+01 -1.802123412E+02  1.836653791E+02  2.697398305E-06  0.00000E+00  9.000E+00
#rwgt            1           1   2.7967706746231207E-002           3       53320           0
</event>
<event>
      5   9999  3.19816E-02  6.37074E+01 -1.00000E+00  1.33327E-01
      21    -1     0     0   502   501  0.000000000E+00  0.000000000E+00  1.400692410E+03  1.400692410E+03  0.000000000E+00  0.00000E+00  9.000E+00
      21    -1     0     0   511   502  0.000000000E+00  0.000000000E+00 -3.640493131E+02  3.640493131E+02  0.000000000E+00  0.00000E+00  9.000E+00
      25     1     1     2     0     0  2.230531423E+02  3.951831355E+02  1.174710551E+03  1.265500808E+03  1.250000000E+02  0.00000E+00  9.000E+00
      25     1     1     2     0     0 -2.083347199E+02 -3.331992465E+02 -9.758855152E+01  4.237612757E+02  1.250000000E+02  0.00000E+00  9.000E+00
      21     1     1     2   511   501 -1.471842246E+01 -6.198388895E+01 -4.047890286E+01  7.547963981E+01  6.743495762E-07  0.00000E+00  9.000E+00
#rwgt            1           1   2.2416213200678981E-002           3       53441           0
</event>
<event>
      5   9999  3.19816E-02  1.12399E+02 -1.00000E+00  1.21587E-01
      21    -1     0     0   502   512  0.000000000E+00  0.000000000E+00  7.196594470E+02  7.196594470E+02  0.000000000E+00  0.00000E+00  9.000E+00
      21    -1     0     0   501   502  0.000000000E+00  0.000000000E+00 -1.297316395E+02  1.297316395E+02  0.000000000E+00  0.00000E+00  9.000E+00
      25     1     1     2     0     0 -6.607010831E+01  7.751580999E+01  5.105945931E+01  1.691331676E+02  1.250000000E+02  0.00000E+00  9.000E+00
      25     1     1     2     0     0  1.782310180E+02 -8.483354697E+01  1.552653848E+02  2.805269438E+02  1.250000000E+02  0.00000E+00  9.000E+00
      21     1     1     2   501   512 -1.121609097E+02  7.317736975E+00  3.836029634E+02  3.997309751E+02  5.394796609E-06  0.00000E+00  9.000E+00
#rwgt            1           1   2.6580373180227081E-002           3       53577           0
</event>
<event>
      5   9999  3.19816E-02  7.08956E+00 -1.00000E+00  2.14776E-01
      21    -1     0     0   502   511  0.000000000E+00  0.000000000E+00  2.771122100E+02  2.771122100E+02  0.000000000E+00  0.00000E+00  9.000E+00
      21    -1     0     0   501   502  0.000000000E+00  0.000000000E+00 -1.089028862E+02  1.089028862E+02  0.000000000E+00  0.00000E+00  9.000E+00
      25     1     1     2     0     0  7.052077058E+01 -2.255240244E+01  1.662958006E+02  2.208191188E+02  1.250000000E+02  0.00000E+00  9.000E+00
      25     1     1     2     0     0 -7.759721284E+01  2.212129767E+01 -1.232480965E+01  1.492902548E+02  1.250000000E+02  0.00000E+00  9.000E+00
      21     1     1     2   501   511  7.076442260E+00  4.311047673E-01  1.423833289E+01  1.590572255E+01  0.000000000E+00  0.00000E+00  9.000E+00
#rwgt            1           1   3.0940897590337989E-002           3       53672           0
</event>
<event>
      5   9999  3.19816E-02  6.08334E+01 -1.00000E+00  1.34384E-01
      21    -1     0     0   502   501  0.000000000E+00  0.000000000E+00  6.205182803E+02  6.205182803E+02  0.000000000E+00  0.00000E+00  9.000E+00
      21    -1     0     0   512   502  0.000000000E+00  0.000000000E+00 -1.592751524E+02  1.592751524E+02  0.000000000E+00  0.00000E+00  9.000E+00
      25     1     1     2     0     0  1.044934976E+02 -2.199566732E+02  2.084803606E+02  3.440768662E+02  1.250000000E+02  0.00000E+00  9.000E+00
      25     1     1     2     0     0 -1.596777234E+02  1.943558915E+02  2.479947037E+02  3.746966252E+02  1.250000000E+02  0.00000E+00  9.000E+00
      21     1     1     2   512   501  5.518422581E+01  2.560078170E+01  4.768063621E+00  6.101994127E+01  7.996802250E-07  0.00000E+00  9.000E+00
#rwgt            1           1   3.1605896515732132E-002           3       53850           0
</event>
<event>
      5   9999  3.19816E-02  2.15768E+01 -1.00000E+00  1.63695E-01
      21    -1     0     0   511   501  0.000000000E+00  0.000000000E+00  5.381154572E+02  5.381154572E+02  0.000000000E+00  0.00000E+00  9.000E+00
      21    -1     0     0   501   502  0.000000000E+00  0.000000000E+00 -4.033871083E+02  4.033871083E+02  0.000000000E+00  0.00000E+00  9.000E+00
      25     1     1     2     0     0  1.066596326E+02 -4.153200377E+02  1.647927613E+02  4.760763228E+02  1.250000000E+02  0.00000E+00  9.000E+00
      25     1     1     2     0     0 -8.633266264E+01  4.080830041E+02 -4.703483373E+01  4.379752761E+02  1.250000000E+02  0.00000E+00  9.000E+00
      21     1     1     2   511   502 -2.032696999E+01  7.237033652E+00  1.697042144E+01  2.745096663E+01  3.371747881E-07  0.00000E+00  9.000E+00
#rwgt            1           1   2.8729735598810840E-002           3       53960           0
</event>
<event>
      5   9999  3.19816E-02  6.14836E+01 -1.00000E+00  1.34139E-01
      21    -1     0     0   502   501  0.000000000E+00  0.000000000E+00  4.622652108E+02  4.622652108E+02  0.000000000E+00  0.00000E+00  9.000E+00
       2    -1     0     0   501     0  0.000000000E+00  0.000000000E+00 -2.948369854E+02  2.948369854E+02  0.000000000E+00  0.00000E+00  9.000E+00
      25     1     1     2     0     0  1.280151556E+02 -4.628448254E+01  2.458326411E+02  3.075529561E+02  1.250000000E+02  0.00000E+00  9.000E+00
      25     1     1     2     0     0 -1.224071520E+02  1.075117458E+02  1.227297224E+02  2.392276554E+02  1.250000000E+02  0.00000E+00  9.000E+00
       2     1     1     2   502     0 -5.608003663E+00 -6.122726327E+01 -2.011341381E+02  2.103215847E+02  0.000000000E+00  0.00000E+00  9.000E+00
#rwgt            1           1   2.6986533209985921E-002           3       54198           0
</event>
<event>
      5   9999  3.19816E-02  6.01546E+02 -1.00000E+00  9.66231E-02
      21    -1     0     0   502   501  0.000000000E+00  0.000000000E+00  1.202882642E+03  1.202882642E+03  0.000000000E+00  0.00000E+00  9.000E+00
      21    -1     0     0   511   502  0.000000000E+00  0.000000000E+00 -3.939813095E+02  3.939813095E+02  0.000000000E+00  0.00000E+00  9.000E+00
      25     1     1     2     0     0  1.523231043E+02  2.293467265E+02  7.038266993E+01  3.104528455E+02  1.250000000E+02  0.00000E+00  9.000E+00
      25     1     1     2     0     0  1.567599961E+02  2.867205562E+02  5.575521631E+02  6.582338401E+02  1.250000000E+02  0.00000E+00  9.000E+00
      21     1     1     2   511   501 -3.090831004E+02 -5.160672827E+02  1.809664994E+02  6.281772657E+02  1.414527605E-05  0.00000E+00  9.000E+00
#rwgt            2          11   3.5631960739299232E-003           3       54256           0
</event>
<event>
      5   9999  3.19816E-02  9.14185E+01 -1.00000E+00  1.25606E-01
      21    -1     0     0   502   501  0.000000000E+00  0.000000000E+00  7.197385815E+02  7.197385815E+02  0.000000000E+00  0.00000E+00  9.000E+00
      21    -1     0     0   512   502  0.000000000E+00  0.000000000E+00 -1.625967595E+02  1.625967595E+02  0.000000000E+00  0.00000E+00  9.000E+00
      25     1     1     2     0     0  7.109666285E+01 -8.827172635E+01  1.651587215E+02  2.361123386E+02  1.250000000E+02  0.00000E+00  9.000E+00
      25     1     1     2     0     0 -1.045157049E+02  3.180568250E+00  4.874937656E+02  5.140124707E+02  1.250000000E+02  0.00000E+00  9.000E+00
      21     1     1     2   512   501  3.341904207E+01  8.509115810E+01 -9.551066507E+01  1.322105317E+02  3.015782986E-06  0.00000E+00  9.000E+00
#rwgt            1           1   1.5383622916587656E-002           3       54276           0
</event>
<event>
      5   9999  3.19816E-02  9.90033E+01 -1.00000E+00  1.24024E-01
      21    -1     0     0   511   501  0.000000000E+00  0.000000000E+00  7.515177042E+02  7.515177042E+02  0.000000000E+00  0.00000E+00  9.000E+00
      21    -1     0     0   501   502  0.000000000E+00  0.000000000E+00 -8.774241610E+02  8.774241610E+02  0.000000000E+00  0.00000E+00  9.000E+00
      25     1     1     2     0     0  1.335942333E+02  2.676067572E+02 -3.932974832E+02  5.096750984E+02  1.250000000E+02  0.00000E+00  9.000E+00
      25     1     1     2     0     0 -2.240170557E+02 -3.079224843E+02 -3.266483571E+02  5.170338933E+02  1.250000000E+02  0.00000E+00  9.000E+00
      21     1     1     2   511   502  9.042282243E+01  4.031572715E+01  5.940393835E+02  6.022328734E+02  7.629394531E-06  0.00000E+00  9.000E+00
#rwgt            1           1   2.7714611922367089E-002           3       54329           0
</event>
<event>
      5   9999  3.19816E-02  4.48986E+01 -1.00000E+00  1.41796E-01
      21    -1     0     0   502   501  0.000000000E+00  0.000000000E+00  3.506326948E+02  3.506326948E+02  0.000000000E+00  0.00000E+00  9.000E+00
      21    -1     0     0   501   512  0.000000000E+00  0.000000000E+00 -9.418654591E+01  9.418654591E+01  0.000000000E+00  0.00000E+00  9.000E+00
      25     1     1     2     0     0  3.474990637E+01 -6.946147310E+01  3.707348372E+01  1.517626286E+02  1.250000000E+02  0.00000E+00  9.000E+00
      25     1     1     2     0     0  8.323679616E+00  5.679067721E+01  2.031128580E+02  2.453045000E+02  1.250000000E+02  0.00000E+00  9.000E+00
      21     1     1     2   502   512 -4.307358598E+01  1.267079589E+01  1.625980716E+01  4.775211206E+01  0.000000000E+00  0.00000E+00  9.000E+00
#rwgt            1           1   6.6574215896583536E-002           3       54437           0
</event>
<event>
      5   9999  3.19816E-02  1.70941E+02 -1.00000E+00  1.14188E-01
      21    -1     0     0   511   501  0.000000000E+00  0.000000000E+00  1.440338396E+03  1.440338396E+03  0.000000000E+00  0.00000E+00  9.000E+00
      21    -1     0     0   501   502  0.000000000E+00  0.000000000E+00 -2.501480118E+02  2.501480118E+02  0.000000000E+00  0.00000E+00  9.000E+00
      25     1     1     2     0     0 -3.907587039E+02 -3.909948169E+02  6.790557362E+02  8.844834676E+02  1.250000000E+02  0.00000E+00  9.000E+00
      25     1     1     2     0     0  3.108446992E+02  2.398842165E+02  2.167584244E+02  4.655943287E+02  1.250000000E+02  0.00000E+00  9.000E+00
      21     1     1     2   511   502  7.991400477E+01  1.511106004E+02  2.943762232E+02  3.404086111E+02  3.814697266E-06  0.00000E+00  9.000E+00
#rwgt            1           1   3.0759028430344480E-002           3       54503           0
</event>
<event>
      5   9999  3.19816E-02  7.04805E+01 -1.00000E+00  1.31070E-01
      21    -1     0     0   502   501  0.000000000E+00  0.000000000E+00  2.088884288E+02  2.088884288E+02  0.000000000E+00  0.00000E+00  9.000E+00
      21    -1     0     0   501   512  0.000000000E+00  0.000000000E+00 -1.463140099E+03  1.463140099E+03  0.000000000E+00  0.00000E+00  9.000E+00
      25     1     1     2     0     0  4.189315372E+02 -2.297696471E+02 -4.664725015E+02  6.793521312E+02  1.250000000E+02  0.00000E+00  9.000E+00
      25     1     1     2     0     0 -4.228492704E+02  3.001412262E+02 -7.020403253E+02  8.816869510E+02  1.250000000E+02  0.00000E+00  9.000E+00
      21     1     1     2   502   512  3.917733256E+00 -7.037157915E+01 -8.573884340E+01  1.109894457E+02  1.907348633E-06  0.00000E+00  9.000E+00
#rwgt            1           1   1.7259042590715826E-002           3       54535           0
</event>
<event>
      5   9999  3.19816E-02  1.05900E+02 -1.00000E+00  1.22718E-01
      21    -1     0     0   502   501  0.000000000E+00  0.000000000E+00  1.050316217E+02  1.050316217E+02  0.000000000E+00  0.00000E+00  9.000E+00
       2    -1     0     0   501     0  0.000000000E+00  0.000000000E+00 -1.702517863E+03  1.702517863E+03  0.000000000E+00  0.00000E+00  9.000E+00
      25     1     1     2     0     0 -2.801021139E+02 -1.017216995E+02 -6.599390131E+02  7.348122205E+02  1.250000000E+02  0.00000E+00  9.000E+00
      25     1     1     2     0     0  3.691894071E+02  4.446539210E+01 -5.829313071E+02  7.026463536E+02  1.250000000E+02  0.00000E+00  9.000E+00
       2     1     1     2   502     0 -8.908729329E+01  5.725630740E+01 -3.546159209E+02  3.700909103E+02  5.394796609E-06  0.00000E+00  9.000E+00
#rwgt            1           1   3.2112001824502912E-002           3       54605           0
</event>
<event>
      5   9999  3.19816E-02  3.49715E+01 -1.00000E+00  1.48554E-01
      21    -1     0     0   502   501  0.000000000E+00  0.000000000E+00  1.310672752E+02  1.310672752E+02  0.000000000E+00  0.00000E+00  9.000E+00
      21    -1     0     0   501   511  0.000000000E+00  0.000000000E+00 -1.396677991E+03  1.396677991E+03  0.000000000E+00  0.00000E+00  9.000E+00
      25     1     1     2     0     0 -2.107476843E+02 -1.770249326E+02 -1.114481481E+02  3.221771297E+02  1.250000000E+02  0.00000E+00  9.000E+00
      25     1     1     2     0     0  1.831032291E+02  1.556055858E+02 -7.080908149E+02  7.581276231E+02  1.250000000E+02  0.00000E+00  9.000E+00
      21     1     1     2   502   511  2.764445519E+01  2.141934679E+01 -4.460717532E+02  4.474405137E+02  5.394796609E-06  0.00000E+00  9.000E+00
#rwgt            1           1   3.1567522087070490E-002           3       54690           0
</event>
<event>
      5   9999  3.19816E-02  3.02288E+01 -1.00000E+00  1.52811E-01
      -1    -1     0     0     0   501  0.000000000E+00  0.000000000E+00  2.004269283E+03  2.004269283E+03  0.000000000E+00  0.00000E+00  9.000E+00
      21    -1     0     0   501   502  0.000000000E+00  0.000000000E+00 -6.916926217E+01  6.916926217E+01  0.000000000E+00  0.00000E+00  9.000E+00
      25     1     1     2     0     0  3.072851604E+01  2.633161638E+02  6.154127085E+02  6.816431952E+02  1.250000000E+02  0.00000E+00  9.000E+00
      25     1     1     2     0     0 -6.439052008E+00 -2.813107344E+02  6.277100678E+02  6.991581509E+02  1.250000000E+02  0.00000E+00  9.000E+00
      -1     1     1     2     0   502 -2.428946404E+01  1.799457059E+01  6.919772443E+02  6.926371989E+02  1.525878906E-05  0.00000E+00  9.000E+00
#rwgt            1           1   2.5855718171128406E-002           3       54906           0
</event>
<event>
      5   9999  3.19816E-02  5.07050E+01 -1.00000E+00  1.38729E-01
      21    -1     0     0   502   511  0.000000000E+00  0.000000000E+00  1.554642593E+02  1.554642593E+02  0.000000000E+00  0.00000E+00  9.000E+00
      21    -1     0     0   501   502  0.000000000E+00  0.000000000E+00 -1.122933649E+03  1.122933649E+03  0.000000000E+00  0.00000E+00  9.000E+00
      25     1     1     2     0     0 -1.892127287E+02  1.556890089E+01 -9.067684227E+02  9.348250209E+02  1.250000000E+02  0.00000E+00  9.000E+00
      25     1     1     2     0     0  1.398719263E+02 -3.886351111E+00 -1.504450472E+02  2.404952634E+02  1.250000000E+02  0.00000E+00  9.000E+00
      21     1     1     2   501   511  4.934080240E+01 -1.168254978E+01  8.974407988E+01  1.030776243E+02  1.907348633E-06  0.00000E+00  9.000E+00
#rwgt            1           1   3.6063351139578731E-002           3       55103           0
</event>
<event>
      5   9999  3.19816E-02  8.88921E+01 -1.00000E+00  1.26172E-01
      21    -1     0     0   502   512  0.000000000E+00  0.000000000E+00  4.289617681E+02  4.289617681E+02  0.000000000E+00  0.00000E+00  9.000E+00
      21    -1     0     0   501   502  0.000000000E+00  0.000000000E+00 -7.580342356E+02  7.580342356E+02  0.000000000E+00  0.00000E+00  9.000E+00
      25     1     1     2     0     0  4.944859110E+02  1.821808851E+02 -1.064243519E+02  5.519577282E+02  1.250000000E+02  0.00000E+00  9.000E+00
      25     1     1     2     0     0 -4.087015755E+02 -2.054801962E+02 -2.574258138E+02  5.395851541E+02  1.250000000E+02  0.00000E+00  9.000E+00
      21     1     1     2   501   512 -8.578433543E+01  2.329931106E+01  3.477769820E+01  9.545312144E+01  1.846782373E-06  0.00000E+00  9.000E+00
#rwgt            1           1   3.0346116008163913E-002           3       55225           0
</event>
<event>
      5   9999  3.19816E-02  1.17831E+01 -1.00000E+00  1.87865E-01
      21    -1     0     0   511   501  0.000000000E+00  0.000000000E+00  1.911275405E+02  1.911275405E+02  0.000000000E+00  0.00000E+00  9.000E+00
      21    -1     0     0   501   502  0.000000000E+00  0.000000000E+00 -1.659721263E+02  1.659721263E+02  0.000000000E+00  0.00000E+00  9.000E+00
      25     1     1     2     0     0 -1.900038034E+01 -1.343803212E+01 -1.018357663E+02  1.629021745E+02  1.250000000E+02  0.00000E+00  9.000E+00
      25     1     1     2     0     0  2.918001829E+01  7.503714316E+00  9.431552572E+01  1.594622137E+02  1.250000000E+02  0.00000E+00  9.000E+00
      21     1     1     2   511   502 -1.017963795E+01  5.934317806E+00  3.267565488E+01  3.473527859E+01  4.768371582E-07  0.00000E+00  9.000E+00
#rwgt            1           1   1.9124059565897526E-002           3       55359           0
</event>
<event>
      5   9999  3.19816E-02  1.67020E+01 -1.00000E+00  1.73096E-01
      21    -1     0     0   502   512  0.000000000E+00  0.000000000E+00  4.469702721E+02  4.469702721E+02  0.000000000E+00  0.00000E+00  9.000E+00
      21    -1     0     0   501   502  0.000000000E+00  0.000000000E+00 -3.513331897E+02  3.513331897E+02  0.000000000E+00  0.00000E+00  9.000E+00
      25     1     1     2     0     0  1.983857352E+02 -1.441517772E+02  2.993165531E+02  4.066350129E+02  1.250000000E+02  0.00000E+00  9.000E+00
      25     1     1     2     0     0 -2.132789111E+02  1.365919841E+02 -2.274378040E+02  3.626268312E+02  1.250000000E+02  0.00000E+00  9.000E+00
      21     1     1     2   501   512  1.489317587E+01  7.559793101E+00  2.375833328E+01  2.904161772E+01  3.371747881E-07  0.00000E+00  9.000E+00
#rwgt            1           1   2.9092975470295195E-002           3       55537           0
</event>
<event>
      5   9999  3.19816E-02  7.66478E+01 -1.00000E+00  1.29256E-01
      21    -1     0     0   502   511  0.000000000E+00  0.000000000E+00  3.932600750E+02  3.932600750E+02  0.000000000E+00  0.00000E+00  9.000E+00
      21    -1     0     0   501   502  0.000000000E+00  0.000000000E+00 -5.613296104E+02  5.613296104E+02  0.000000000E+00  0.00000E+00  9.000E+00
      25     1     1     2     0     0  1.276102139E+02 -2.867891026E+02  1.830653802E+02  3.842789215E+02  1.250000000E+02  0.00000E+00  9.000E+00
      25     1     1     2     0     0 -1.303866275E+02  2.101915919E+02 -3.945986177E+02  4.821973113E+02  1.250000000E+02  0.00000E+00  9.000E+00
      21     1     1     2   501   511  2.776413617E+00  7.659751069E+01  4.346370211E+01  8.811345253E+01  4.768371582E-07  0.00000E+00  9.000E+00
#rwgt            1           1   2.9408876899710008E-002           3       55670           0
</event>
<event>
      5   9999  3.19816E-02  7.43047E+00 -1.00000E+00  2.11954E-01
      21    -1     0     0   502   512  0.000000000E+00  0.000000000E+00  9.285842495E+01  9.285842495E+01  0.000000000E+00  0.00000E+00  9.000E+00
      21    -1     0     0   501   502  0.000000000E+00  0.000000000E+00 -6.091712562E+02  6.091712562E+02  0.000000000E+00  0.00000E+00  9.000E+00
      25     1     1     2     0     0  4.703317534E+01 -1.037953073E+02 -4.649565669E+02  4.947678188E+02  1.250000000E+02  0.00000E+00  9.000E+00
      25     1     1     2     0     0 -3.961477194E+01  1.042186720E+02 -7.423100735E+01  1.832105461E+02  1.250000000E+02  0.00000E+00  9.000E+00
      21     1     1     2   501   512 -7.418403401E+00 -4.233647535E-01  2.287474299E+01  2.405131626E+01  7.539457465E-07  0.00000E+00  9.000E+00
#rwgt            1           1   2.6255307178858732E-002           3       55762           0
</event>
<event>
      5   9999  3.19816E-02  1.53163E+01 -1.00000E+00  1.76534E-01
      21    -1     0     0   502   511  0.000000000E+00  0.000000000E+00  1.011011536E+02  1.011011536E+02  0.000000000E+00  0.00000E+00  9.000E+00
      21    -1     0     0   501   502  0.000000000E+00  0.000000000E+00 -4.871104161E+02  4.871104161E+02  0.000000000E+00  0.00000E+00  9.000E+00
      25     1     1     2     0     0 -1.016003470E+02 -1.281792043E+02 -2.009530611E+02  2.876798076E+02  1.250000000E+02  0.00000E+00  9.000E+00
      25     1     1     2     0     0  1.152711589E+02  1.350855825E+02 -1.848968090E+02  2.852146291E+02  1.250000000E+02  0.00000E+00  9.000E+00
      21     1     1     2   501   511 -1.367081186E+01 -6.906378269E+00 -1.593923989E-01  1.531713301E+01  1.549917762E-07  0.00000E+00  9.000E+00
#rwgt            1           1   2.7117309252492710E-002           3       56010           0
</event>
<event>
      5   9999  3.19816E-02  1.20299E+01 -1.00000E+00  1.86915E-01
      21    -1     0     0   512   501  0.000000000E+00  0.000000000E+00  2.775989999E+02  2.775989999E+02  0.000000000E+00  0.00000E+00  9.000E+00
      21    -1     0     0   501   502  0.000000000E+00  0.000000000E+00 -3.687494848E+03  3.687494848E+03  0.000000000E+00  0.00000E+00  9.000E+00
      25     1     1     2     0     0  5.545734591E+02  2.409733438E+02 -3.762087536E+02  7.230338168E+02  1.250000000E+02  0.00000E+00  9.000E+00
      25     1     1     2     0     0 -5.663896897E+02 -2.432304710E+02 -3.105853832E+03  3.168897500E+03  1.250000000E+02  0.00000E+00  9.000E+00
      21     1     1     2   512   502  1.181623054E+01  2.257127174E+00  7.216673738E+01  7.316253079E+01  3.932099939E-06  0.00000E+00  9.000E+00
#rwgt            1           1   4.0847705310204499E-002           3       56184           0
</event>
<event>
      5   9999  3.19816E-02  4.49356E+02 -1.00000E+00  1.00188E-01
      21    -1     0     0   502   501  0.000000000E+00  0.000000000E+00  5.448954916E+02  5.448954916E+02  0.000000000E+00  0.00000E+00  9.000E+00
       2    -1     0     0   501     0  0.000000000E+00  0.000000000E+00 -1.650364386E+03  1.650364386E+03  0.000000000E+00  0.00000E+00  9.000E+00
      25     1     1     2     0     0  3.306876246E+02 -3.947810398E+02 -1.115286379E+03  1.234785440E+03  1.250000000E+02  0.00000E+00  9.000E+00
      25     1     1     2     0     0 -5.242391443E+01  4.194967752E+01  3.624756483E+02  3.892578039E+02  1.250000000E+02  0.00000E+00  9.000E+00
       2     1     1     2   502     0 -2.782637102E+02  3.528313623E+02 -3.526581633E+02  5.712166338E+02  1.144409180E-05  0.00000E+00  9.000E+00
#rwgt            2          13   9.2023855811815400E-004           3       56482           0
</event>
<event>
      5   9999  3.19816E-02  3.93335E+02 -1.00000E+00  1.01905E-01
      21    -1     0     0   502   511  0.000000000E+00  0.000000000E+00  7.797649782E+02  7.797649782E+02  0.000000000E+00  0.00000E+00  9.000E+00
      21    -1     0     0   501   502  0.000000000E+00  0.000000000E+00 -5.512731313E+02  5.512731313E+02  0.000000000E+00  0.00000E+00  9.000E+00
      25     1     1     2     0     0  9.923033492E+01  2.748497170E+02 -4.291004714E+01  3.207106148E+02  1.250000000E+02  0.00000E+00  9.000E+00
      25     1     1     2     0     0  2.750398287E+02 -1.538764774E+02 -2.021448946E+02  3.947308401E+02  1.250000000E+02  0.00000E+00  9.000E+00
      21     1     1     2   501   511 -3.742701637E+02 -1.209732397E+02  4.735467886E+02  6.155966546E+02  7.629394531E-06  0.00000E+00  9.000E+00
#rwgt            1           1   2.6621025585521995E-002           3       56501           0
</event>
<event>
      5   9999  3.19816E-02  2.18245E+02 -1.00000E+00  1.10285E-01
       2    -1     0     0   502     0  0.000000000E+00  0.000000000E+00  3.281189523E+02  3.281189523E+02  0.000000000E+00  0.00000E+00  9.000E+00
      21    -1     0     0   501   502  0.000000000E+00  0.000000000E+00 -2.984216195E+02  2.984216195E+02  0.000000000E+00  0.00000E+00  9.000E+00
      25     1     1     2     0     0 -7.524547235E+01 -7.869879394E-02  1.301543836E+01  1.464796537E+02  1.250000000E+02  0.00000E+00  9.000E+00
      25     1     1     2     0     0  5.682486129E+01  2.175447470E+02 -2.284085328E+01  2.582663090E+02  1.250000000E+02  0.00000E+00  9.000E+00
       2     1     1     2   501     0  1.842061106E+01 -2.174660482E+02  3.952274771E+01  2.217946091E+02  1.651812370E-06  0.00000E+00  9.000E+00
#rwgt            2          18   1.6173758270408018E-004           3       56559           0
</event>
<event>
      5   9999  3.19816E-02  3.71908E+01 -1.00000E+00  1.46829E-01
      21    -1     0     0   511   501  0.000000000E+00  0.000000000E+00  3.716717515E+02  3.716717515E+02  0.000000000E+00  0.00000E+00  9.000E+00
      21    -1     0     0   501   502  0.000000000E+00  0.000000000E+00 -2.560804753E+02  2.560804753E+02  0.000000000E+00  0.00000E+00  9.000E+00
      25     1     1     2     0     0  2.228839956E+02 -6.861422408E+01  4.254937588E+01  2.679937249E+02  1.250000000E+02  0.00000E+00  9.000E+00
      25     1     1     2     0     0 -1.961612157E+02  9.448014215E+01 -2.749784227E+01  2.525605891E+02  1.250000000E+02  0.00000E+00  9.000E+00
      21     1     1     2   511   502 -2.672277983E+01 -2.586591807E+01  1.005397425E+02  1.071979128E+02  1.348699152E-06  0.00000E+00  9.000E+00
#rwgt            1           1   2.6612175681147231E-002           3       56593           0
</event>
<event>
      5   9999  3.19816E-02  1.32255E+02 -1.00000E+00  1.18603E-01
       2    -1     0     0   502     0  0.000000000E+00  0.000000000E+00  8.385959495E+02  8.385959495E+02  0.000000000E+00  0.00000E+00  9.000E+00
      21    -1     0     0   501   502  0.000000000E+00  0.000000000E+00 -5.775685106E+02  5.775685106E+02  0.000000000E+00  0.00000E+00  9.000E+00
      25     1     1     2     0     0 -3.167815260E+02 -1.827554087E+02  1.395748393E+02  4.109211730E+02  1.250000000E+02  0.00000E+00  9.000E+00
      25     1     1     2     0     0  2.425104784E+02  2.921861501E+02 -3.402597037E+02  5.249626123E+02  1.250000000E+02  0.00000E+00  9.000E+00
       2     1     1     2   501     0  7.427104762E+01 -1.094307413E+02  4.617123033E+02  4.802806749E+02  0.000000000E+00  0.00000E+00  9.000E+00
#rwgt            1           1   3.1181618370514353E-002           3       56715           0
</event>
<event>
      5   9999  3.19816E-02  3.98935E+01 -1.00000E+00  1.44912E-01
      21    -1     0     0   502   501  0.000000000E+00  0.000000000E+00  4.123528818E+02  4.123528818E+02  0.000000000E+00  0.00000E+00  9.000E+00
       4    -1     0     0   501     0  0.000000000E+00  0.000000000E+00 -6.279241500E+02  6.279241500E+02  0.000000000E+00  0.00000E+00  9.000E+00
      25     1     1     2     0     0 -1.179212180E+02 -3.620006772E+01  3.432660710E+02  3.855806713E+02  1.250000000E+02  0.00000E+00  9.000E+00
      25     1     1     2     0     0  8.453441586E+01  5.803609992E+01 -9.172515361E+01  1.858837275E+02  1.250000000E+02  0.00000E+00  9.000E+00
       4     1     1     2   502     0  3.338680219E+01 -2.183603219E+01 -4.671121856E+02  4.688126330E+02  5.394796609E-06  0.00000E+00  9.000E+00
#rwgt            1           1   2.6972917372028376E-002           3       56816           0
</event>
<event>
      5   9999  3.19816E-02  7.20125E+01 -1.00000E+00  1.30600E-01
       2    -1     0     0   502     0  0.000000000E+00  0.000000000E+00  5.546387316E+02  5.546387316E+02  0.000000000E+00  0.00000E+00  9.000E+00
      21    -1     0     0   501   502  0.000000000E+00  0.000000000E+00 -8.891657718E+02  8.891657718E+02  0.000000000E+00  0.00000E+00  9.000E+00
      25     1     1     2     0     0 -1.377927933E+02  2.659687423E+02  9.970004093E+01  3.395457611E+02  1.250000000E+02  0.00000E+00  9.000E+00
      25     1     1     2     0     0  1.793530943E+02 -3.247781027E+02 -7.145829960E+02  8.148019432E+02  1.250000000E+02  0.00000E+00  9.000E+00
       2     1     1     2   501     0 -4.156030103E+01  5.880936048E+01  2.803559149E+02  2.894567990E+02  3.814697266E-06  0.00000E+00  9.000E+00
#rwgt            1           1   3.0387061150239033E-002           3       56878           0
</event>
<event>
      5   9999  3.19816E-02  6.90572E+01 -1.00000E+00  1.31520E-01
      21    -1     0     0   511   501  0.000000000E+00  0.000000000E+00  1.257547226E+03  1.257547226E+03  0.000000000E+00  0.00000E+00  9.000E+00
      21    -1     0     0   501   502  0.000000000E+00  0.000000000E+00 -3.634169817E+02  3.634169817E+02  0.000000000E+00  0.00000E+00  9.000E+00
      25     1     1     2     0     0  4.088184263E+01 -1.299425321E+02 -3.030767137E+02  3.550167335E+02  1.250000000E+02  0.00000E+00  9.000E+00
      25     1     1     2     0     0 -9.780535979E+00  1.915996874E+02  3.649870671E+02  4.308673326E+02  1.250000000E+02  0.00000E+00  9.000E+00
      21     1     1     2   511   502 -3.110130665E+01 -6.165715527E+01  8.322198910E+02  8.350801417E+02  1.078959322E-05  0.00000E+00  9.000E+00
#rwgt            1           1   2.7985580275615315E-002           3       56959           0
</event>
<event>
      5   9999  3.19816E-02  1.36918E+02 -1.00000E+00  1.17986E-01
      21    -1     0     0   502   501  0.000000000E+00  0.000000000E+00  5.329956239E+02  5.329956239E+02  0.000000000E+00  0.00000E+00  9.000E+00
      21    -1     0     0   501   512  0.000000000E+00  0.000000000E+00 -4.836755504E+02  4.836755504E+02  0.000000000E+00  0.00000E+00  9.000E+00
      25     1     1     2     0     0  4.771766833E+02  4.392212712E+01  1.077927224E+02  5.068244383E+02  1.250000000E+02  0.00000E+00  9.000E+00
      25     1     1     2     0     0 -3.471807036E+02 -9.383197583E-01 -3.191417349E+01  3.703766136E+02  1.250000000E+02  0.00000E+00  9.000E+00
      21     1     1     2   502   512 -1.299959796E+02 -4.298380736E+01 -2.655847540E+01  1.394701224E+02  9.536743164E-07  0.00000E+00  9.000E+00
#rwgt            1           1   2.8926213877462855E-002           3       57092           0
</event>
<event>
      5   9999  3.19816E-02  2.68661E+01 -1.00000E+00  1.56444E-01
      21    -1     0     0   502   511  0.000000000E+00  0.000000000E+00  1.327277032E+02  1.327277032E+02  0.000000000E+00  0.00000E+00  9.000E+00
      21    -1     0     0   501   502  0.000000000E+00  0.000000000E+00 -1.760911323E+03  1.760911323E+03  0.000000000E+00  0.00000E+00  9.000E+00
      25     1     1     2     0     0 -5.430388379E+01 -4.070497399E+02 -1.156872096E+03  1.233943455E+03  1.250000000E+02  0.00000E+00  9.000E+00
      25     1     1     2     0     0  2.867997033E+01  4.151245465E+02 -4.386741795E+02  6.174228418E+02  1.250000000E+02  0.00000E+00  9.000E+00
      21     1     1     2   501   511  2.562391346E+01 -8.074806644E+00 -3.263734424E+01  4.227272977E+01  4.768371582E-07  0.00000E+00  9.000E+00
#rwgt            1           1   2.9490270755799183E-002           3       57187           0
</event>
<event>
      5   9999  3.19816E-02  5.19284E+00 -1.00000E+00  2.35680E-01
      21    -1     0     0   502   501  0.000000000E+00  0.000000000E+00  1.055090684E+03  1.055090684E+03  0.000000000E+00  0.00000E+00  9.000E+00
      21    -1     0     0   512   502  0.000000000E+00  0.000000000E+00 -5.497434326E+02  5.497434326E+02  0.000000000E+00  0.00000E+00  9.000E+00
      25     1     1     2     0     0  4.791270436E+02 -2.597481391E+02  2.832272806E+02  6.267970263E+02  1.250000000E+02  0.00000E+00  9.000E+00
      25     1     1     2     0     0 -4.842404124E+02  2.606531558E+02  4.675399074E+02  7.325622224E+02  1.250000000E+02  0.00000E+00  9.000E+00
      21     1     1     2   512   501  5.113368821E+00 -9.050167049E-01 -2.454199365E+02  2.454748680E+02  2.697398305E-06  0.00000E+00  9.000E+00
#rwgt            1           1   3.1617197588436702E-002           3       57285           0
</event>
<event>
      5   9999  3.19816E-02  9.95321E+01 -1.00000E+00  1.23920E-01
      21    -1     0     0   511   501  0.000000000E+00  0.000000000E+00  4.515803485E+02  4.515803485E+02  0.000000000E+00  0.00000E+00  9.000E+00
      21    -1     0     0   501   502  0.000000000E+00  0.000000000E+00 -5.015946169E+02  5.015946169E+02  0.000000000E+00  0.00000E+00  9.000E+00
      25     1     1     2     0     0  1.080616681E+02  2.499464171E+02 -3.286498574E+02  4.447316767E+02  1.250000000E+02  0.00000E+00  9.000E+00
      25     1     1     2     0     0 -2.030916201E+02 -2.203500787E+02  1.975913334E+02  3.800890664E+02  1.250000000E+02  0.00000E+00  9.000E+00
      21     1     1     2   511   502  9.502995206E+01 -2.959633842E+01  8.104425548E+01  1.283542223E+02  1.348699152E-06  0.00000E+00  9.000E+00
#rwgt            1           1   2.6649951346691778E-002           3       57767           0
</event>
<event>
      5   9999  3.19816E-02  2.02896E+02 -1.00000E+00  1.11421E-01
      21    -1     0     0   512   501  0.000000000E+00  0.000000000E+00  1.185486760E+03  1.185486760E+03  0.000000000E+00  0.00000E+00  9.000E+00
      21    -1     0     0   501   502  0.000000000E+00  0.000000000E+00 -2.997242991E+03  2.997242991E+03  0.000000000E+00  0.00000E+00  9.000E+00
      25     1     1     2     0     0 -3.695026960E+02  8.621425638E+02 -2.570725772E+03  2.739357231E+03  1.250000000E+02  0.00000E+00  9.000E+00
      25     1     1     2     0     0  3.005368702E+02 -6.713272538E+02  9.863124128E+01  7.525661525E+02  1.250000000E+02  0.00000E+00  9.000E+00
      21     1     1     2   512   502  6.896582574E+01 -1.908153099E+02  6.603383000E+02  6.908063680E+02  1.078959322E-05  0.00000E+00  9.000E+00
#rwgt            1           1   4.8015314576858120E-002           3       57835           0
</event>
<event>
      5   9999  3.19816E-02  1.41901E+01 -1.00000E+00  1.79685E-01
      21    -1     0     0   502   501  0.000000000E+00  0.000000000E+00  1.119865910E+03  1.119865910E+03  0.000000000E+00  0.00000E+00  9.000E+00
      21    -1     0     0   501   511  0.000000000E+00  0.000000000E+00 -7.516736387E+01  7.516736387E+01  0.000000000E+00  0.00000E+00  9.000E+00
      25     1     1     2     0     0  1.481136337E+02 -1.058784931E+01  2.044289352E+02  2.818970390E+02  1.250000000E+02  0.00000E+00  9.000E+00
      25     1     1     2     0     0 -1.617166896E+02  1.462707119E+01  8.626400326E+02  8.866448358E+02  1.250000000E+02  0.00000E+00  9.000E+00
      21     1     1     2   502   511  1.360305596E+01 -4.039221884E+00 -2.237042186E+01  2.649139897E+01  2.384185791E-07  0.00000E+00  9.000E+00
#rwgt            1           1   2.9842229456944990E-002           3       57926           0
</event>
<event>
      5   9999  3.19816E-02  7.93933E+01 -1.00000E+00  1.28510E-01
      21    -1     0     0   502   501  0.000000000E+00  0.000000000E+00  1.877261580E+02  1.877261580E+02  0.000000000E+00  0.00000E+00  9.000E+00
      21    -1     0     0   512   502  0.000000000E+00  0.000000000E+00 -9.415207125E+02  9.415207125E+02  0.000000000E+00  0.00000E+00  9.000E+00
      25     1     1     2     0     0 -2.280070037E+01 -1.109189852E+00  1.443773702E+02  1.923302557E+02  1.250000000E+02  0.00000E+00  9.000E+00
      25     1     1     2     0     0 -5.642567009E+01  6.254319038E+00 -2.618186547E+02  2.956298035E+02  1.250000000E+02  0.00000E+00  9.000E+00
      21     1     1     2   512   501  7.922637046E+01 -5.145129186E+00 -6.363532700E+02  6.412868113E+02  1.078959322E-05  0.00000E+00  9.000E+00
#rwgt            1           1   2.3616657913469122E-002           3       58018           0
</event>
<event>
      5   9999  3.19816E-02  1.17009E+02 -1.00000E+00  1.20835E-01
       5    -1     0     0   502     0  0.000000000E+00  0.000000000E+00  2.545586177E+02  2.545586177E+02  0.000000000E+00  0.00000E+00  9.000E+00
      21    -1     0     0   501   502  0.000000000E+00  0.000000000E+00 -6.629189623E+02  6.629189623E+02  0.000000000E+00  0.00000E+00  9.000E+00
      25     1     1     2     0     0  2.201814867E+02  1.081653825E+02 -2.895908363E+02  3.995841457E+02  1.250000000E+02  0.00000E+00  9.000E+00
      25     1     1     2     0     0 -1.516763873E+02 -1.330729732E+01 -2.652593603E+02  3.304093504E+02  1.250000000E+02  0.00000E+00  9.000E+00
       5     1     1     2   501     0 -6.850509934E+01 -9.485808518E+01  1.464898519E+02  1.874840838E+02  3.303624740E-06  0.00000E+00  9.000E+00
#rwgt            1           1   2.8227866378882600E-002           3       58068           0
</event>
<event>
      5   9999  3.19816E-02  9.34094E+00 -1.00000E+00  1.99243E-01
      21    -1     0     0   511   501  0.000000000E+00  0.000000000E+00  1.463414799E+03  1.463414799E+03  0.000000000E+00  0.00000E+00  9.000E+00
      21    -1     0     0   501   502  0.000000000E+00  0.000000000E+00 -5.863134158E+01  5.863134158E+01  0.000000000E+00  0.00000E+00  9.000E+00
      25     1     1     2     0     0  3.404539398E+01 -1.048906616E+02  1.270994999E+03  1.281879256E+03  1.250000000E+02  0.00000E+00  9.000E+00
      25     1     1     2     0     0 -2.470925445E+01  1.045911908E+02  7.581610866E+01  1.814468153E+02  1.250000000E+02  0.00000E+00  9.000E+00
      21     1     1     2   511   502 -9.336139534E+00  2.994707580E-01  5.797234922E+01  5.872006861E+01  0.000000000E+00  0.00000E+00  9.000E+00
#rwgt            2          11   3.8032065075724862E-003           3       58274           0
</event>
<event>
      5   9999  3.19816E-02  3.75787E+01 -1.00000E+00  1.46542E-01
      21    -1     0     0   502   512  0.000000000E+00  0.000000000E+00  1.909997908E+02  1.909997908E+02  0.000000000E+00  0.00000E+00  9.000E+00
      21    -1     0     0   501   502  0.000000000E+00  0.000000000E+00 -1.491106171E+03  1.491106171E+03  0.000000000E+00  0.00000E+00  9.000E+00
      25     1     1     2     0     0  9.399330033E+01  1.495462892E+02 -4.033966436E+02  4.577692489E+02  1.250000000E+02  0.00000E+00  9.000E+00
      25     1     1     2     0     0 -7.857189604E+01 -1.152776907E+02 -1.049964224E+03  1.066542245E+03  1.250000000E+02  0.00000E+00  9.000E+00
      21     1     1     2   501   512 -1.542140429E+01 -3.426859856E+01  1.532544868E+02  1.577944685E+02  5.046370146E-06  0.00000E+00  9.000E+00
#rwgt            1           1   3.8889625074410593E-002           3       58294           0
</event>
<event>
      5   9999  3.19816E-02  6.70613E+01 -1.00000E+00  1.32171E-01
       2    -1     0     0   502     0  0.000000000E+00  0.000000000E+00  2.239938755E+02  2.239938755E+02  0.000000000E+00  0.00000E+00  9.000E+00
      21    -1     0     0   501   502  0.000000000E+00  0.000000000E+00 -7.375234490E+02  7.375234490E+02  0.000000000E+00  0.00000E+00  9.000E+00
      25     1     1     2     0     0  2.240690125E+02 -1.854437482E+02 -4.055233623E+02  5.144613722E+02  1.250000000E+02  0.00000E+00  9.000E+00
      25     1     1     2     0     0 -2.901308199E+02  1.739088698E+02 -6.245193132E+01  3.659855617E+02  1.250000000E+02  0.00000E+00  9.000E+00
       2     1     1     2   501     0  6.606180737E+01  1.153487847E+01 -4.555427986E+01  8.107039057E+01  6.743495762E-07  0.00000E+00  9.000E+00
#rwgt            1           1   2.6474991909419179E-002           3       58388           0
</event>
<event>
      5   9999  3.19816E-02  7.65892E+01 -1.00000E+00  1.29272E-01
      21    -1     0     0   502   501  0.000000000E+00  0.000000000E+00  3.524905967E+02  3.524905967E+02  0.000000000E+00  0.00000E+00  9.000E+00
      21    -1     0     0   501   511  0.000000000E+00  0.000000000E+00 -2.678121547E+02  2.678121547E+02  0.000000000E+00  0.00000E+00  9.000E+00
      25     1     1     2     0     0  2.161453679E+02  1.254532713E+01 -6.332381482E+00  2.500825950E+02  1.250000000E+02  0.00000E+00  9.000E+00
      25     1     1     2     0     0 -2.233443861E+02 -8.879548138E+01  1.082124679E+02  2.917229688E+02  1.250000000E+02  0.00000E+00  9.000E+00
      21     1     1     2   502   511  7.199018203E+00  7.625015425E+01 -1.720164437E+01  7.849718756E+01  4.768371582E-07  0.00000E+00  9.000E+00
#rwgt            1           1   2.4207065119467647E-002           3       58485           0
</event>
<event>
      5   9999  3.19816E-02  1.62061E+02 -1.00000E+00  1.15078E-01
      21    -1     0     0   502   501  0.000000000E+00  0.000000000E+00  8.968184688E+02  8.968184688E+02  0.000000000E+00  0.00000E+00  9.000E+00
      21    -1     0     0   501   512  0.000000000E+00  0.000000000E+00 -8.103179542E+02  8.103179542E+02  0.000000000E+00  0.00000E+00  9.000E+00
      25     1     1     2     0     0 -9.706611708E+01 -3.958710708E+02  7.476434001E+02  8.606575332E+02  1.250000000E+02  0.00000E+00  9.000E+00
      25     1     1     2     0     0  1.096468414E+02  2.342992139E+02 -1.806183219E+02  3.393619449E+02  1.250000000E+02  0.00000E+00  9.000E+00
      21     1     1     2   502   512 -1.258072436E+01  1.615718569E+02 -4.805245636E+02  5.071169449E+02  5.394796609E-06  0.00000E+00  9.000E+00
#rwgt            1           1   3.1985805854369172E-002           3       58567           0
</event>
<event>
      5   9999  3.19816E-02  5.13325E+01 -1.00000E+00  1.38427E-01
      21    -1     0     0   502   501  0.000000000E+00  0.000000000E+00  1.647338517E+02  1.647338517E+02  0.000000000E+00  0.00000E+00  9.000E+00
      21    -1     0     0   501   511  0.000000000E+00  0.000000000E+00 -2.062468272E+02  2.062468272E+02  0.000000000E+00  0.00000E+00  9.000E+00
      25     1     1     2     0     0  1.990997955E+01  1.233144874E+01 -9.313551487E+01  1.576315198E+02  1.250000000E+02  0.00000E+00  9.000E+00
      25     1     1     2     0     0 -6.013323040E+01  1.956084254E+01  7.273832371E+01  1.578432631E+02  1.250000000E+02  0.00000E+00  9.000E+00
      21     1     1     2   502   511  4.022325085E+01 -3.189229128E+01 -2.111578434E+01  5.550589608E+01  1.066240300E-06  0.00000E+00  9.000E+00
#rwgt            1           1   6.6631092619543392E-002           3       58666           0
</event>
<event>
      5   9999  3.19816E-02  6.71312E+01 -1.00000E+00  1.32148E-01
      21    -1     0     0   512   501  0.000000000E+00  0.000000000E+00  3.135191276E+02  3.135191276E+02  0.000000000E+00  0.00000E+00  9.000E+00
      21    -1     0     0   501   502  0.000000000E+00  0.000000000E+00 -6.583762363E+02  6.583762363E+02  0.000000000E+00  0.00000E+00  9.000E+00
      25     1     1     2     0     0 -2.703826283E+02 -1.737174045E+02 -5.899194594E+01  3.498421816E+02  1.250000000E+02  0.00000E+00  9.000E+00
      25     1     1     2     0     0  3.371622702E+02  1.668557182E+02 -3.502924661E+02  5.290075982E+02  1.250000000E+02  0.00000E+00  9.000E+00
      21     1     1     2   512   502 -6.677964192E+01  6.861686288E+00  6.442730339E+01  9.304558418E+01  1.348699152E-06  0.00000E+00  9.000E+00
#rwgt            2          11   2.7986188648499821E-003           3       58800           0
</event>
<event>
      5   9999  3.19816E-02  1.72763E+01 -1.00000E+00  1.71792E-01
      21    -1     0     0   502   511  0.000000000E+00  0.000000000E+00  6.224292522E+02  6.224292522E+02  0.000000000E+00  0.00000E+00  9.000E+00
      21    -1     0     0   501   502  0.000000000E+00  0.000000000E+00 -1.229708414E+02  1.229708414E+02  0.000000000E+00  0.00000E+00  9.000E+00
      25     1     1     2     0     0  1.693923491E+02  1.578302547E+02  3.286712806E+02  4.210154010E+02  1.250000000E+02  0.00000E+00  9.000E+00
      25     1     1     2     0     0 -1.706600745E+02 -1.406005533E+02  1.425208613E+02  2.912568840E+02  1.250000000E+02  0.00000E+00  9.000E+00
      21     1     1     2   501   511  1.267725422E+00 -1.722970141E+01  2.826626898E+01  3.312780856E+01  3.371747881E-07  0.00000E+00  9.000E+00
#rwgt            1           1   2.5335712492863125E-002           3       58820           0
</event>
<event>
      5   9999  3.19816E-02  1.12474E+01 -1.00000E+00  1.90035E-01
      21    -1     0     0   502   512  0.000000000E+00  0.000000000E+00  2.685762263E+02  2.685762263E+02  0.000000000E+00  0.00000E+00  9.000E+00
      21    -1     0     0   501   502  0.000000000E+00  0.000000000E+00 -3.722154930E+02  3.722154930E+02  0.000000000E+00  0.00000E+00  9.000E+00
      25     1     1     2     0     0 -1.051841724E+02  2.358735764E+02 -1.184090422E+02  3.103961267E+02  1.250000000E+02  0.00000E+00  9.000E+00
      25     1     1     2     0     0  9.403250438E+01 -2.373376429E+02 -2.851485993E+01  2.856735302E+02  1.250000000E+02  0.00000E+00  9.000E+00
      21     1     1     2   501   512  1.115166805E+01  1.464066539E+00  4.328463546E+01  4.472206232E+01  6.743495762E-07  0.00000E+00  9.000E+00
#rwgt            1           1   2.5555206472302389E-002           3       59014           0
</event>
<event>
      5   9999  3.19816E-02  5.78769E+01 -1.00000E+00  1.35545E-01
      21    -1     0     0   502   501  0.000000000E+00  0.000000000E+00  1.098338071E+02  1.098338071E+02  0.000000000E+00  0.00000E+00  9.000E+00
      21    -1     0     0   501   511  0.000000000E+00  0.000000000E+00 -1.069372345E+03  1.069372345E+03  0.000000000E+00  0.00000E+00  9.000E+00
      25     1     1     2     0     0  1.332683860E+02  2.589057357E+00  9.290843815E+00  1.829712702E+02  1.250000000E+02  0.00000E+00  9.000E+00
      25     1     1     2     0     0 -1.078520513E+02 -5.458665090E+01 -7.043515700E+02  7.254983815E+02  1.250000000E+02  0.00000E+00  9.000E+00
      21     1     1     2   502   511 -2.541633468E+01  5.199759354E+01 -2.644778112E+02  2.707364999E+02  0.000000000E+00  0.00000E+00  9.000E+00
#rwgt            1           1   3.5449989974193762E-002           3       59209           0
</event>
<event>
      5   9999  3.19816E-02  1.35885E+02 -1.00000E+00  1.18120E-01
      21    -1     0     0   502   501  0.000000000E+00  0.000000000E+00  7.991704253E+02  7.991704253E+02  0.000000000E+00  0.00000E+00  9.000E+00
      21    -1     0     0   501   512  0.000000000E+00  0.000000000E+00 -2.819475874E+02  2.819475874E+02  0.000000000E+00  0.00000E+00  9.000E+00
      25     1     1     2     0     0 -1.757104214E+02 -3.353247015E+02  3.312827939E+02  5.183532552E+02  1.250000000E+02  0.00000E+00  9.000E+00
      25     1     1     2     0     0  1.252216118E+02  2.091673926E+02  2.844502851E+02  3.949283668E+02  1.250000000E+02  0.00000E+00  9.000E+00
      21     1     1     2   502   512  5.048880959E+01  1.261573089E+02 -9.851024101E+01  1.678363908E+02  0.000000000E+00  0.00000E+00  9.000E+00
#rwgt            1           1   2.8847642822726990E-002           3       59302           0
</event>
<event>
      5   9999  3.19816E-02  4.89609E+02 -1.00000E+00  9.91118E-02
      21    -1     0     0   502   501  0.000000000E+00  0.000000000E+00  4.413018012E+03  4.413018012E+03  0.000000000E+00  0.00000E+00  9.000E+00
       3    -1     0     0   501     0  0.000000000E+00  0.000000000E+00 -2.349703418E+02  2.349703418E+02  0.000000000E+00  0.00000E+00  9.000E+00
      25     1     1     2     0     0 -3.191105502E+01  5.462721386E+02  1.120875556E+03  1.253562354E+03  1.250000000E+02  0.00000E+00  9.000E+00
      25     1     1     2     0     0  3.990542829E+02 -8.701901833E+02  1.751322621E+03  1.999807790E+03  1.250000000E+02  0.00000E+00  9.000E+00
       3     1     1     2   502     0 -3.671432279E+02  3.239180447E+02  1.305849494E+03  1.394618210E+03  2.157918644E-05  0.00000E+00  9.000E+00
#rwgt            1           1   8.4529559589764963E-002           3       59353           0
</event>
<event>
      5   9999  3.19816E-02  5.20540E+01 -1.00000E+00  1.38085E-01
      21    -1     0     0   502   501  0.000000000E+00  0.000000000E+00  5.044867486E+01  5.044867486E+01  0.000000000E+00  0.00000E+00  9.000E+00
       2    -1     0     0   501     0  0.000000000E+00  0.000000000E+00 -1.623258271E+03  1.623258271E+03  0.000000000E+00  0.00000E+00  9.000E+00
      25     1     1     2     0     0 -6.216925981E+01 -7.681899126E+01 -1.729511474E+02  2.351664808E+02  1.250000000E+02  0.00000E+00  9.000E+00
      25     1     1     2     0     0  7.380784392E+01  2.608282819E+01 -1.371218837E+03  1.379127990E+03  1.250000000E+02  0.00000E+00  9.000E+00
       2     1     1     2   502     0 -1.163858410E+01  5.073616307E+01 -2.863961099E+01  5.941247513E+01  2.211002945E-06  0.00000E+00  9.000E+00
#rwgt            1           1   2.4906457215315772E-002           3       59415           0
</event>
<event>
      5   9999  3.19816E-02  1.55961E+01 -1.00000E+00  1.75804E-01
      21    -1     0     0   511   501  0.000000000E+00  0.000000000E+00  6.527018122E+02  6.527018122E+02  0.000000000E+00  0.00000E+00  9.000E+00
      21    -1     0     0   501   502  0.000000000E+00  0.000000000E+00 -4.549115758E+02  4.549115758E+02  0.000000000E+00  0.00000E+00  9.000E+00
      25     1     1     2     0     0  4.592728791E+01  1.236705611E+02 -2.428059871E+02  3.032877690E+02  1.250000000E+02  0.00000E+00  9.000E+00
      25     1     1     2     0     0 -6.001807710E+01 -1.169855730E+02 -1.364896015E+02  2.270290845E+02  1.250000000E+02  0.00000E+00  9.000E+00
      21     1     1     2   511   502  1.409078920E+01 -6.684988148E+00  5.770858250E+02  5.772965346E+02  0.000000000E+00  0.00000E+00  9.000E+00
#rwgt            1           1   2.4578606269845146E-002           3       59475           0
</event>
<event>
      5   9999  3.19816E-02  1.31776E+02 -1.00000E+00  1.18668E-01
      21    -1     0     0   512   501  0.000000000E+00  0.000000000E+00  6.332197179E+02  6.332197179E+02  0.000000000E+00  0.00000E+00  9.000E+00
      21    -1     0     0   501   502  0.000000000E+00  0.000000000E+00 -1.493180512E+03  1.493180512E+03  0.000000000E+00  0.00000E+00  9.000E+00
      25     1     1     2     0     0 -1.043522920E+02 -7.187030221E+02 -8.695041079E+02  1.139774464E+03  1.250000000E+02  0.00000E+00  9.000E+00
      25     1     1     2     0     0  5.985382058E+01  8.427386785E+02 -4.793676395E+00  8.540719756E+02  1.250000000E+02  0.00000E+00  9.000E+00
      21     1     1     2   512   502  4.449847137E+01 -1.240356565E+02  1.433699030E+01  1.325537903E+02  1.410503336E-06  0.00000E+00  9.000E+00
#rwgt            2          11   1.0538320737036134E-002           3       59686           0
</event>
<event>
      5   9999  3.19816E-02  1.07093E+02 -1.00000E+00  1.22504E-01
      21    -1     0     0   511   501  0.000000000E+00  0.000000000E+00  2.617642285E+03  2.617642285E+03  0.000000000E+00  0.00000E+00  9.000E+00
      21    -1     0     0   501   502  0.000000000E+00  0.000000000E+00 -4.639252512E+02  4.639252512E+02  0.000000000E+00  0.00000E+00  9.000E+00
      25     1     1     2     0     0  1.194917146E+02  6.898655397E+01  2.462692490E+03  2.469719967E+03  1.250000000E+02  0.00000E+00  9.000E+00
      25     1     1     2     0     0 -3.558116329E+01 -2.443326325E+00 -4.306005672E+02  4.497931052E+02  1.250000000E+02  0.00000E+00  9.000E+00
      21     1     1     2   511   502 -8.391055134E+01 -6.654322764E+01  1.216251113E+02  1.620544645E+02  2.697398305E-06  0.00000E+00  9.000E+00
#rwgt            1           1   2.8566115595195240E-002           3       59736           0
</event>
<event>
      5   9999  3.19816E-02  2.23586E+01 -1.00000E+00  1.62471E-01
      21    -1     0     0   512   501  0.000000000E+00  0.000000000E+00  5.582799389E+02  5.582799389E+02  0.000000000E+00  0.00000E+00  9.000E+00
      21    -1     0     0   501   502  0.000000000E+00  0.000000000E+00 -6.981355171E+02  6.981355171E+02  0.000000000E+00  0.00000E+00  9.000E+00
      25     1     1     2     0     0  3.728282682E+02 -3.752292006E+02 -3.487203748E+02  6.457776478E+02  1.250000000E+02  0.00000E+00  9.000E+00
      25     1     1     2     0     0 -3.885815717E+02  3.593628759E+02  1.774095676E+02  5.720458627E+02  1.250000000E+02  0.00000E+00  9.000E+00
      21     1     1     2   512   502  1.575330344E+01  1.586632475E+01  3.145522897E+01  3.859194553E+01  6.743495762E-07  0.00000E+00  9.000E+00
#rwgt            2          11   8.7820871632290250E-003           3       59884           0
</event>
<event>
      5   9999  3.19816E-02  1.38395E+02 -1.00000E+00  1.17797E-01
       2    -1     0     0   502     0  0.000000000E+00  0.000000000E+00  1.082566094E+03  1.082566094E+03  0.000000000E+00  0.00000E+00  9.000E+00
      21    -1     0     0   501   502  0.000000000E+00  0.000000000E+00 -5.153806820E+02  5.153806820E+02  0.000000000E+00  0.00000E+00  9.000E+00
      25     1     1     2     0     0 -2.359757668E+02 -1.406852628E+02  7.807785407E+02  8.370884274E+02  1.250000000E+02  0.00000E+00  9.000E+00
      25     1     1     2     0     0  1.686650869E+02  2.616090112E+02 -4.042349783E+02  5.252790724E+02  1.250000000E+02  0.00000E+00  9.000E+00
       2     1     1     2   501     0  6.731067993E+01 -1.209237484E+02  1.906418496E+02  2.355792762E+02  3.814697266E-06  0.00000E+00  9.000E+00
#rwgt            1           1   3.1023545080158539E-002           3       59904           0
</event>
<event>
      5   9999  3.19816E-02  1.82011E+02 -1.00000E+00  1.13159E-01
       2    -1     0     0   502     0  0.000000000E+00  0.000000000E+00  1.823164885E+03  1.823164885E+03  0.000000000E+00  0.00000E+00  9.000E+00
      21    -1     0     0   501   502  0.000000000E+00  0.000000000E+00 -3.600595712E+02  3.600595712E+02  0.000000000E+00  0.00000E+00  9.000E+00
      25     1     1     2     0     0  1.037751849E+02  4.859723009E+01  6.061906398E+02  6.294625259E+02  1.250000000E+02  0.00000E+00  9.000E+00
      25     1     1     2     0     0 -2.004138379E+02  1.056396136E+02 -2.922147238E+02  3.903074163E+02  1.250000000E+02  0.00000E+00  9.000E+00
       2     1     1     2   501     0  9.663865308E+01 -1.542368437E+02  1.149129398E+03  1.163454514E+03  1.525878906E-05  0.00000E+00  9.000E+00
#rwgt            1           1   2.8811340681186084E-002           3       59971           0
</event>
<event>
      5   9999  3.19816E-02  1.95878E+01 -1.00000E+00  1.67119E-01
      21    -1     0     0   502   501  0.000000000E+00  0.000000000E+00  6.557559687E+02  6.557559687E+02  0.000000000E+00  0.00000E+00  9.000E+00
      21    -1     0     0   501   511  0.000000000E+00  0.000000000E+00 -5.330307246E+02  5.330307246E+02  0.000000000E+00  0.00000E+00  9.000E+00
      25     1     1     2     0     0 -6.475492192E+01  5.377395200E+02  6.191158451E+01  5.592986998E+02  1.250000000E+02  0.00000E+00  9.000E+00
      25     1     1     2     0     0  4.583789408E+01 -5.428215245E+02  1.160932931E+02  5.708405844E+02  1.250000000E+02  0.00000E+00  9.000E+00
      21     1     1     2   502   511  1.891702785E+01  5.082004524E+00 -5.527963359E+01  5.864740917E+01  0.000000000E+00  0.00000E+00  9.000E+00
#rwgt            1           1   3.3385335176009022E-002           3       60031           0
</event>
<event>
      5   9999  3.19816E-02  1.13741E+02 -1.00000E+00  1.21364E-01
      21    -1     0     0   512   501  0.000000000E+00  0.000000000E+00  3.826407346E+02  3.826407346E+02  0.000000000E+00  0.00000E+00  9.000E+00
      21    -1     0     0   501   502  0.000000000E+00  0.000000000E+00 -6.985397668E+02  6.985397668E+02  0.000000000E+00  0.00000E+00  9.000E+00
      25     1     1     2     0     0 -2.643432944E+02 -3.302206493E+02 -2.462970219E+02  5.051834098E+02  1.250000000E+02  0.00000E+00  9.000E+00
      25     1     1     2     0     0  3.548063055E+02  2.612745394E+02 -5.771605419E+01  4.616362662E+02  1.250000000E+02  0.00000E+00  9.000E+00
      21     1     1     2   512   502 -9.046301112E+01  6.894610993E+01 -1.188595613E+01  1.143608255E+02  1.973264856E-06  0.00000E+00  9.000E+00
#rwgt            1           1   3.1216414943282766E-002           3       60219           0
</event>
<event>
      5   9999  3.19816E-02  9.89151E+00 -1.00000E+00  1.96306E-01
      21    -1     0     0   502   501  0.000000000E+00  0.000000000E+00  4.516870733E+02  4.516870733E+02  0.000000000E+00  0.00000E+00  9.000E+00
      21    -1     0     0   511   502  0.000000000E+00  0.000000000E+00 -3.412495359E+02  3.412495359E+02  0.000000000E+00  0.00000E+00  9.000E+00
      25     1     1     2     0     0 -9.393732200E+01 -3.121400051E+02  2.084908322E+02  4.066313200E+02  1.250000000E+02  0.00000E+00  9.000E+00
      25     1     1     2     0     0  9.791805154E+01  3.030848531E+02 -6.049534859E+01  3.474666318E+02  1.250000000E+02  0.00000E+00  9.000E+00
      21     1     1     2   511   501 -3.980729548E+00  9.055151985E+00 -3.755794623E+01  3.883865742E+01  0.000000000E+00  0.00000E+00  9.000E+00
#rwgt            1           1   2.7727326907107594E-002           3       60269           0
</event>
<event>
      5   9999  3.19816E-02  4.13480E+01 -1.00000E+00  1.43953E-01
      -1    -1     0     0     0   501  0.000000000E+00  0.000000000E+00  1.329834466E+03  1.329834466E+03  0.000000000E+00  0.00000E+00  9.000E+00
      21    -1     0     0   501   502  0.000000000E+00  0.000000000E+00 -2.929418669E+03  2.929418669E+03  0.000000000E+00  0.00000E+00  9.000E+00
      25     1     1     2     0     0  4.644208388E+02  3.253763504E+02 -2.146172865E+03  2.223339707E+03  1.250000000E+02  0.00000E+00  9.000E+00
      25     1     1     2     0     0 -4.987062419E+02 -3.022642106E+02 -6.248237226E+02  8.637715283E+02  1.250000000E+02  0.00000E+00  9.000E+00
      -1     1     1     2     0   502  3.428540310E+01 -2.311213985E+01  1.171412384E+03  1.172141900E+03  2.642899792E-05  0.00000E+00  9.000E+00
#rwgt            1           1   8.2508217103811440E-002           3       60481           0
</event>
<event>
      5   9999  3.19816E-02  5.78694E+01 -1.00000E+00  1.35548E-01
      21    -1     0     0   502   511  0.000000000E+00  0.000000000E+00  1.447165422E+03  1.447165422E+03  0.000000000E+00  0.00000E+00  9.000E+00
      21    -1     0     0   501   502  0.000000000E+00  0.000000000E+00 -3.027274601E+02  3.027274601E+02  0.000000000E+00  0.00000E+00  9.000E+00
      25     1     1     2     0     0 -8.651793660E+01 -5.428574708E+02  3.206226582E+02  6.485394945E+02  1.250000000E+02  0.00000E+00  9.000E+00
      25     1     1     2     0     0  8.303626763E+01  6.006220139E+02  5.716901877E+02  8.426722352E+02  1.250000000E+02  0.00000E+00  9.000E+00
      21     1     1     2   501   511  3.481668967E+00 -5.776454306E+01  2.521251163E+02  2.586811526E+02  0.000000000E+00  0.00000E+00  9.000E+00
#rwgt            1           1   3.2167366583060651E-002           3       60623           0
</event>
<event>
      5   9999  3.19816E-02  3.24368E+02 -1.00000E+00  1.04502E-01
      21    -1     0     0   502   501  0.000000000E+00  0.000000000E+00  4.803209177E+02  4.803209177E+02  0.000000000E+00  0.00000E+00  9.000E+00
       2    -1     0     0   501     0  0.000000000E+00  0.000000000E+00 -3.333717757E+03  3.333717757E+03  0.000000000E+00  0.00000E+00  9.000E+00
      25     1     1     2     0     0  1.080137972E+02 -4.876056792E+02  3.028472603E+02  5.973003783E+02  1.250000000E+02  0.00000E+00  9.000E+00
      25     1     1     2     0     0 -1.060031004E+02  1.632439635E+02 -6.570189275E+02  6.965515918E+02  1.250000000E+02  0.00000E+00  9.000E+00
       2     1     1     2   502     0 -2.010696796E+00  3.243617157E+02 -2.499225172E+03  2.520186705E+03  0.000000000E+00  0.00000E+00  9.000E+00
#rwgt            1           1   2.0544345357963168E-002           3       60720           0
</event>
<event>
      5   9999  3.19816E-02  8.82637E+01 -1.00000E+00  1.26317E-01
      21    -1     0     0   502   501  0.000000000E+00  0.000000000E+00  2.376756148E+03  2.376756148E+03  0.000000000E+00  0.00000E+00  9.000E+00
      21    -1     0     0   511   502  0.000000000E+00  0.000000000E+00 -2.810908425E+02  2.810908425E+02  0.000000000E+00  0.00000E+00  9.000E+00
      25     1     1     2     0     0 -2.065924458E+02  2.189804673E+02  2.176243162E+03  2.200520890E+03  1.250000000E+02  0.00000E+00  9.000E+00
      25     1     1     2     0     0  1.964749036E+02 -1.312986020E+02 -1.815978632E+02  3.231787347E+02  1.250000000E+02  0.00000E+00  9.000E+00
      21     1     1     2   511   501  1.011754214E+01 -8.768186533E+01  1.010200061E+02  1.341473659E+02  0.000000000E+00  0.00000E+00  9.000E+00
#rwgt            1           1   3.2818520378062079E-002           3       60764           0
</event>
<event>
      5   9999  3.19816E-02  2.85658E+01 -1.00000E+00  1.54532E-01
      21    -1     0     0   502   501  0.000000000E+00  0.000000000E+00  2.181335380E+01  2.181335380E+01  0.000000000E+00  0.00000E+00  9.000E+00
      21    -1     0     0   512   502  0.000000000E+00  0.000000000E+00 -1.587542287E+03  1.587542287E+03  0.000000000E+00  0.00000E+00  9.000E+00
      25     1     1     2     0     0  4.357639550E+01 -6.696026782E+01 -7.559827357E+02  7.704008543E+02  1.250000000E+02  0.00000E+00  9.000E+00
      25     1     1     2     0     0 -6.685761510E+01  8.351288065E+01 -4.691544168E+02  4.971671838E+02  1.250000000E+02  0.00000E+00  9.000E+00
      21     1     1     2   512   501  2.328121960E+01 -1.655261283E+01 -3.405917806E+02  3.417876025E+02  3.814697266E-06  0.00000E+00  9.000E+00
#rwgt            1           1   2.9623376954292471E-002           3       60866           0
</event>
<event>
      5   9999  3.19816E-02  4.04650E+01 -1.00000E+00  1.44530E-01
      21    -1     0     0   502   501  0.000000000E+00  0.000000000E+00  5.496621243E+02  5.496621243E+02  0.000000000E+00  0.00000E+00  9.000E+00
      -4    -1     0     0     0   502  0.000000000E+00  0.000000000E+00 -3.513779997E+02  3.513779997E+02  0.000000000E+00  0.00000E+00  9.000E+00
      25     1     1     2     0     0  3.609489414E+01 -3.373536594E+02  2.705870602E+02  4.516112156E+02  1.250000000E+02  0.00000E+00  9.000E+00
      25     1     1     2     0     0  3.812289508E+00  3.306580109E+02  1.433448698E+01  3.538074777E+02  1.250000000E+02  0.00000E+00  9.000E+00
      -4     1     1     2     0   501 -3.990718365E+01  6.695648434E+00 -8.663742268E+01  9.562143078E+01  9.536743164E-07  0.00000E+00  9.000E+00
#rwgt            1           1   2.5940000381930225E-002           3       61044           0
</event>
<event>
      5   9999  3.19816E-02  1.01673E+02 -1.00000E+00  1.23505E-01
      21    -1     0     0   502   501  0.000000000E+00  0.000000000E+00  2.066626686E+02  2.066626686E+02  0.000000000E+00  0.00000E+00  9.000E+00
       2    -1     0     0   501     0  0.000000000E+00  0.000000000E+00 -3.534764420E+03  3.534764420E+03  0.000000000E+00  0.00000E+00  9.000E+00
      25     1     1     2     0     0  3.640684831E+02 -1.770117677E+02 -3.547188317E+02  5.525662638E+02  1.250000000E+02  0.00000E+00  9.000E+00
      25     1     1     2     0     0 -4.578413213E+02  1.377169435E+02 -3.031658435E+03  3.071670962E+03  1.250000000E+02  0.00000E+00  9.000E+00
       2     1     1     2   502     0  9.377283821E+01  3.929482425E+01  5.827551497E+01  1.171898632E+02  4.672030912E-06  0.00000E+00  9.000E+00
#rwgt            1           1   3.0276236745890538E-002           3       61143           0
</event>
<event>
      5   9999  3.19816E-02  5.93387E+00 -1.00000E+00  2.26222E-01
      21    -1     0     0   502   501  0.000000000E+00  0.000000000E+00  3.129958825E+02  3.129958825E+02  0.000000000E+00  0.00000E+00  9.000E+00
      21    -1     0     0   501   511  0.000000000E+00  0.000000000E+00 -1.455504863E+02  1.455504863E+02  0.000000000E+00  0.00000E+00  9.000E+00
      25     1     1     2     0     0  1.546308531E+02  5.652795202E+01  1.032500733E+02  2.310664141E+02  1.250000000E+02  0.00000E+00  9.000E+00
      25     1     1     2     0     0 -1.605479438E+02 -5.697387294E+01  6.584809095E+01  2.213202104E+02  1.250000000E+02  0.00000E+00  9.000E+00
      21     1     1     2   502   511  5.917090688E+00  4.459209219E-01 -1.652768078E+00  6.159744313E+00  1.010645923E-07  0.00000E+00  9.000E+00
#rwgt            1           1   2.9377769340445014E-002           3       61261           0
</event>
<event>
      5   9999  3.19816E-02  9.71844E+01 -1.00000E+00  1.24388E-01
      21    -1     0     0   502   512  0.000000000E+00  0.000000000E+00  1.851891100E+02  1.851891100E+02  0.000000000E+00  0.00000E+00  9.000E+00
      21    -1     0     0   501   502  0.000000000E+00  0.000000000E+00 -1.094064838E+03  1.094064838E+03  0.000000000E+00  0.00000E+00  9.000E+00
      25     1     1     2     0     0  1.679547162E+02  7.533363717E+01 -1.813013392E+02  2.870176287E+02  1.250000000E+02  0.00000E+00  9.000E+00
      25     1     1     2     0     0 -2.550158098E+02 -3.214587770E+01 -8.136645120E+02  8.624044055E+02  1.250000000E+02  0.00000E+00  9.000E+00
      21     1     1     2   501   512  8.706109355E+01 -4.318775947E+01  8.609012299E+01  1.298319139E+02  9.536743164E-07  0.00000E+00  9.000E+00
#rwgt            1           1   3.2970554704031964E-002           3       61484           0
</event>
<event>
      5   9999  3.19816E-02  2.26742E+02 -1.00000E+00  1.09699E-01
      21    -1     0     0   502   511  0.000000000E+00  0.000000000E+00  1.776874069E+03  1.776874069E+03  0.000000000E+00  0.00000E+00  9.000E+00
      21    -1     0     0   501   502  0.000000000E+00  0.000000000E+00 -9.254994352E+01  9.254994352E+01  0.000000000E+00  0.00000E+00  9.000E+00
      25     1     1     2     0     0  1.128134229E+01  1.074208455E+02  5.128151564E+02  5.387679383E+02  1.250000000E+02  0.00000E+00  9.000E+00
      25     1     1     2     0     0 -6.381908278E+01 -3.279922111E+02  4.494382883E+02  5.738218720E+02  1.250000000E+02  0.00000E+00  9.000E+00
      21     1     1     2   501   511  5.253774048E+01  2.205713656E+02  7.220706810E+02  7.568342024E+02  1.321449896E-05  0.00000E+00  9.000E+00
#rwgt            1           1   2.5911190107084935E-002           3       61564           0
</event>
<event>
      5   9999  3.19816E-02  1.16892E+02 -1.00000E+00  1.20854E-01
       1    -1     0     0   502     0  0.000000000E+00  0.000000000E+00  2.182929330E+03  2.182929330E+03  0.000000000E+00  0.00000E+00  9.000E+00
      21    -1     0     0   501   502  0.000000000E+00  0.000000000E+00 -4.934948482E+01  4.934948482E+01  0.000000000E+00  0.00000E+00  9.000E+00
      25     1     1     2     0     0 -6.324003575E+01  1.665572782E+02  1.093342019E+03  1.114792537E+03  1.250000000E+02  0.00000E+00  9.000E+00
      25     1     1     2     0     0  1.799573022E+02 -1.729485910E+02  8.451879198E+02  8.900918298E+02  1.250000000E+02  0.00000E+00  9.000E+00
       1     1     1     2   501     0 -1.167172664E+02  6.391312784E+00  1.950499054E+02  2.273944475E+02  2.697398305E-06  0.00000E+00  9.000E+00
#rwgt            1           1   8.9188030792228673E-002           3       61622           0
</event>
<event>
      5   9999  3.19816E-02  1.42929E+02 -1.00000E+00  1.17231E-01
      21    -1     0     0   502   501  0.000000000E+00  0.000000000E+00  7.869371802E+02  7.869371802E+02  0.000000000E+00  0.00000E+00  9.000E+00
       1    -1     0     0   501     0  0.000000000E+00  0.000000000E+00 -1.564214893E+03  1.564214893E+03  0.000000000E+00  0.00000E+00  9.000E+00
      25     1     1     2     0     0  5.516524842E+02  3.575601673E+02  4.511995470E+02  8.070785388E+02  1.250000000E+02  0.00000E+00  9.000E+00
      25     1     1     2     0     0 -6.884365069E+02 -3.161006282E+02 -8.825371007E+02  1.169769706E+03  1.250000000E+02  0.00000E+00  9.000E+00
       1     1     1     2   502     0  1.367840228E+02 -4.145953907E+01 -3.459401594E+02  3.743038286E+02  3.814697266E-06  0.00000E+00  9.000E+00
#rwgt            1           1   3.6288802539259021E-002           3       61697           0
</event>
<event>
      5   9999  3.19816E-02  1.66608E+01 -1.00000E+00  1.73192E-01
      21    -1     0     0   511   501  0.000000000E+00  0.000000000E+00  3.012597754E+02  3.012597754E+02  0.000000000E+00  0.00000E+00  9.000E+00
      21    -1     0     0   501   502  0.000000000E+00  0.000000000E+00 -5.008888572E+02  5.008888572E+02  0.000000000E+00  0.00000E+00  9.000E+00
      25     1     1     2     0     0 -1.614590847E+02  3.944925329E+00 -4.282749269E+02  4.744776195E+02  1.250000000E+02  0.00000E+00  9.000E+00
      25     1     1     2     0     0  1.546670788E+02  1.126861037E+01  1.556170130E+02  2.527657840E+02  1.250000000E+02  0.00000E+00  9.000E+00
      21     1     1     2   511   502  6.792005863E+00 -1.521353570E+01  7.302883209E+01  7.490522898E+01  1.348699152E-06  0.00000E+00  9.000E+00
#rwgt            1           1   3.0029810719943154E-002           3       61815           0
</event>
<event>
      5   9999  3.19816E-02  5.08997E+01 -1.00000E+00  1.38635E-01
       1    -1     0     0   502     0  0.000000000E+00  0.000000000E+00  8.838088691E+02  8.838088691E+02  0.000000000E+00  0.00000E+00  9.000E+00
      21    -1     0     0   501   502  0.000000000E+00  0.000000000E+00 -2.496824010E+02  2.496824010E+02  0.000000000E+00  0.00000E+00  9.000E+00
      25     1     1     2     0     0 -4.399039009E+01 -1.786121292E+02  1.272174410E+02  2.562161674E+02  1.250000000E+02  0.00000E+00  9.000E+00
      25     1     1     2     0     0  6.668039120E+01  2.241746679E+02 -8.859689262E+01  2.795978642E+02  1.250000000E+02  0.00000E+00  9.000E+00
       1     1     1     2   501     0 -2.269000112E+01 -4.556253862E+01  5.955059196E+02  5.976772385E+02  1.321449896E-05  0.00000E+00  9.000E+00
#rwgt            1           1   2.5945121084785933E-002           3       62055           0
</event>
<event>
      5   9999  3.19816E-02  4.38115E+01 -1.00000E+00  1.42431E-01
      21    -1     0     0   511   501  0.000000000E+00  0.000000000E+00  6.728334927E+02  6.728334927E+02  0.000000000E+00  0.00000E+00  9.000E+00
      21    -1     0     0   501   502  0.000000000E+00  0.000000000E+00 -1.960741350E+02  1.960741350E+02  0.000000000E+00  0.00000E+00  9.000E+00
      25     1     1     2     0     0  5.122885591E+00 -1.394933977E+00  4.310280789E+02  4.488188885E+02  1.250000000E+02  0.00000E+00  9.000E+00
      25     1     1     2     0     0  7.742427253E+00  4.327492578E+01 -1.611432039E+02  2.086259729E+02  1.250000000E+02  0.00000E+00  9.000E+00
      21     1     1     2   511   502 -1.286531284E+01 -4.187999181E+01  2.068744827E+02  2.114627664E+02  3.814697266E-06  0.00000E+00  9.000E+00
#rwgt            1           1   2.8414053000343126E-002           3       62153           0
</event>
<event>
      5   9999  3.19816E-02  5.43171E+01 -1.00000E+00  1.37054E-01
       2    -1     0     0   502     0  0.000000000E+00  0.000000000E+00  1.478286092E+03  1.478286092E+03  0.000000000E+00  0.00000E+00  9.000E+00
      21    -1     0     0   501   502  0.000000000E+00  0.000000000E+00 -4.511663669E+01  4.511663669E+01  0.000000000E+00  0.00000E+00  9.000E+00
      25     1     1     2     0     0 -4.877855100E+01 -1.254060686E+01  1.157485008E+03  1.165303891E+03  1.250000000E+02  0.00000E+00  9.000E+00
      25     1     1     2     0     0  1.027821455E+02  6.713439189E+00  1.482569993E+02  2.195777255E+02  1.250000000E+02  0.00000E+00  9.000E+00
       2     1     1     2   501     0 -5.400359448E+01  5.827167672E+00  1.274274474E+02  1.385211119E+02  1.348699152E-06  0.00000E+00  9.000E+00
#rwgt            1           1   2.6575781245578373E-002           3       62291           0
</event>
<event>
      5   9999  3.19816E-02  6.42887E+01 -1.00000E+00  1.33120E-01
      21    -1     0     0   511   501  0.000000000E+00  0.000000000E+00  1.112290553E+02  1.112290553E+02  0.000000000E+00  0.00000E+00  9.000E+00
      21    -1     0     0   501   502  0.000000000E+00  0.000000000E+00 -6.107651227E+02  6.107651227E+02  0.000000000E+00  0.00000E+00  9.000E+00
      25     1     1     2     0     0 -8.798864483E+01 -9.545840519E+01 -3.751629459E+01  1.840836253E+02  1.250000000E+02  0.00000E+00  9.000E+00
      25     1     1     2     0     0  1.426059037E+02  6.154688820E+01 -4.073350745E+02  4.535100066E+02  1.250000000E+02  0.00000E+00  9.000E+00
      21     1     1     2   511   502 -5.461725890E+01  3.391151699E+01 -5.468469837E+01  8.440054615E+01  1.168007728E-06  0.00000E+00  9.000E+00
#rwgt            1           1   2.2503309618792419E-002           3       62376           0
</event>
<event>
      5   9999  3.19816E-02  2.53204E+01 -1.00000E+00  1.58338E-01
      21    -1     0     0   502   512  0.000000000E+00  0.000000000E+00  1.142790430E+03  1.142790430E+03  0.000000000E+00  0.00000E+00  9.000E+00
      21    -1     0     0   501   502  0.000000000E+00  0.000000000E+00 -2.184664309E+02  2.184664309E+02  0.000000000E+00  0.00000E+00  9.000E+00
      25     1     1     2     0     0  3.402117243E+02  1.014959657E+02  2.960346424E+02  4.788600608E+02  1.250000000E+02  0.00000E+00  9.000E+00
      25     1     1     2     0     0 -3.403159377E+02 -7.617578757E+01  1.440304178E+02  3.974763507E+02  1.250000000E+02  0.00000E+00  9.000E+00
      21     1     1     2   501   512  1.042134739E-01 -2.532017810E+01  4.842589389E+02  4.849204493E+02  1.078959322E-05  0.00000E+00  9.000E+00
#rwgt            1           1   2.6619281220356426E-002           3       62428           0
</event>
<event>
      5   9999  3.19816E-02  3.31270E+02 -1.00000E+00  1.04211E-01
      21    -1     0     0   502   501  0.000000000E+00  0.000000000E+00  6.858096138E+02  6.858096138E+02  0.000000000E+00  0.00000E+00  9.000E+00
       2    -1     0     0   501     0  0.000000000E+00  0.000000000E+00 -3.772825385E+03  3.772825385E+03  0.000000000E+00  0.00000E+00  9.000E+00
      25     1     1     2     0     0  8.504702137E+02  2.669719113E+02  1.177416533E+02  9.077784327E+02  1.250000000E+02  0.00000E+00  9.000E+00
      25     1     1     2     0     0 -1.174547646E+03 -1.983153430E+02 -2.527484992E+03  2.796908388E+03  1.250000000E+02  0.00000E+00  9.000E+00
       2     1     1     2   502     0  3.240774325E+02 -6.865656836E+01 -6.772724327E+02  7.539481778E+02  7.629394531E-06  0.00000E+00  9.000E+00
#rwgt            2          13   4.7187680689044186E-003           3       62724           0
</event>
<event>
      5   9999  3.19816E-02  6.54356E+01 -1.00000E+00  1.32721E-01
      21    -1     0     0   502   501  0.000000000E+00  0.000000000E+00  4.801332766E+02  4.801332766E+02  0.000000000E+00  0.00000E+00  9.000E+00
       2    -1     0     0   501     0  0.000000000E+00  0.000000000E+00 -1.076213933E+03  1.076213933E+03  0.000000000E+00  0.00000E+00  9.000E+00
      25     1     1     2     0     0 -1.927517367E+02 -2.061345728E+01  9.737220821E+01  2.503687152E+02  1.250000000E+02  0.00000E+00  9.000E+00
      25     1     1     2     0     0  1.586110864E+02  7.643670438E+01  2.669509918E+02  3.433480428E+02  1.250000000E+02  0.00000E+00  9.000E+00
       2     1     1     2   502     0  3.414065035E+01 -5.582324710E+01 -9.604038565E+02  9.626304516E+02  1.078959322E-05  0.00000E+00  9.000E+00
#rwgt            1           1   2.4572902793198122E-002           3       62743           0
</event>
<event>
      5   9999  3.19816E-02  4.96458E+01 -1.00000E+00  1.39252E-01
      21    -1     0     0   502   501  0.000000000E+00  0.000000000E+00  7.262617991E+01  7.262617991E+01  0.000000000E+00  0.00000E+00  9.000E+00
      21    -1     0     0   511   502  0.000000000E+00  0.000000000E+00 -4.246973996E+02  4.246973996E+02  0.000000000E+00  0.00000E+00  9.000E+00
      25     1     1     2     0     0 -4.676973653E+01  1.962580277E+01 -9.395350200E+01  1.643923384E+02  1.250000000E+02  0.00000E+00  9.000E+00
      25     1     1     2     0     0  9.379426387E+01 -3.554425087E+01 -1.884581273E+02  2.473908313E+02  1.250000000E+02  0.00000E+00  9.000E+00
      21     1     1     2   511   501 -4.702452734E+01  1.591844810E+01 -6.965959045E+01  8.554040977E+01  9.536743164E-07  0.00000E+00  9.000E+00
#rwgt            1           1   3.9568756334835004E-002           3       62811           0
</event>
<event>
      5   9999  3.19816E-02  1.55016E+02 -1.00000E+00  1.15830E-01
      21    -1     0     0   502   501  0.000000000E+00  0.000000000E+00  1.064970894E+02  1.064970894E+02  0.000000000E+00  0.00000E+00  9.000E+00
      21    -1     0     0   501   512  0.000000000E+00  0.000000000E+00 -9.351061894E+02  9.351061894E+02  0.000000000E+00  0.00000E+00  9.000E+00
      25     1     1     2     0     0  8.936251861E+01  8.646484383E+01 -3.477454397E+02  3.898893686E+02  1.250000000E+02  0.00000E+00  9.000E+00
      25     1     1     2     0     0 -2.425008029E+02 -6.241006174E+01 -2.609084742E+02  3.826223819E+02  1.250000000E+02  0.00000E+00  9.000E+00
      21     1     1     2   502   512  1.531382843E+02 -2.405478209E+01 -2.199551861E+02  2.690915282E+02  4.672030912E-06  0.00000E+00  9.000E+00
#rwgt            1           1   3.0150446724463719E-002           3       62901           0
</event>
<event>
      5   9999  3.19816E-02  3.60527E+02 -1.00000E+00  1.03062E-01
       2    -1     0     0   502     0  0.000000000E+00  0.000000000E+00  2.936601586E+03  2.936601586E+03  0.000000000E+00  0.00000E+00  9.000E+00
      21    -1     0     0   501   502  0.000000000E+00  0.000000000E+00 -8.914790871E+02  8.914790871E+02  0.000000000E+00  0.00000E+00  9.000E+00
      25     1     1     2     0     0  2.614950760E+02  9.955695763E+02  1.100212517E+03  1.511830361E+03  1.250000000E+02  0.00000E+00  9.000E+00
      25     1     1     2     0     0 -1.991284996E+02 -6.404781342E+02 -4.879049909E+02  8.387733185E+02  1.250000000E+02  0.00000E+00  9.000E+00
       2     1     1     2   501     0 -6.236657637E+01 -3.550914422E+02  1.432814973E+03  1.477476994E+03  2.157918644E-05  0.00000E+00  9.000E+00
#rwgt            1           1   3.2243623229812807E-002           3       62949           0
</event>
<event>
      5   9999  3.19816E-02  6.04116E+01 -1.00000E+00  1.34545E-01
      21    -1     0     0   502   511  0.000000000E+00  0.000000000E+00  1.280604140E+03  1.280604140E+03  0.000000000E+00  0.00000E+00  9.000E+00
      21    -1     0     0   501   502  0.000000000E+00  0.000000000E+00 -4.135941894E+02  4.135941894E+02  0.000000000E+00  0.00000E+00  9.000E+00
      25     1     1     2     0     0 -5.392196133E+01  2.121619615E+02  9.714048737E+02  1.003579944E+03  1.250000000E+02  0.00000E+00  9.000E+00
      25     1     1     2     0     0  9.819766007E+00 -1.708757065E+02 -3.655603903E+02  4.225569001E+02  1.250000000E+02  0.00000E+00  9.000E+00
      21     1     1     2   501   511  4.410219532E+01 -4.128625506E+01  2.611654668E+02  2.680614847E+02  0.000000000E+00  0.00000E+00  9.000E+00
#rwgt            1           1   3.3648253567899800E-002           3       63007           0
</event>
<event>
      5   9999  3.19816E-02  3.99942E+01 -1.00000E+00  1.44844E-01
      21    -1     0     0   502   501  0.000000000E+00  0.000000000E+00  1.556652026E+02  1.556652026E+02  0.000000000E+00  0.00000E+00  9.000E+00
      21    -1     0     0   501   512  0.000000000E+00  0.000000000E+00 -5.491658464E+02  5.491658464E+02  0.000000000E+00  0.00000E+00  9.000E+00
      25     1     1     2     0     0 -1.082950824E+02 -9.662487192E+01 -3.781474599E+02  4.238923120E+02  1.250000000E+02  0.00000E+00  9.000E+00
      25     1     1     2     0     0  1.287693941E+02  1.309809093E+02  2.565953760E+01  2.236536772E+02  1.250000000E+02  0.00000E+00  9.000E+00
      21     1     1     2   502   512 -2.047431172E+01 -3.435603739E+01 -4.101272143E+01  5.728505970E+01  0.000000000E+00  0.00000E+00  9.000E+00
#rwgt            1           1   2.7101894210172468E-002           3       63129           0
</event>
<event>
      5   9999  3.19816E-02  4.19056E+01 -1.00000E+00  1.43598E-01
      21    -1     0     0   502   501  0.000000000E+00  0.000000000E+00  9.293977982E+01  9.293977982E+01  0.000000000E+00  0.00000E+00  9.000E+00
      21    -1     0     0   511   502  0.000000000E+00  0.000000000E+00 -8.644354467E+02  8.644354467E+02  0.000000000E+00  0.00000E+00  9.000E+00
      25     1     1     2     0     0 -1.781193468E+02  1.327065215E+02 -3.738545235E+02  4.524706923E+02  1.250000000E+02  0.00000E+00  9.000E+00
      25     1     1     2     0     0  1.365880631E+02 -1.382951625E+02 -2.087525249E+02  3.114232933E+02  1.250000000E+02  0.00000E+00  9.000E+00
      21     1     1     2   511   501  4.153128373E+01  5.588640909E+00 -1.888886184E+02  1.934812410E+02  2.697398305E-06  0.00000E+00  9.000E+00
#rwgt            1           1   2.5402150839804440E-002           3       63254           0
</event>
<event>
      5   9999  3.19816E-02  3.87035E+02 -1.00000E+00  1.02118E-01
      -1    -1     0     0     0   501  0.000000000E+00  0.000000000E+00  6.196698020E+02  6.196698020E+02  0.000000000E+00  0.00000E+00  9.000E+00
      21    -1     0     0   501   502  0.000000000E+00  0.000000000E+00 -8.676054312E+02  8.676054312E+02  0.000000000E+00  0.00000E+00  9.000E+00
      25     1     1     2     0     0  1.864842297E+02 -6.621532436E+02 -1.101625334E+02  7.078022815E+02  1.250000000E+02  0.00000E+00  9.000E+00
      25     1     1     2     0     0 -2.020813179E+02  2.754327300E+02 -1.469592652E+02  3.923290372E+02  1.250000000E+02  0.00000E+00  9.000E+00
      -1     1     1     2     0   502  1.559708818E+01  3.867205136E+02  9.186169342E+00  3.871439145E+02  1.002280061E-05  0.00000E+00  9.000E+00
#rwgt            2           5   6.2620765651477366E-005           3       63314           0
</event>
<event>
      5   9999  3.19816E-02  1.24903E+02 -1.00000E+00  1.19635E-01
      21    -1     0     0   502   501  0.000000000E+00  0.000000000E+00  1.022294918E+03  1.022294918E+03  0.000000000E+00  0.00000E+00  9.000E+00
      21    -1     0     0   501   511  0.000000000E+00  0.000000000E+00 -5.756382734E+02  5.756382734E+02  0.000000000E+00  0.00000E+00  9.000E+00
      25     1     1     2     0     0  2.489373433E+02  4.957404832E+02  3.445621092E+02  6.648883174E+02  1.250000000E+02  0.00000E+00  9.000E+00
      25     1     1     2     0     0 -1.439419797E+02 -4.280887614E+02  3.961078763E+02  6.136006281E+02  1.250000000E+02  0.00000E+00  9.000E+00
      21     1     1     2   502   511 -1.049953636E+02 -6.765172178E+01 -2.940133407E+02  3.194442461E+02  6.607249480E-06  0.00000E+00  9.000E+00
#rwgt            1           1   3.2569412494187239E-002           3       63348           0
</event>
<event>
      5   9999  3.19816E-02  9.68101E+01 -1.00000E+00  1.24465E-01
      21    -1     0     0   502   512  0.000000000E+00  0.000000000E+00  1.054974943E+03  1.054974943E+03  0.000000000E+00  0.00000E+00  9.000E+00
      21    -1     0     0   501   502  0.000000000E+00  0.000000000E+00 -6.603857954E+02  6.603857954E+02  0.000000000E+00  0.00000E+00  9.000E+00
      25     1     1     2     0     0  4.784666330E+02  4.029389231E+02  5.433685966E+02  8.379525800E+02  1.250000000E+02  0.00000E+00  9.000E+00
      25     1     1     2     0     0 -5.681978847E+02 -3.666003794E+02 -2.552544557E+02  7.335015416E+02  1.250000000E+02  0.00000E+00  9.000E+00
      21     1     1     2   501   512  8.973125171E+01 -3.633854369E+01  1.064750069E+02  1.439066169E+02  2.336015456E-06  0.00000E+00  9.000E+00
#rwgt            2          11   6.8460068350611573E-003           3       63456           0
</event>
<event>
      5   9999  3.19816E-02  6.25746E+01 -1.00000E+00  1.33736E-01
      21    -1     0     0   502   511  0.000000000E+00  0.000000000E+00  9.025050873E+02  9.025050873E+02  0.000000000E+00  0.00000E+00  9.000E+00
      21    -1     0     0   501   502  0.000000000E+00  0.000000000E+00 -1.180542040E+02  1.180542040E+02  0.000000000E+00  0.00000E+00  9.000E+00
      25     1     1     2     0     0  2.010951611E+02 -8.192429697E+01  1.213574659E+02  2.783944841E+02  1.250000000E+02  0.00000E+00  9.000E+00
      25     1     1     2     0     0 -1.907225687E+02  1.436331703E+02  5.619003984E+02  6.231874866E+02  1.250000000E+02  0.00000E+00  9.000E+00
      21     1     1     2   501   511 -1.037259240E+01 -6.170887333E+01  1.011930190E+02  1.189773206E+02  0.000000000E+00  0.00000E+00  9.000E+00
#rwgt            1           1   2.8334553615389838E-002           3       63491           0
</event>
<event>
      5   9999  3.19816E-02  6.08810E+01 -1.00000E+00  1.34366E-01
      21    -1     0     0   502   512  0.000000000E+00  0.000000000E+00  1.004631125E+02  1.004631125E+02  0.000000000E+00  0.00000E+00  9.000E+00
      21    -1     0     0   501   502  0.000000000E+00  0.000000000E+00 -6.308932444E+02  6.308932444E+02  0.000000000E+00  0.00000E+00  9.000E+00
      25     1     1     2     0     0 -3.322618076E+01 -4.951318873E+00 -4.992090434E+02  5.157161658E+02  1.250000000E+02  0.00000E+00  9.000E+00
      25     1     1     2     0     0 -1.218614800E+01 -3.559761221E+01  2.483664419E+01  1.328817184E+02  1.250000000E+02  0.00000E+00  9.000E+00
      21     1     1     2   501   512  4.541232877E+01  4.054893109E+01 -5.605773263E+01  8.275847270E+01  6.743495762E-07  0.00000E+00  9.000E+00
#rwgt            1           1   2.7372026123864922E-002           3       63594           0
</event>
<event>
      5   9999  3.19816E-02  2.03340E+01 -1.00000E+00  1.65778E-01
      21    -1     0     0   502   511  0.000000000E+00  0.000000000E+00  1.707192668E+02  1.707192668E+02  0.000000000E+00  0.00000E+00  9.000E+00
      21    -1     0     0   501   502  0.000000000E+00  0.000000000E+00 -8.891537418E+02  8.891537418E+02  0.000000000E+00  0.00000E+00  9.000E+00
      25     1     1     2     0     0  1.000767643E+02 -3.331898911E+02 -2.645038786E+02  4.545527077E+02  1.250000000E+02  0.00000E+00  9.000E+00
      25     1     1     2     0     0 -8.886627032E+01  3.162253215E+02 -4.644404829E+02  5.824307943E+02  1.250000000E+02  0.00000E+00  9.000E+00
      21     1     1     2   501   511 -1.121049400E+01  1.696456960E+01  1.050988652E+01  2.288950659E+01  1.685873940E-07  0.00000E+00  9.000E+00
#rwgt            1           1   3.2841524304480708E-002           3       63700           0
</event>
<event>
      5   9999  3.19816E-02  1.23379E+02 -1.00000E+00  1.19859E-01
      21    -1     0     0   502   512  0.000000000E+00  0.000000000E+00  5.680583865E+02  5.680583865E+02  0.000000000E+00  0.00000E+00  9.000E+00
      21    -1     0     0   501   502  0.000000000E+00  0.000000000E+00 -3.236852373E+02  3.236852373E+02  0.000000000E+00  0.00000E+00  9.000E+00
      25     1     1     2     0     0 -2.866898117E+01  2.493248649E+02  1.928304032E+01  2.810367136E+02  1.250000000E+02  0.00000E+00  9.000E+00
      25     1     1     2     0     0  3.729160884E+01 -1.262479443E+02 -1.374817128E+02  2.277178712E+02  1.250000000E+02  0.00000E+00  9.000E+00
      21     1     1     2   501   512 -8.622627667E+00 -1.230769207E+02  3.625718217E+02  3.829890390E+02  0.000000000E+00  0.00000E+00  9.000E+00
#rwgt            1           1   2.8820880273165022E-002           3       63834           0
</event>
<event>
      5   9999  3.19816E-02  8.91461E+02 -1.00000E+00  9.22052E-02
       2    -1     0     0   502     0  0.000000000E+00  0.000000000E+00  1.227085941E+03  1.227085941E+03  0.000000000E+00  0.00000E+00  9.000E+00
      21    -1     0     0   501   502  0.000000000E+00  0.000000000E+00 -1.781282065E+03  1.781282065E+03  0.000000000E+00  0.00000E+00  9.000E+00
      25     1     1     2     0     0  4.032178808E+02 -8.313013170E+02 -1.153827631E+03  1.483438485E+03  1.250000000E+02  0.00000E+00  9.000E+00
      25     1     1     2     0     0 -4.593491782E+02 -5.839111971E+01  6.126961746E+01  4.835185171E+02  1.250000000E+02  0.00000E+00  9.000E+00
       2     1     1     2   501     0  5.613129746E+01  8.896924367E+02  5.383618884E+02  1.041411003E+03  2.288818359E-05  0.00000E+00  9.000E+00
#rwgt            2          18   6.7406790522403850E-004           3       63916           0
</event>
<event>
      5   9999  3.19816E-02  2.36630E+01 -1.00000E+00  1.60560E-01
      21    -1     0     0   502   511  0.000000000E+00  0.000000000E+00  2.084789086E+02  2.084789086E+02  0.000000000E+00  0.00000E+00  9.000E+00
      21    -1     0     0   501   502  0.000000000E+00  0.000000000E+00 -2.545706410E+02  2.545706410E+02  0.000000000E+00  0.00000E+00  9.000E+00
      25     1     1     2     0     0 -1.728324128E+01 -5.380868250E+01 -1.697937272E+02  2.182864965E+02  1.250000000E+02  0.00000E+00  9.000E+00
      25     1     1     2     0     0  3.270058979E+01  7.175974462E+01  3.354904899E+01  1.515563532E+02  1.250000000E+02  0.00000E+00  9.000E+00
      21     1     1     2   501   511 -1.541734851E+01 -1.795106212E+01  9.015294585E+01  9.320669993E+01  9.536743164E-07  0.00000E+00  9.000E+00
#rwgt            1           1   3.0682036269635810E-002           3       63950           0
</event>
<event>
      5   9999  3.19816E-02  8.89718E+01 -1.00000E+00  1.26154E-01
      21    -1     0     0   502   512  0.000000000E+00  0.000000000E+00  2.206316230E+03  2.206316230E+03  0.000000000E+00  0.00000E+00  9.000E+00
      21    -1     0     0   501   502  0.000000000E+00  0.000000000E+00 -4.908569887E+02  4.908569887E+02  0.000000000E+00  0.00000E+00  9.000E+00
      25     1     1     2     0     0  1.694685186E+02  1.165848476E+02 -4.168410243E+02  4.813450374E+02  1.250000000E+02  0.00000E+00  9.000E+00
      25     1     1     2     0     0 -8.054377721E+01 -1.136927573E+02  1.741852140E+02  2.556928467E+02  1.250000000E+02  0.00000E+00  9.000E+00
      21     1     1     2   501   512 -8.892474142E+01 -2.892090289E+00  1.958115052E+03  1.960135335E+03  0.000000000E+00  0.00000E+00  9.000E+00
#rwgt            2          11   3.9501456681422286E-003           3       64112           0
</event>
<event>
      5   9999  3.19816E-02  3.35063E+01 -1.00000E+00  1.49779E-01
      21    -1     0     0   502   501  0.000000000E+00  0.000000000E+00  1.255496234E+02  1.255496234E+02  0.000000000E+00  0.00000E+00  9.000E+00
      21    -1     0     0   501   511  0.000000000E+00  0.000000000E+00 -7.939287915E+02  7.939287915E+02  0.000000000E+00  0.00000E+00  9.000E+00
      25     1     1     2     0     0  1.438925499E+02  1.201749433E+01 -2.335908046E+02  3.017269463E+02  1.250000000E+02  0.00000E+00  9.000E+00
      25     1     1     2     0     0 -1.766798946E+02 -5.113712531E+00 -3.829963121E+01  2.198494870E+02  1.250000000E+02  0.00000E+00  9.000E+00
      21     1     1     2   502   511  3.278734463E+01 -6.903781803E+00 -3.964887323E+02  3.979019816E+02  5.394796609E-06  0.00000E+00  9.000E+00
#rwgt            1           1   2.6252459333117574E-002           3       64147           0
</event>
<event>
      5   9999  3.19816E-02  3.01813E+01 -1.00000E+00  1.52858E-01
      21    -1     0     0   512   501  0.000000000E+00  0.000000000E+00  4.873920348E+02  4.873920348E+02  0.000000000E+00  0.00000E+00  9.000E+00
      21    -1     0     0   501   502  0.000000000E+00  0.000000000E+00 -4.763401146E+02  4.763401146E+02  0.000000000E+00  0.00000E+00  9.000E+00
      25     1     1     2     0     0  3.606284105E+02 -4.869012943E+01  5.904472442E+00  3.848161145E+02  1.250000000E+02  0.00000E+00  9.000E+00
      25     1     1     2     0     0 -3.524886222E+02  7.775302319E+01 -1.577221824E+02  4.132735755E+02  1.250000000E+02  0.00000E+00  9.000E+00
      21     1     1     2   512   502 -8.139788347E+00 -2.906289376E+01  1.628696301E+02  1.656424594E+02  1.907348633E-06  0.00000E+00  9.000E+00
#rwgt            1           1   2.9081775769401713E-002           3       64252           0
</event>
<event>
      5   9999  3.19816E-02  7.01106E+01 -1.00000E+00  1.31186E-01
      21    -1     0     0   502   501  0.000000000E+00  0.000000000E+00  1.527165337E+02  1.527165337E+02  0.000000000E+00  0.00000E+00  9.000E+00
      21    -1     0     0   501   511  0.000000000E+00  0.000000000E+00 -5.629724901E+02  5.629724901E+02  0.000000000E+00  0.00000E+00  9.000E+00
      25     1     1     2     0     0  1.126745221E+02 -1.543758259E+02  5.903479489E+00  2.284453865E+02  1.250000000E+02  0.00000E+00  9.000E+00
      25     1     1     2     0     0 -1.018103957E+02  8.511211104E+01 -2.804677408E+02  3.345094644E+02  1.250000000E+02  0.00000E+00  9.000E+00
      21     1     1     2   502   511 -1.086412644E+01  6.926371490E+01 -1.356916951E+02  1.527341729E+02  1.907348633E-06  0.00000E+00  9.000E+00
#rwgt            2          11   2.3003504620619083E-003           3       64379           0
</event>
<event>
      5   9999  3.19816E-02  2.47118E+01 -1.00000E+00  1.59129E-01
      21    -1     0     0   512   501  0.000000000E+00  0.000000000E+00  3.735864989E+02  3.735864989E+02  0.000000000E+00  0.00000E+00  9.000E+00
      21    -1     0     0   501   502  0.000000000E+00  0.000000000E+00 -2.496484751E+02  2.496484751E+02  0.000000000E+00  0.00000E+00  9.000E+00
      25     1     1     2     0     0  2.312842967E+02  9.912990098E+01 -3.692205842E+01  2.833856058E+02  1.250000000E+02  0.00000E+00  9.000E+00
      25     1     1     2     0     0 -2.314222831E+02 -7.441849854E+01  1.380992362E+02  3.062528124E+02  1.250000000E+02  0.00000E+00  9.000E+00
      21     1     1     2   512   502  1.379864057E-01 -2.471140244E+01  2.276084601E+01  3.359655580E+01  4.768371582E-07  0.00000E+00  9.000E+00
#rwgt            1           1   2.7520108727133515E-002           3       64399           0
</event>
<event>
      5   9999  3.19816E-02  1.84261E+01 -1.00000E+00  1.69361E-01
      21    -1     0     0   511   501  0.000000000E+00  0.000000000E+00  4.747207994E+02  4.747207994E+02  0.000000000E+00  0.00000E+00  9.000E+00
      21    -1     0     0   501   502  0.000000000E+00  0.000000000E+00 -1.708282761E+02  1.708282761E+02  0.000000000E+00  0.00000E+00  9.000E+00
      25     1     1     2     0     0 -1.527748248E+01  1.991267867E+02  1.372550993E+02  2.726698387E+02  1.250000000E+02  0.00000E+00  9.000E+00
      25     1     1     2     0     0  6.062418938E+00 -2.150830589E+02  4.876516235E+01  2.535754645E+02  1.250000000E+02  0.00000E+00  9.000E+00
      21     1     1     2   511   502  9.215063540E+00  1.595627219E+01  1.178722616E+02  1.193037723E+02  1.348699152E-06  0.00000E+00  9.000E+00
#rwgt            1           1   2.7178560306243445E-002           3       64556           0
</event>
<event>
      5   9999  3.19816E-02  6.63145E+01 -1.00000E+00  1.32421E-01
      21    -1     0     0   502   501  0.000000000E+00  0.000000000E+00  2.521915468E+03  2.521915468E+03  0.000000000E+00  0.00000E+00  9.000E+00
      21    -1     0     0   512   502  0.000000000E+00  0.000000000E+00 -1.503621904E+02  1.503621904E+02  0.000000000E+00  0.00000E+00  9.000E+00
      25     1     1     2     0     0  1.449868060E+02  4.849186529E+02  1.653812821E+03  1.734038385E+03  1.250000000E+02  0.00000E+00  9.000E+00
      25     1     1     2     0     0 -2.104528210E+02 -4.743441638E+02  6.694689946E+02  8.562163922E+02  1.250000000E+02  0.00000E+00  9.000E+00
      21     1     1     2   512   501  6.546601496E+01 -1.057448905E+01  4.827146131E+01  8.202288041E+01  1.907348633E-06  0.00000E+00  9.000E+00
#rwgt            1           1   2.7294835840583561E-002           3       64682           0
</event>
<event>
      5   9999  3.19816E-02  4.77090E+01 -1.00000E+00  1.40248E-01
      21    -1     0     0   502   501  0.000000000E+00  0.000000000E+00  7.484552409E+02  7.484552409E+02  0.000000000E+00  0.00000E+00  9.000E+00
      21    -1     0     0   501   511  0.000000000E+00  0.000000000E+00 -6.956376124E+02  6.956376124E+02  0.000000000E+00  0.00000E+00  9.000E+00
      25     1     1     2     0     0  5.379200050E+02  1.829514276E+02  3.865525909E+02  6.984819698E+02  1.250000000E+02  0.00000E+00  9.000E+00
      25     1     1     2     0     0 -5.503501584E+02 -2.290126771E+02 -2.705805996E+02  6.664615248E+02  1.250000000E+02  0.00000E+00  9.000E+00
      21     1     1     2   502   511  1.243015345E+01  4.606124954E+01 -6.315436292E+01  7.914935868E+01  0.000000000E+00  0.00000E+00  9.000E+00
#rwgt            1           1   3.1231169056888764E-002           3       64772           0
</event>
<event>
      5   9999  3.19816E-02  1.43808E+02 -1.00000E+00  1.17124E-01
       1    -1     0     0   502     0  0.000000000E+00  0.000000000E+00  4.257084666E+02  4.257084666E+02  0.000000000E+00  0.00000E+00  9.000E+00
      21    -1     0     0   501   502  0.000000000E+00  0.000000000E+00 -9.211458434E+02  9.211458434E+02  0.000000000E+00  0.00000E+00  9.000E+00
      25     1     1     2     0     0  1.081261243E+01 -3.479304618E+02 -2.015997456E+02  4.212362476E+02  1.250000000E+02  0.00000E+00  9.000E+00
      25     1     1     2     0     0 -9.502676896E+01  2.313593074E+02 -5.584014857E+02  6.244953444E+02  1.250000000E+02  0.00000E+00  9.000E+00
       1     1     1     2   501     0  8.421415653E+01  1.165711543E+02  2.645638546E+02  3.011227180E+02  5.394796609E-06  0.00000E+00  9.000E+00
#rwgt            1           1   3.0959282613862518E-002           3       64960           0
</event>
<event>
      5   9999  3.19816E-02  4.31911E+02 -1.00000E+00  1.00692E-01
      21    -1     0     0   502   501  0.000000000E+00  0.000000000E+00  6.605398872E+02  6.605398872E+02  0.000000000E+00  0.00000E+00  9.000E+00
       2    -1     0     0   501     0  0.000000000E+00  0.000000000E+00 -1.670975373E+03  1.670975373E+03  0.000000000E+00  0.00000E+00  9.000E+00
      25     1     1     2     0     0  1.429186669E+02  4.682602664E+02  2.213364639E+02  5.516414167E+02  1.250000000E+02  0.00000E+00  9.000E+00
      25     1     1     2     0     0  1.173453227E+02 -1.235726699E+02  1.959791043E+02  2.882237652E+02  1.250000000E+02  0.00000E+00  9.000E+00
       2     1     1     2   502     0 -2.602639896E+02 -3.446875965E+02 -1.427751054E+03  1.491650078E+03  1.525878906E-05  0.00000E+00  9.000E+00
#rwgt            2          13   4.1830354151627487E-003           3       65278           0
</event>
<event>
      5   9999  3.19816E-02  9.16561E+01 -1.00000E+00  1.25554E-01
       2    -1     0     0   502     0  0.000000000E+00  0.000000000E+00  2.995304640E+03  2.995304640E+03  0.000000000E+00  0.00000E+00  9.000E+00
      21    -1     0     0   501   502  0.000000000E+00  0.000000000E+00 -2.862350072E+02  2.862350072E+02  0.000000000E+00  0.00000E+00  9.000E+00
      25     1     1     2     0     0  8.080533779E+01 -6.825286827E+02  3.766916344E+02  7.936601872E+02  1.250000000E+02  0.00000E+00  9.000E+00
      25     1     1     2     0     0 -1.149668401E+02  5.974767346E+02  1.194786021E+03  1.346601076E+03  1.250000000E+02  0.00000E+00  9.000E+00
       2     1     1     2   501     0  3.416150228E+01  8.505194803E+01  1.137591977E+03  1.141278383E+03  2.642899792E-05  0.00000E+00  9.000E+00
#rwgt            1           1   2.9273474274637109E-002           3       65327           0
</event>
<event>
      5   9999  3.19816E-02  7.91573E+01 -1.00000E+00  1.28572E-01
      21    -1     0     0   502   511  0.000000000E+00  0.000000000E+00  1.540569521E+02  1.540569521E+02  0.000000000E+00  0.00000E+00  9.000E+00
      21    -1     0     0   501   502  0.000000000E+00  0.000000000E+00 -1.313662465E+03  1.313662465E+03  0.000000000E+00  0.00000E+00  9.000E+00
      25     1     1     2     0     0 -2.258965474E+02  2.205320002E+02 -2.064285939E+02  3.973680631E+02  1.250000000E+02  0.00000E+00  9.000E+00
      25     1     1     2     0     0  2.129952078E+02 -2.986308558E+02 -8.840663592E+02  9.652697416E+02  1.250000000E+02  0.00000E+00  9.000E+00
      21     1     1     2   501   511  1.290133958E+01  7.809885560E+01 -6.911056005E+01  1.050816127E+02  1.348699152E-06  0.00000E+00  9.000E+00
#rwgt            1           1   2.9940140204897204E-002           3       65438           0
</event>
<event>
      5   9999  3.19816E-02  4.12360E+01 -1.00000E+00  1.44025E-01
      21    -1     0     0   512   501  0.000000000E+00  0.000000000E+00  5.457559046E+02  5.457559046E+02  0.000000000E+00  0.00000E+00  9.000E+00
      21    -1     0     0   501   502  0.000000000E+00  0.000000000E+00 -1.185616148E+03  1.185616148E+03  0.000000000E+00  0.00000E+00  9.000E+00
      25     1     1     2     0     0  1.959952890E+02  1.087765691E+02  3.901193536E+02  4.669738808E+02  1.250000000E+02  0.00000E+00  9.000E+00
      25     1     1     2     0     0 -2.305487351E+02 -8.627175254E+01 -1.126288862E+03  1.159632328E+03  1.250000000E+02  0.00000E+00  9.000E+00
      21     1     1     2   512   502  3.455344610E+01 -2.250481656E+01  9.630926547E+01  1.047658438E+02  1.907348633E-06  0.00000E+00  9.000E+00
#rwgt            1           1   3.4126173099084584E-002           3       65534           0
</event>
<event>
      5   9999  3.19816E-02  2.27708E+02 -1.00000E+00  1.09634E-01
      21    -1     0     0   511   501  0.000000000E+00  0.000000000E+00  7.264039591E+02  7.264039591E+02  0.000000000E+00  0.00000E+00  9.000E+00
      21    -1     0     0   501   502  0.000000000E+00  0.000000000E+00 -2.706523670E+02  2.706523670E+02  0.000000000E+00  0.00000E+00  9.000E+00
      25     1     1     2     0     0  1.341002488E+02  3.476483743E+01 -1.759562293E+02  2.564703984E+02  1.250000000E+02  0.00000E+00  9.000E+00
      25     1     1     2     0     0  9.320219262E+01 -2.118136952E+01  2.903896470E+02  3.302823734E+02  1.250000000E+02  0.00000E+00  9.000E+00
      21     1     1     2   511   502 -2.273024414E+02 -1.358346791E+01  3.413181744E+02  4.103035543E+02  3.814697266E-06  0.00000E+00  9.000E+00
#rwgt            2          11   2.9297173995857838E-003           3       65749           0
</event>
<event>
      5   9999  3.19816E-02  3.91964E+02 -1.00000E+00  1.01951E-01
      21    -1     0     0   502   501  0.000000000E+00  0.000000000E+00  6.053986746E+02  6.053986746E+02  0.000000000E+00  0.00000E+00  9.000E+00
      21    -1     0     0   501   512  0.000000000E+00  0.000000000E+00 -6.131254606E+02  6.131254606E+02  0.000000000E+00  0.00000E+00  9.000E+00
      25     1     1     2     0     0  1.453799860E+02  4.649022595E+01  2.566795096E+02  3.237376284E+02  1.250000000E+02  0.00000E+00  9.000E+00
      25     1     1     2     0     0 -3.303747292E+02  2.990714930E+02 -1.394562618E+02  4.833883207E+02  1.250000000E+02  0.00000E+00  9.000E+00
      21     1     1     2   502   512  1.849947432E+02 -3.455617189E+02 -1.249500338E+02  4.113981861E+02  1.348699152E-06  0.00000E+00  9.000E+00
#rwgt            2          11   2.7013751059719168E-003           3       65784           0
</event>
<event>
      5   9999  3.19816E-02  1.69153E+02 -1.00000E+00  1.14362E-01
      21    -1     0     0   502   501  0.000000000E+00  0.000000000E+00  9.601125730E+02  9.601125730E+02  0.000000000E+00  0.00000E+00  9.000E+00
       2    -1     0     0   501     0  0.000000000E+00  0.000000000E+00 -4.991698777E+03  4.991698777E+03  0.000000000E+00  0.00000E+00  9.000E+00
      25     1     1     2     0     0  5.643555494E+02 -3.753675683E+02  2.470184104E+02  7.321482722E+02  1.250000000E+02  0.00000E+00  9.000E+00
      25     1     1     2     0     0 -4.289594552E+02  4.767604417E+02  2.413460437E+02  6.965483801E+02  1.250000000E+02  0.00000E+00  9.000E+00
       2     1     1     2   502     0 -1.353960942E+02 -1.013928734E+02 -4.519950658E+03  4.523114698E+03  6.103515625E-05  0.00000E+00  9.000E+00
#rwgt            1           1   2.2311666231450571E-002           3       65849           0
</event>
<event>
      5   9999  3.19816E-02  2.16805E+02 -1.00000E+00  1.10387E-01
      21    -1     0     0   502   501  0.000000000E+00  0.000000000E+00  1.012235086E+02  1.012235086E+02  0.000000000E+00  0.00000E+00  9.000E+00
       1    -1     0     0   501     0  0.000000000E+00  0.000000000E+00 -2.077261864E+03  2.077261864E+03  0.000000000E+00  0.00000E+00  9.000E+00
      25     1     1     2     0     0 -1.807498737E+02  7.650797012E+01 -1.462823692E+03  1.481216439E+03  1.250000000E+02  0.00000E+00  9.000E+00
      25     1     1     2     0     0  1.363058605E+02  1.356927222E+02 -1.493784725E+02  2.737347813E+02  1.250000000E+02  0.00000E+00  9.000E+00
       1     1     1     2   502     0  4.444401328E+01 -2.122006923E+02 -3.638361913E+02  4.235341524E+02  0.000000000E+00  0.00000E+00  9.000E+00
#rwgt            1           1   2.7005331063432735E-002           3       65910           0
</event>
<event>
      5   9999  3.19816E-02  1.27212E+02 -1.00000E+00  1.19302E-01
      21    -1     0     0   502   501  0.000000000E+00  0.000000000E+00  2.172473638E+02  2.172473638E+02  0.000000000E+00  0.00000E+00  9.000E+00
       2    -1     0     0   501     0  0.000000000E+00  0.000000000E+00 -3.092150259E+03  3.092150259E+03  0.000000000E+00  0.00000E+00  9.000E+00
      25     1     1     2     0     0  6.065802637E+01 -5.554630022E+02 -4.649543706E+02  7.375812564E+02  1.250000000E+02  0.00000E+00  9.000E+00
      25     1     1     2     0     0  3.557268945E+01  6.386648627E+02 -1.296271055E+03  1.450896919E+03  1.250000000E+02  0.00000E+00  9.000E+00
       2     1     1     2   502     0 -9.623071582E+01 -8.320186053E+01 -1.113677470E+03  1.120919447E+03  0.000000000E+00  0.00000E+00  9.000E+00
#rwgt            1           1   2.3548602092186791E-002           3       65950           0
</event>
<event>
      5   9999  3.19816E-02  3.25343E+01 -1.00000E+00  1.50633E-01
      21    -1     0     0   502   501  0.000000000E+00  0.000000000E+00  9.894626904E+02  9.894626904E+02  0.000000000E+00  0.00000E+00  9.000E+00
      21    -1     0     0   501   511  0.000000000E+00  0.000000000E+00 -6.836731017E+02  6.836731017E+02  0.000000000E+00  0.00000E+00  9.000E+00
      25     1     1     2     0     0  1.594481954E+01  4.502805691E+02  6.010133160E+02  7.614780590E+02  1.250000000E+02  0.00000E+00  9.000E+00
      25     1     1     2     0     0 -4.461281947E+01 -4.656633315E+02  1.170072533E+02  4.981448979E+02  1.250000000E+02  0.00000E+00  9.000E+00
      21     1     1     2   502   511  2.866799994E+01  1.538276232E+01 -4.122309806E+02  4.135128353E+02  7.629394531E-06  0.00000E+00  9.000E+00
#rwgt            1           1   3.1159281849204731E-002           3       66070           0
</event>
<event>
      5   9999  3.19816E-02  1.14024E+02 -1.00000E+00  1.21318E-01
      21    -1     0     0   502   512  0.000000000E+00  0.000000000E+00  8.099137849E+01  8.099137849E+01  0.000000000E+00  0.00000E+00  9.000E+00
      21    -1     0     0   501   502  0.000000000E+00  0.000000000E+00 -1.349025152E+03  1.349025152E+03  0.000000000E+00  0.00000E+00  9.000E+00
      25     1     1     2     0     0  1.231174783E+02 -4.598061919E+01 -1.958877059E+02  2.669627767E+02  1.250000000E+02  0.00000E+00  9.000E+00
      25     1     1     2     0     0 -2.165037022E+02 -1.944430241E+01 -9.932067233E+02  1.024371285E+03  1.250000000E+02  0.00000E+00  9.000E+00
      21     1     1     2   501   512  9.338622390E+01  6.542492160E+01 -7.893934482E+01  1.386824695E+02  2.336015456E-06  0.00000E+00  9.000E+00
#rwgt            1           1   2.8702674435644490E-002           3       66210           0
</event>
<event>
      5   9999  3.19816E-02  8.33094E+01 -1.00000E+00  1.27503E-01
      21    -1     0     0   502   511  0.000000000E+00  0.000000000E+00  4.561987897E+02  4.561987897E+02  0.000000000E+00  0.00000E+00  9.000E+00
      21    -1     0     0   501   502  0.000000000E+00  0.000000000E+00 -7.967746952E+02  7.967746952E+02  0.000000000E+00  0.00000E+00  9.000E+00
      25     1     1     2     0     0 -1.630253459E+02 -4.063268078E+02 -5.042952285E+02  6.794243267E+02  1.250000000E+02  0.00000E+00  9.000E+00
      25     1     1     2     0     0  1.305397129E+02  3.296121124E+02 -1.516407049E+01  3.762176369E+02  1.250000000E+02  0.00000E+00  9.000E+00
      21     1     1     2   501   511  3.248563299E+01  7.671469535E+01  1.788833936E+02  1.973315214E+02  0.000000000E+00  0.00000E+00  9.000E+00
#rwgt            1           1   2.8005610065606607E-002           3       66270           0
</event>
<event>
      5   9999  3.19816E-02  9.18054E+01 -1.00000E+00  1.25521E-01
      21    -1     0     0   502   501  0.000000000E+00  0.000000000E+00  4.307593009E+02  4.307593009E+02  0.000000000E+00  0.00000E+00  9.000E+00
      21    -1     0     0   501   512  0.000000000E+00  0.000000000E+00 -6.044614246E+02  6.044614246E+02  0.000000000E+00  0.00000E+00  9.000E+00
      25     1     1     2     0     0 -3.077849038E+02 -6.083073959E+01 -2.963137782E+00  3.377361486E+02  1.250000000E+02  0.00000E+00  9.000E+00
      25     1     1     2     0     0  2.198899573E+02  8.733957418E+01  1.881001243E+02  3.270878342E+02  1.250000000E+02  0.00000E+00  9.000E+00
      21     1     1     2   502   512  8.789494650E+01 -2.650883459E+01 -3.588391103E+02  3.703967427E+02  3.814697266E-06  0.00000E+00  9.000E+00
#rwgt            1           1   2.5167826753565107E-002           3       66387           0
</event>
<event>
      5   9999  3.19816E-02  1.17050E+01 -1.00000E+00  1.88172E-01
      21    -1     0     0   502   501  0.000000000E+00  0.000000000E+00  1.550314963E+02  1.550314963E+02  0.000000000E+00  0.00000E+00  9.000E+00
      21    -1     0     0   501   511  0.000000000E+00  0.000000000E+00 -4.623326495E+02  4.623326495E+02  0.000000000E+00  0.00000E+00  9.000E+00
      25     1     1     2     0     0  5.116006405E+01 -6.655364551E+00  5.933082385E+01  1.476712318E+02  1.250000000E+02  0.00000E+00  9.000E+00
      25     1     1     2     0     0 -3.945631257E+01  6.483521201E+00 -3.229977894E+01  1.351558817E+02  1.250000000E+02  0.00000E+00  9.000E+00
      21     1     1     2   502   511 -1.170375147E+01  1.718433509E-01 -3.343321981E+02  3.345370323E+02  6.607249480E-06  0.00000E+00  9.000E+00
#rwgt            1           1   1.7863920313794451E-002           3       66454           0
</event>
<event>
      5   9999  3.19816E-02  1.12179E+02 -1.00000E+00  1.21624E-01
      21    -1     0     0   502   501  0.000000000E+00  0.000000000E+00  3.892675662E+02  3.892675662E+02  0.000000000E+00  0.00000E+00  9.000E+00
       2    -1     0     0   501     0  0.000000000E+00  0.000000000E+00 -5.527761531E+02  5.527761531E+02  0.000000000E+00  0.00000E+00  9.000E+00
      25     1     1     2     0     0 -1.028438411E+02  2.931286371E+02 -2.673662468E+02  4.284984988E+02  1.250000000E+02  0.00000E+00  9.000E+00
      25     1     1     2     0     0  1.053613740E+01 -2.293840345E+02  2.275212582E+02  3.465818351E+02  1.250000000E+02  0.00000E+00  9.000E+00
       2     1     1     2   502     0  9.230770366E+01 -6.374460261E+01 -1.236635983E+02  1.669633854E+02  0.000000000E+00  0.00000E+00  9.000E+00
#rwgt            1           1   2.8147861385109087E-002           3       66632           0
</event>
<event>
      5   9999  3.19816E-02  3.07204E+01 -1.00000E+00  1.52327E-01
      21    -1     0     0   502   511  0.000000000E+00  0.000000000E+00  1.120343796E+03  1.120343796E+03  0.000000000E+00  0.00000E+00  9.000E+00
      21    -1     0     0   501   502  0.000000000E+00  0.000000000E+00 -7.664318424E+02  7.664318424E+02  0.000000000E+00  0.00000E+00  9.000E+00
      25     1     1     2     0     0  6.173998275E+02 -6.316781777E+02 -1.465883238E+01  8.922105965E+02  1.250000000E+02  0.00000E+00  9.000E+00
      25     1     1     2     0     0 -6.243599773E+02  6.017566055E+02  3.116540005E+02  9.298868800E+02  1.250000000E+02  0.00000E+00  9.000E+00
      21     1     1     2   501   511  6.960149818E+00  2.992157220E+01  5.691678517E+01  6.467816171E+01  6.743495762E-07  0.00000E+00  9.000E+00
#rwgt            1           1   2.4929224827295770E-002           3       66707           0
</event>
<event>
      5   9999  3.19816E-02  2.01645E+02 -1.00000E+00  1.11519E-01
      21    -1     0     0   502   512  0.000000000E+00  0.000000000E+00  4.235000216E+02  4.235000216E+02  0.000000000E+00  0.00000E+00  9.000E+00
      21    -1     0     0   501   502  0.000000000E+00  0.000000000E+00 -1.356749274E+03  1.356749274E+03  0.000000000E+00  0.00000E+00  9.000E+00
      25     1     1     2     0     0  5.663276285E+01  4.801246554E+02 -8.613364271E+02  9.956165904E+02  1.250000000E+02  0.00000E+00  9.000E+00
      25     1     1     2     0     0  1.449821605E+02 -4.835805504E+02 -1.867228115E+02  5.525942309E+02  1.250000000E+02  0.00000E+00  9.000E+00
      21     1     1     2   501   512 -2.016149233E+02  3.455895059E+00  1.148099864E+02  2.320384742E+02  6.325959759E-06  0.00000E+00  9.000E+00
#rwgt            2          11   4.8374947063899955E-003           3       66882           0
</event>
<event>
      5   9999  3.19816E-02  1.17805E+02 -1.00000E+00  1.20710E-01
      21    -1     0     0   502   501  0.000000000E+00  0.000000000E+00  5.674224204E+02  5.674224204E+02  0.000000000E+00  0.00000E+00  9.000E+00
      21    -1     0     0   511   502  0.000000000E+00  0.000000000E+00 -1.549333378E+03  1.549333378E+03  0.000000000E+00  0.00000E+00  9.000E+00
      25     1     1     2     0     0 -7.289953818E+00 -8.688135199E+01  4.795351788E+02  5.031704487E+02  1.250000000E+02  0.00000E+00  9.000E+00
      25     1     1     2     0     0  1.216221448E+02  1.152734064E+02 -7.493931457E+01  2.220828791E+02  1.250000000E+02  0.00000E+00  9.000E+00
      21     1     1     2   511   501 -1.143321910E+02 -2.839205438E+01 -1.386506822E+03  1.391502471E+03  2.157918644E-05  0.00000E+00  9.000E+00
#rwgt            1           1   2.8373391739029058E-002           3       66902           0
</event>
<event>
      5   9999  3.19816E-02  2.12354E+01 -1.00000E+00  1.64250E-01
      21    -1     0     0   502   501  0.000000000E+00  0.000000000E+00  3.497654670E+02  3.497654670E+02  0.000000000E+00  0.00000E+00  9.000E+00
      21    -1     0     0   501   512  0.000000000E+00  0.000000000E+00 -2.833284000E+02  2.833284000E+02  0.000000000E+00  0.00000E+00  9.000E+00
      25     1     1     2     0     0  1.299858451E+02  1.864416669E+02 -4.520133759E+01  2.632963653E+02  1.250000000E+02  0.00000E+00  9.000E+00
      25     1     1     2     0     0 -1.088572372E+02 -1.885685654E+02  1.729792519E+02  3.048849350E+02  1.250000000E+02  0.00000E+00  9.000E+00
      21     1     1     2   502   512 -2.112860783E+01  2.126898484E+00 -6.134084735E+01  6.491256673E+01  9.536743164E-07  0.00000E+00  9.000E+00
#rwgt            1           1   2.9254776936488987E-002           3       66955           0
</event>
<event>
      5   9999  3.19816E-02  1.29522E+01 -1.00000E+00  1.83608E-01
      21    -1     0     0   511   501  0.000000000E+00  0.000000000E+00  1.418544283E+03  1.418544283E+03  0.000000000E+00  0.00000E+00  9.000E+00
      21    -1     0     0   501   502  0.000000000E+00  0.000000000E+00 -5.770507720E+01  5.770507720E+01  0.000000000E+00  0.00000E+00  9.000E+00
      25     1     1     2     0     0  1.614308942E+02  3.953717294E+01  1.135114928E+03  1.154007808E+03  1.250000000E+02  0.00000E+00  9.000E+00
      25     1     1     2     0     0 -1.548034013E+02 -5.066531858E+01  1.746568582E+02  2.695572030E+02  1.250000000E+02  0.00000E+00  9.000E+00
      21     1     1     2   511   502 -6.627492876E+00  1.112814564E+01  5.106742003E+01  5.268434944E+01  6.743495762E-07  0.00000E+00  9.000E+00
#rwgt            1           1   3.3091737139605754E-002           3       67077           0
</event>
<event>
      5   9999  3.19816E-02  8.28749E+01 -1.00000E+00  1.27612E-01
      21    -1     0     0   502   512  0.000000000E+00  0.000000000E+00  1.821361795E+02  1.821361795E+02  0.000000000E+00  0.00000E+00  9.000E+00
      21    -1     0     0   501   502  0.000000000E+00  0.000000000E+00 -2.406560522E+03  2.406560522E+03  0.000000000E+00  0.00000E+00  9.000E+00
      25     1     1     2     0     0  3.531187985E+02 -8.234959300E+01 -9.785512870E+02  1.051029002E+03  1.250000000E+02  0.00000E+00  9.000E+00
      25     1     1     2     0     0 -2.717390268E+02  6.667854956E+01 -1.361413433E+03  1.395478292E+03  1.250000000E+02  0.00000E+00  9.000E+00
      21     1     1     2   501   512 -8.137977171E+01  1.567104344E+01  1.155403776E+02  1.421894078E+02  7.136645101E-06  0.00000E+00  9.000E+00
#rwgt            1           1   7.8338236738534309E-002           3       67260           0
</event>
<event>
      5   9999  3.19816E-02  1.57816E+03 -1.00000E+00  8.64744E-02
      21    -1     0     0   502   501  0.000000000E+00  0.000000000E+00  1.022957936E+03  1.022957936E+03  0.000000000E+00  0.00000E+00  9.000E+00
       2    -1     0     0   501     0  0.000000000E+00  0.000000000E+00 -3.391527168E+03  3.391527168E+03  0.000000000E+00  0.00000E+00  9.000E+00
      25     1     1     2     0     0 -2.421530383E+02 -1.412781336E+03 -1.656913167E+02  1.448332769E+03  1.250000000E+02  0.00000E+00  9.000E+00
      25     1     1     2     0     0  8.507745369E+01 -1.575384859E+02  4.169631846E+01  2.223063891E+02  1.250000000E+02  0.00000E+00  9.000E+00
       2     1     1     2   502     0  1.570755846E+02  1.570319822E+03 -2.244574234E+03  2.743845946E+03  4.315837288E-05  0.00000E+00  9.000E+00
#rwgt            2          13   2.4649403238193477E-003           3       67470           0
</event>
<event>
      5   9999  3.19816E-02  1.10251E+01 -1.00000E+00  1.90982E-01
      21    -1     0     0   502   511  0.000000000E+00  0.000000000E+00  6.588458124E+02  6.588458124E+02  0.000000000E+00  0.00000E+00  9.000E+00
      21    -1     0     0   501   502  0.000000000E+00  0.000000000E+00 -3.796354658E+02  3.796354658E+02  0.000000000E+00  0.00000E+00  9.000E+00
      25     1     1     2     0     0 -1.015611419E+02 -9.446083004E+01 -3.048126622E+02  3.574538753E+02  1.250000000E+02  0.00000E+00  9.000E+00
      25     1     1     2     0     0  9.090861030E+01  9.161896545E+01  1.181888962E+02  2.150628407E+02  1.250000000E+02  0.00000E+00  9.000E+00
      21     1     1     2   501   511  1.065253155E+01  2.841864589E+00  4.658341127E+02  4.659645621E+02  0.000000000E+00  0.00000E+00  9.000E+00
#rwgt            1           1   2.5857820345922933E-002           3       67564           0
</event>
<event>
      5   9999  3.19816E-02  5.18168E+01 -1.00000E+00  1.38197E-01
      21    -1     0     0   502   501  0.000000000E+00  0.000000000E+00  6.476392683E+02  6.476392683E+02  0.000000000E+00  0.00000E+00  9.000E+00
      21    -1     0     0   501   512  0.000000000E+00  0.000000000E+00 -5.459426514E+02  5.459426514E+02  0.000000000E+00  0.00000E+00  9.000E+00
      25     1     1     2     0     0  1.084852551E+02 -1.339592836E+02  5.939824290E+02  6.309946642E+02  1.250000000E+02  0.00000E+00  9.000E+00
      25     1     1     2     0     0 -6.751490674E+01  1.656831994E+02 -3.667587040E+02  4.267858153E+02  1.250000000E+02  0.00000E+00  9.000E+00
      21     1     1     2   502   512 -4.097034839E+01 -3.172391579E+01 -1.255271081E+02  1.358014401E+02  0.000000000E+00  0.00000E+00  9.000E+00
#rwgt            1           1   3.0548630683597821E-002           3       67764           0
</event>
<event>
      5   9999  3.19816E-02  1.11892E+02 -1.00000E+00  1.21672E-01
      21    -1     0     0   502   501  0.000000000E+00  0.000000000E+00  3.881865507E+02  3.881865507E+02  0.000000000E+00  0.00000E+00  9.000E+00
      21    -1     0     0   501   511  0.000000000E+00  0.000000000E+00 -1.363398947E+03  1.363398947E+03  0.000000000E+00  0.00000E+00  9.000E+00
      25     1     1     2     0     0  2.645349889E+02 -2.874387193E+02 -1.110643690E+02  4.249236070E+02  1.250000000E+02  0.00000E+00  9.000E+00
      25     1     1     2     0     0 -3.719693958E+02  2.561706648E+02 -1.363844882E+01  4.688236856E+02  1.250000000E+02  0.00000E+00  9.000E+00
      21     1     1     2   502   511  1.074344069E+02  3.126805456E+01 -8.505095780E+02  8.578382047E+02  1.078959322E-05  0.00000E+00  9.000E+00
#rwgt            1           1   2.9487672779569343E-002           3       67870           0
</event>
<event>
      5   9999  3.20110E-02  9.80582E+00 -1.00000E+00  1.96747E-01
      21    -1     0     0   512   501  0.000000000E+00  0.000000000E+00  1.193397937E+02  1.193397937E+02  0.000000000E+00  0.00000E+00  9.000E+00
      21    -1     0     0   501   502  0.000000000E+00  0.000000000E+00 -1.774924758E+03  1.774924758E+03  0.000000000E+00  0.00000E+00  9.000E+00
      25     1     1     2     0     0  6.141272806E+01 -1.505105584E+02 -7.554897111E+02  7.828247919E+02  1.250000000E+02  0.00000E+00  9.000E+00
      25     1     1     2     0     0 -6.246745843E+01  1.407616308E+02 -9.957355271E+02  1.015298114E+03  1.250000000E+02  0.00000E+00  9.000E+00
      21     1     1     2   512   502  1.054730374E+00  9.748927599E+00  9.564027397E+01  9.614164576E+01  3.814697266E-06  0.00000E+00  9.000E+00
#rwgt            1           1   9.8606012793931094E-002           3       67962           0
</event>
<event>
      5   9999  3.19816E-02  6.87401E+01 -1.00000E+00  1.31621E-01
      21    -1     0     0   502   501  0.000000000E+00  0.000000000E+00  7.217462130E+02  7.217462130E+02  0.000000000E+00  0.00000E+00  9.000E+00
      21    -1     0     0   511   502  0.000000000E+00  0.000000000E+00 -3.925933643E+02  3.925933643E+02  0.000000000E+00  0.00000E+00  9.000E+00
      25     1     1     2     0     0 -1.058491273E+02  6.626522536E+01  6.476665968E+02  6.713360846E+02  1.250000000E+02  0.00000E+00  9.000E+00
      25     1     1     2     0     0  1.354445863E+02 -1.283080609E+02 -1.779430169E+02  2.865255865E+02  1.250000000E+02  0.00000E+00  9.000E+00
      21     1     1     2   511   501 -2.959545901E+01  6.204283556E+01 -1.405707312E+02  1.564779061E+02  2.697398305E-06  0.00000E+00  9.000E+00
#rwgt            1           1   3.0009035887032659E-002           3       68214           0
</event>
<event>
      5   9999  3.27036E-02  6.47730E+01 -1.00000E+00  1.32951E-01
      21    -1     0     0   512   501  0.000000000E+00  0.000000000E+00  3.228050100E+03  3.228050100E+03  0.000000000E+00  0.00000E+00  9.000E+00
      21    -1     0     0   501   502  0.000000000E+00  0.000000000E+00 -1.024449720E+03  1.024449720E+03  0.000000000E+00  0.00000E+00  9.000E+00
      25     1     1     2     0     0  5.368445078E+02  8.580280173E+02  1.945175698E+03  2.196303166E+03  1.250000000E+02  0.00000E+00  9.000E+00
      25     1     1     2     0     0 -5.851056714E+02 -8.148261882E+02 -6.130864138E+02  1.182281825E+03  1.250000000E+02  0.00000E+00  9.000E+00
      21     1     1     2   512   502  4.826116365E+01 -4.320182903E+01  8.715110961E+02  8.739148291E+02  1.525878906E-05  0.00000E+00  9.000E+00
#rwgt            1           1   3.8070344232383639E-002           3       68350           0
</event>
<event>
      5   9999  3.19816E-02  9.43678E+01 -1.00000E+00  1.24971E-01
      21    -1     0     0   511   501  0.000000000E+00  0.000000000E+00  8.749173969E+01  8.749173969E+01  0.000000000E+00  0.00000E+00  9.000E+00
      21    -1     0     0   501   502  0.000000000E+00  0.000000000E+00 -1.060340323E+03  1.060340323E+03  0.000000000E+00  0.00000E+00  9.000E+00
      25     1     1     2     0     0  5.255995157E+00  1.348377211E+02 -6.470481884E+02  6.726850635E+02  1.250000000E+02  0.00000E+00  9.000E+00
      25     1     1     2     0     0 -8.403523988E+01 -1.867906666E+02 -2.843824185E+02  3.720900894E+02  1.250000000E+02  0.00000E+00  9.000E+00
      21     1     1     2   511   502  7.877924473E+01  5.195294549E+01 -4.141797680E+01  1.030569102E+02  1.784161275E-06  0.00000E+00  9.000E+00
#rwgt            1           1   2.8417531986533712E-002           3       68537           0
</event>
<event>
      5   9999  3.19816E-02  4.92596E+01 -1.00000E+00  1.39446E-01
       2    -1     0     0   502     0  0.000000000E+00  0.000000000E+00  2.030049743E+03  2.030049743E+03  0.000000000E+00  0.00000E+00  9.000E+00
      21    -1     0     0   501   502  0.000000000E+00  0.000000000E+00 -3.248299052E+02  3.248299052E+02  0.000000000E+00  0.00000E+00  9.000E+00
      25     1     1     2     0     0  3.209289892E+02 -5.010548539E+02  5.721735849E+02  8.349005893E+02  1.250000000E+02  0.00000E+00  9.000E+00
      25     1     1     2     0     0 -3.221436233E+02  5.502994679E+02  3.551313753E+02  7.405061188E+02  1.250000000E+02  0.00000E+00  9.000E+00
       2     1     1     2   501     0  1.214634040E+00 -4.924461399E+01  7.779148781E+02  7.794729404E+02  1.525878906E-05  0.00000E+00  9.000E+00
#rwgt            1           1   3.1811730742071810E-002           3       68611           0
</event>
<event>
      5   9999  3.19816E-02  1.36521E+01 -1.00000E+00  1.81324E-01
      21    -1     0     0   502   501  0.000000000E+00  0.000000000E+00  4.086510993E+02  4.086510993E+02  0.000000000E+00  0.00000E+00  9.000E+00
      21    -1     0     0   501   511  0.000000000E+00  0.000000000E+00 -1.915397604E+03  1.915397604E+03  0.000000000E+00  0.00000E+00  9.000E+00
      25     1     1     2     0     0 -9.671911373E+01 -2.097367044E+02 -8.225006314E+02  8.634097294E+02  1.250000000E+02  0.00000E+00  9.000E+00
      25     1     1     2     0     0  9.898601881E+01  2.231993125E+02  3.396897800E+02  4.366123127E+02  1.250000000E+02  0.00000E+00  9.000E+00
      21     1     1     2   502   511 -2.266905085E+00 -1.346260805E+01 -1.023935653E+03  1.024026661E+03  1.868812365E-05  0.00000E+00  9.000E+00
#rwgt            1           1   2.7222074054323600E-002           3       68690           0
</event>
<event>
      5   9999  3.19816E-02  9.42784E+01 -1.00000E+00  1.24990E-01
      21    -1     0     0   502   512  0.000000000E+00  0.000000000E+00  1.646176896E+03  1.646176896E+03  0.000000000E+00  0.00000E+00  9.000E+00
      21    -1     0     0   501   502  0.000000000E+00  0.000000000E+00 -2.449706129E+03  2.449706129E+03  0.000000000E+00  0.00000E+00  9.000E+00
      25     1     1     2     0     0 -9.716312135E+02  1.485103108E+03 -2.676205565E+02  1.799123181E+03  1.250000000E+02  0.00000E+00  9.000E+00
      25     1     1     2     0     0  9.292340279E+02 -1.569310579E+03 -8.154871016E+02  2.001713212E+03  1.250000000E+02  0.00000E+00  9.000E+00
      21     1     1     2   501   512  4.239718555E+01  8.420747015E+01  2.795784253E+02  2.950466324E+02  3.814697266E-06  0.00000E+00  9.000E+00
#rwgt            1           1   2.4866672604484379E-002           3       68941           0
</event>
<event>
      5   9999  3.19816E-02  4.26897E+01 -1.00000E+00  1.43109E-01
      21    -1     0     0   502   501  0.000000000E+00  0.000000000E+00  2.093834472E+02  2.093834472E+02  0.000000000E+00  0.00000E+00  9.000E+00
       2    -1     0     0   501     0  0.000000000E+00  0.000000000E+00 -1.119069510E+03  1.119069510E+03  0.000000000E+00  0.00000E+00  9.000E+00
      25     1     1     2     0     0 -1.070169697E+02  4.825616285E+00 -5.977783105E+02  6.200321176E+02  1.250000000E+02  0.00000E+00  9.000E+00
      25     1     1     2     0     0  7.332008554E+01 -3.103500006E+01  1.694829317E+02  2.251410010E+02  1.250000000E+02  0.00000E+00  9.000E+00
       2     1     1     2   502     0  3.369688411E+01  2.620938378E+01 -4.813906840E+02  4.832798386E+02  7.629394531E-06  0.00000E+00  9.000E+00
#rwgt            1           1   2.7165441264384825E-002           3       69067           0
</event>
<event>
      5   9999  3.19816E-02  2.80632E+01 -1.00000E+00  1.55081E-01
      21    -1     0     0   502   501  0.000000000E+00  0.000000000E+00  4.352358191E+02  4.352358191E+02  0.000000000E+00  0.00000E+00  9.000E+00
      21    -1     0     0   501   511  0.000000000E+00  0.000000000E+00 -4.972439860E+02  4.972439860E+02  0.000000000E+00  0.00000E+00  9.000E+00
      25     1     1     2     0     0  1.651921650E+02 -9.427688704E+01 -3.664897807E+02  4.314120329E+02  1.250000000E+02  0.00000E+00  9.000E+00
      25     1     1     2     0     0 -1.731000142E+02  6.735089072E+01  3.684930158E+02  4.311749762E+02  1.250000000E+02  0.00000E+00  9.000E+00
      21     1     1     2   502   511  7.907849251E+00  2.692599632E+01 -6.401140195E+01  6.989279603E+01  0.000000000E+00  0.00000E+00  9.000E+00
#rwgt            1           1   2.8900078867854131E-002           3       69168           0
</event>
<event>
      5   9999  3.19816E-02  2.12843E+02 -1.00000E+00  1.10673E-01
      21    -1     0     0   512   501  0.000000000E+00  0.000000000E+00  8.354368320E+02  8.354368320E+02  0.000000000E+00  0.00000E+00  9.000E+00
      21    -1     0     0   501   502  0.000000000E+00  0.000000000E+00 -2.962964593E+03  2.962964593E+03  0.000000000E+00  0.00000E+00  9.000E+00
      25     1     1     2     0     0 -5.272322220E+02  1.284666782E+03 -7.390500555E+02  1.578024886E+03  1.250000000E+02  0.00000E+00  9.000E+00
      25     1     1     2     0     0  7.145000744E+02 -1.183508038E+03 -1.441334985E+03  2.001068008E+03  1.250000000E+02  0.00000E+00  9.000E+00
      21     1     1     2   512   502 -1.872678524E+02 -1.011587441E+02  5.285727952E+01  2.193085316E+02  2.523185073E-06  0.00000E+00  9.000E+00
#rwgt            1           1   4.9662719480056711E-002           3       69286           0
</event>
<event>
      5   9999  3.19816E-02  2.63733E+01 -1.00000E+00  1.57031E-01
      21    -1     0     0   502   501  0.000000000E+00  0.000000000E+00  1.975830009E+02  1.975830009E+02  0.000000000E+00  0.00000E+00  9.000E+00
       2    -1     0     0   501     0  0.000000000E+00  0.000000000E+00 -3.837757823E+02  3.837757823E+02  0.000000000E+00  0.00000E+00  9.000E+00
      25     1     1     2     0     0 -1.010044753E+02 -2.027182249E+02 -6.677495273E+01  2.671712504E+02  1.250000000E+02  0.00000E+00  9.000E+00
      25     1     1     2     0     0  7.491813837E+01  2.065979461E+02 -1.317269266E+02  2.850831843E+02  1.250000000E+02  0.00000E+00  9.000E+00
       2     1     1     2   502     0  2.608633690E+01 -3.879721172E+00  1.230909789E+01  2.910434847E+01  2.384185791E-07  0.00000E+00  9.000E+00
#rwgt            1           1   3.0477773924360612E-002           3       69358           0
</event>
<event>
      5   9999  3.19816E-02  1.64038E+02 -1.00000E+00  1.14874E-01
      21    -1     0     0   502   501  0.000000000E+00  0.000000000E+00  1.952757708E+03  1.952757708E+03  0.000000000E+00  0.00000E+00  9.000E+00
      -1    -1     0     0     0   502  0.000000000E+00  0.000000000E+00 -1.782483479E+03  1.782483479E+03  0.000000000E+00  0.00000E+00  9.000E+00
      25     1     1     2     0     0  1.295716347E+02  2.232622418E+02  1.772516425E+03  1.795570749E+03  1.250000000E+02  0.00000E+00  9.000E+00
      25     1     1     2     0     0 -6.918497967E+01 -7.074321218E+01  1.262821764E+02  2.033798209E+02  1.250000000E+02  0.00000E+00  9.000E+00
      -1     1     1     2     0   501 -6.038665500E+01 -1.525190297E+02 -1.728524372E+03  1.736290617E+03  0.000000000E+00  0.00000E+00  9.000E+00
#rwgt            1           1   2.8194010755057692E-002           3       69545           0
</event>
<event>
      5   9999  3.19816E-02  1.00294E+02 -1.00000E+00  1.23771E-01
      21    -1     0     0   502   501  0.000000000E+00  0.000000000E+00  2.264965217E+02  2.264965217E+02  0.000000000E+00  0.00000E+00  9.000E+00
      21    -1     0     0   501   511  0.000000000E+00  0.000000000E+00 -1.996608492E+03  1.996608492E+03  0.000000000E+00  0.00000E+00  9.000E+00
      25     1     1     2     0     0  5.684765136E+02 -1.146960274E+01 -4.093705079E+02  7.116925678E+02  1.250000000E+02  0.00000E+00  9.000E+00
      25     1     1     2     0     0 -5.278003078E+02 -8.020513725E+01 -1.044758188E+03  1.179894360E+03  1.250000000E+02  0.00000E+00  9.000E+00
      21     1     1     2   502   511 -4.067620576E+01  9.167473999E+01 -3.159832739E+02  3.315180856E+02  5.394796609E-06  0.00000E+00  9.000E+00
#rwgt            2          11   3.7140477791281130E-003           3       69598           0
</event>
<event>
      5   9999  3.19816E-02  3.24853E+01 -1.00000E+00  1.50677E-01
      21    -1     0     0   512   501  0.000000000E+00  0.000000000E+00  1.314695896E+02  1.314695896E+02  0.000000000E+00  0.00000E+00  9.000E+00
      21    -1     0     0   501   502  0.000000000E+00  0.000000000E+00 -7.841002248E+02  7.841002248E+02  0.000000000E+00  0.00000E+00  9.000E+00
      25     1     1     2     0     0  8.501360201E+01  1.313556592E+02 -6.386145935E+02  6.692796282E+02  1.250000000E+02  0.00000E+00  9.000E+00
      25     1     1     2     0     0 -6.043377126E+01 -1.525953908E+02  8.958898756E+00  2.065014670E+02  1.250000000E+02  0.00000E+00  9.000E+00
      21     1     1     2   512   502 -2.457983076E+01  2.123973162E+01 -2.297494053E+01  3.978871915E+01  6.743495762E-07  0.00000E+00  9.000E+00
#rwgt            1           1   3.0744069097079534E-002           3       69618           0
</event>
<event>
      5   9999  3.19816E-02  1.38621E+01 -1.00000E+00  1.80673E-01
      21    -1     0     0   502   501  0.000000000E+00  0.000000000E+00  2.777812377E+02  2.777812377E+02  0.000000000E+00  0.00000E+00  9.000E+00
      21    -1     0     0   511   502  0.000000000E+00  0.000000000E+00 -1.219912568E+02  1.219912568E+02  0.000000000E+00  0.00000E+00  9.000E+00
      25     1     1     2     0     0  8.443717273E+01 -1.462934761E+00 -1.404281845E+01  1.515056998E+02  1.250000000E+02  0.00000E+00  9.000E+00
      25     1     1     2     0     0 -9.112494163E+01  1.360513041E+01  1.745472396E+02  2.336248989E+02  1.250000000E+02  0.00000E+00  9.000E+00
      21     1     1     2   511   501  6.687768898E+00 -1.214219564E+01 -4.714440172E+00  1.464189585E+01  5.960464478E-08  0.00000E+00  9.000E+00
#rwgt            1           1   3.2689477426543823E-002           3       69749           0
</event>
<event>
      5   9999  3.19816E-02  7.84786E+01 -1.00000E+00  1.28754E-01
      21    -1     0     0   512   501  0.000000000E+00  0.000000000E+00  1.748541440E+02  1.748541440E+02  0.000000000E+00  0.00000E+00  9.000E+00
      21    -1     0     0   501   502  0.000000000E+00  0.000000000E+00 -8.745228581E+02  8.745228581E+02  0.000000000E+00  0.00000E+00  9.000E+00
      25     1     1     2     0     0  3.142618164E+02 -1.518511102E+02 -3.883473474E+02  5.368965554E+02  1.250000000E+02  0.00000E+00  9.000E+00
      25     1     1     2     0     0 -2.391400050E+02  1.291442846E+02 -3.143497150E+02  4.339434658E+02  1.250000000E+02  0.00000E+00  9.000E+00
      21     1     1     2   512   502 -7.512181142E+01  2.270682562E+01  3.028348297E+00  7.853698093E+01  2.664600962E-06  0.00000E+00  9.000E+00
#rwgt            1           1   3.0699553250314659E-002           3       69948           0
</event>
<event>
      5   9999  3.19816E-02  4.36088E+01 -1.00000E+00  1.42551E-01
      21    -1     0     0   502   501  0.000000000E+00  0.000000000E+00  5.293173423E+02  5.293173423E+02  0.000000000E+00  0.00000E+00  9.000E+00
      21    -1     0     0   511   502  0.000000000E+00  0.000000000E+00 -2.240671646E+02  2.240671646E+02  0.000000000E+00  0.00000E+00  9.000E+00
      25     1     1     2     0     0 -2.762951746E+02 -2.989711510E+01  1.345658683E+02  3.331153462E+02  1.250000000E+02  0.00000E+00  9.000E+00
      25     1     1     2     0     0  2.718878317E+02 -1.348838863E+01  2.065066498E+02  3.638336516E+02  1.250000000E+02  0.00000E+00  9.000E+00
      21     1     1     2   511   501  4.407342905E+00  4.338550373E+01 -3.582234047E+01  5.643550905E+01  8.259061849E-07  0.00000E+00  9.000E+00
#rwgt            1           1   2.6467697602339160E-002           3       70008           0
</event>
<event>
      5   9999  3.19816E-02  2.71780E+01 -1.00000E+00  1.56081E-01
      21    -1     0     0   502   501  0.000000000E+00  0.000000000E+00  1.076149730E+02  1.076149730E+02  0.000000000E+00  0.00000E+00  9.000E+00
      21    -1     0     0   501   512  0.000000000E+00  0.000000000E+00 -5.653145471E+02  5.653145471E+02  0.000000000E+00  0.00000E+00  9.000E+00
      25     1     1     2     0     0 -1.264603016E+02 -4.036107042E+00 -6.289373374E+01  1.886507879E+02  1.250000000E+02  0.00000E+00  9.000E+00
      25     1     1     2     0     0  1.404026189E+02  2.736542562E+01 -1.613320164E+02  2.492283721E+02  1.250000000E+02  0.00000E+00  9.000E+00
      21     1     1     2   502   512 -1.394231729E+01 -2.332931858E+01 -2.334738240E+02  2.350503601E+02  5.394796609E-06  0.00000E+00  9.000E+00
#rwgt            1           1   3.0832075309011043E-002           3       70184           0
</event>
<event>
      5   9999  3.19816E-02  1.08847E+02 -1.00000E+00  1.22194E-01
      21    -1     0     0   511   501  0.000000000E+00  0.000000000E+00  3.138461948E+02  3.138461948E+02  0.000000000E+00  0.00000E+00  9.000E+00
      21    -1     0     0   501   502  0.000000000E+00  0.000000000E+00 -1.185835361E+03  1.185835361E+03  0.000000000E+00  0.00000E+00  9.000E+00
      25     1     1     2     0     0 -5.845103138E+01 -4.479627370E+02 -5.903324618E+02  7.537934413E+02  1.250000000E+02  0.00000E+00  9.000E+00
      25     1     1     2     0     0  1.276859389E+02  5.319523384E+02 -2.987118312E+02  6.357127869E+02  1.250000000E+02  0.00000E+00  9.000E+00
      21     1     1     2   511   502 -6.923490751E+01 -8.398960142E+01  1.705512638E+01  1.101753280E+02  5.331201500E-07  0.00000E+00  9.000E+00
#rwgt            1           1   2.9726567733963843E-002           3       70318           0
</event>
<event>
      5   9999  3.19816E-02  1.62910E+01 -1.00000E+00  1.74071E-01
      21    -1     0     0   502   501  0.000000000E+00  0.000000000E+00  4.574533364E+02  4.574533364E+02  0.000000000E+00  0.00000E+00  9.000E+00
      21    -1     0     0   501   512  0.000000000E+00  0.000000000E+00 -8.272670652E+02  8.272670652E+02  0.000000000E+00  0.00000E+00  9.000E+00
      25     1     1     2     0     0 -2.089288778E+02 -5.004778797E+02 -3.424705597E+02  6.534833344E+02  1.250000000E+02  0.00000E+00  9.000E+00
      25     1     1     2     0     0  1.979216990E+02  4.884678938E+02  5.762644436E+01  5.447198264E+02  1.250000000E+02  0.00000E+00  9.000E+00
      21     1     1     2   502   512  1.100717885E+01  1.200998588E+01 -8.496961347E+01  8.651724083E+01  1.348699152E-06  0.00000E+00  9.000E+00
#rwgt            1           1   2.8438286795143233E-002           3       70384           0
</event>
<event>
      5   9999  3.19816E-02  7.27917E+01 -1.00000E+00  1.30366E-01
      21    -1     0     0   502   501  0.000000000E+00  0.000000000E+00  3.950686998E+02  3.950686998E+02  0.000000000E+00  0.00000E+00  9.000E+00
      21    -1     0     0   501   511  0.000000000E+00  0.000000000E+00 -8.486370486E+02  8.486370486E+02  0.000000000E+00  0.00000E+00  9.000E+00
      25     1     1     2     0     0 -6.196664889E+01  1.469225556E+02  1.157011467E+02  2.333192197E+02  1.250000000E+02  0.00000E+00  9.000E+00
      25     1     1     2     0     0  4.287355433E+01 -2.171656487E+02  1.448381818E+02  2.925784673E+02  1.250000000E+02  0.00000E+00  9.000E+00
      21     1     1     2   502   511  1.909309456E+01  7.024309302E+01 -7.141076773E+02  7.178080615E+02  7.629394531E-06  0.00000E+00  9.000E+00
#rwgt            1           1   2.6743319494777585E-002           3       70675           0
</event>
<event>
      5   9999  3.19816E-02  5.22586E+01 -1.00000E+00  1.37990E-01
      21    -1     0     0   502   501  0.000000000E+00  0.000000000E+00  1.709630044E+02  1.709630044E+02  0.000000000E+00  0.00000E+00  9.000E+00
      21    -1     0     0   501   512  0.000000000E+00  0.000000000E+00 -1.200775120E+03  1.200775120E+03  0.000000000E+00  0.00000E+00  9.000E+00
      25     1     1     2     0     0  8.663931197E+01  2.020419955E+02 -1.175909113E+02  2.788905892E+02  1.250000000E+02  0.00000E+00  9.000E+00
      25     1     1     2     0     0 -1.266869202E+02 -1.684689939E+02 -7.826878784E+01  2.572593649E+02  1.250000000E+02  0.00000E+00  9.000E+00
      21     1     1     2   502   512  4.004760818E+01 -3.357300160E+01 -8.339524170E+02  8.355881708E+02  1.078959322E-05  0.00000E+00  9.000E+00
#rwgt            1           1   2.8711060940334262E-002           3       70740           0
</event>
<event>
      5   9999  3.19816E-02  1.04975E+02 -1.00000E+00  1.22887E-01
      21    -1     0     0   502   501  0.000000000E+00  0.000000000E+00  5.335173986E+02  5.335173986E+02  0.000000000E+00  0.00000E+00  9.000E+00
      21    -1     0     0   501   511  0.000000000E+00  0.000000000E+00 -1.552161718E+02  1.552161718E+02  0.000000000E+00  0.00000E+00  9.000E+00
      25     1     1     2     0     0 -1.150256552E+02 -1.061863564E+02  2.179738060E+02  2.960473336E+02  1.250000000E+02  0.00000E+00  9.000E+00
      25     1     1     2     0     0  2.047092142E+02  5.162841720E+01  1.491276360E+02  2.871156695E+02  1.250000000E+02  0.00000E+00  9.000E+00
      21     1     1     2   502   511 -8.968355900E+01  5.455793917E+01  1.119978470E+01  1.055705672E+02  1.440411326E-06  0.00000E+00  9.000E+00
#rwgt            1           1   3.0901709999221039E-002           3       70843           0
</event>
<event>
      5   9999  3.19816E-02  1.19314E+01 -1.00000E+00  1.87290E-01
      21    -1     0     0   502   512  0.000000000E+00  0.000000000E+00  2.460098123E+02  2.460098123E+02  0.000000000E+00  0.00000E+00  9.000E+00
      21    -1     0     0   501   502  0.000000000E+00  0.000000000E+00 -2.175864139E+03  2.175864139E+03  0.000000000E+00  0.00000E+00  9.000E+00
      25     1     1     2     0     0  1.317366565E+02 -5.445967481E+02 -1.640912271E+03  1.738435574E+03  1.250000000E+02  0.00000E+00  9.000E+00
      25     1     1     2     0     0 -1.369602659E+02  5.553239120E+02 -3.075543910E+02  6.613300728E+02  1.250000000E+02  0.00000E+00  9.000E+00
      21     1     1     2   501   512  5.223609460E+00 -1.072716388E+01  1.861233474E+01  2.210830489E+01  3.371747881E-07  0.00000E+00  9.000E+00
#rwgt            1           1   2.8188613424134042E-002           3       70953           0
</event>
<event>
      5   9999  3.19816E-02  7.65826E+01 -1.00000E+00  1.29274E-01
      21    -1     0     0   502   511  0.000000000E+00  0.000000000E+00  3.994121063E+02  3.994121063E+02  0.000000000E+00  0.00000E+00  9.000E+00
      21    -1     0     0   501   502  0.000000000E+00  0.000000000E+00 -2.169395216E+02  2.169395216E+02  0.000000000E+00  0.00000E+00  9.000E+00
      25     1     1     2     0     0  4.846862403E+01 -2.294911334E+02  1.142498613E+02  2.892981484E+02  1.250000000E+02  0.00000E+00  9.000E+00
      25     1     1     2     0     0 -9.371150221E-01  1.694440046E+02 -1.847817476E+01  2.113731105E+02  1.250000000E+02  0.00000E+00  9.000E+00
      21     1     1     2   501   511 -4.753150901E+01  6.004712881E+01  8.670089817E+01  1.156803690E+02  1.348699152E-06  0.00000E+00  9.000E+00
#rwgt            1           1   2.3580004518338998E-002           3       71292           0
</event>
<event>
      5   9999  3.19816E-02  8.16918E+01 -1.00000E+00  1.27911E-01
      21    -1     0     0   502   512  0.000000000E+00  0.000000000E+00  3.167063381E+02  3.167063381E+02  0.000000000E+00  0.00000E+00  9.000E+00
      21    -1     0     0   501   502  0.000000000E+00  0.000000000E+00 -2.351273766E+02  2.351273766E+02  0.000000000E+00  0.00000E+00  9.000E+00
      25     1     1     2     0     0  1.901519111E+02 -1.123914338E+01  1.093827287E+02  2.527323664E+02  1.250000000E+02  0.00000E+00  9.000E+00
      25     1     1     2     0     0 -1.438049031E+02  7.851107768E+01 -5.448870390E+01  2.131615780E+02  1.250000000E+02  0.00000E+00  9.000E+00
      21     1     1     2   501   512 -4.634700808E+01 -6.727193430E+01  2.668493667E+01  8.593977046E+01  7.539457465E-07  0.00000E+00  9.000E+00
#rwgt            1           1   2.9551995171626110E-002           3       71406           0
</event>
<event>
      5   9999  3.19816E-02  6.46631E+01 -1.00000E+00  1.32989E-01
       2    -1     0     0   502     0  0.000000000E+00  0.000000000E+00  2.264525674E+03  2.264525674E+03  0.000000000E+00  0.00000E+00  9.000E+00
      21    -1     0     0   501   502  0.000000000E+00  0.000000000E+00 -1.199345967E+03  1.199345967E+03  0.000000000E+00  0.00000E+00  9.000E+00
      25     1     1     2     0     0 -3.629650856E+01 -9.093676663E+02  3.842512283E+01  9.194392199E+02  1.250000000E+02  0.00000E+00  9.000E+00
      25     1     1     2     0     0  3.686466425E+01  9.740282468E+02 -4.396719430E+02  1.076580906E+03  1.250000000E+02  0.00000E+00  9.000E+00
       2     1     1     2   501     0 -5.681556927E-01 -6.466058045E+01  1.466426526E+03  1.467851515E+03  0.000000000E+00  0.00000E+00  9.000E+00
#rwgt            1           1   3.5092742337989924E-002           3       71478           0
</event>
<event>
      5   9999  3.19816E-02  1.02888E+02 -1.00000E+00  1.23274E-01
      21    -1     0     0   502   501  0.000000000E+00  0.000000000E+00  1.784953997E+02  1.784953997E+02  0.000000000E+00  0.00000E+00  9.000E+00
      21    -1     0     0   511   502  0.000000000E+00  0.000000000E+00 -2.197154009E+03  2.197154009E+03  0.000000000E+00  0.00000E+00  9.000E+00
      25     1     1     2     0     0  3.002857253E+02 -3.282361640E+02 -1.486340845E+03  1.556516818E+03  1.250000000E+02  0.00000E+00  9.000E+00
      25     1     1     2     0     0 -2.065117455E+02  3.705718769E+02 -2.273490049E+02  4.972757656E+02  1.250000000E+02  0.00000E+00  9.000E+00
      21     1     1     2   511   501 -9.377397981E+01 -4.233571295E+01 -3.049687585E+02  3.218568246E+02  0.000000000E+00  0.00000E+00  9.000E+00
#rwgt            2          11   3.7903309900501193E-003           3       71771           0
</event>
<event>
      5   9999  3.19816E-02  3.75224E+02 -1.00000E+00  1.02528E-01
      21    -1     0     0   502   501  0.000000000E+00  0.000000000E+00  4.217809831E+02  4.217809831E+02  0.000000000E+00  0.00000E+00  9.000E+00
      -2    -1     0     0     0   502  0.000000000E+00  0.000000000E+00 -1.644048858E+03  1.644048858E+03  0.000000000E+00  0.00000E+00  9.000E+00
      25     1     1     2     0     0 -2.381592548E+02  1.807913591E+02 -9.507458308E+02  1.004464027E+03  1.250000000E+02  0.00000E+00  9.000E+00
      25     1     1     2     0     0  5.179025216E+02  6.928264068E+01  8.480093089E+01  5.439111177E+02  1.250000000E+02  0.00000E+00  9.000E+00
      -2     1     1     2     0   501 -2.797432668E+02 -2.500739998E+02 -3.563229753E+02  5.174546969E+02  1.375408659E-05  0.00000E+00  9.000E+00
#rwgt            2           9   4.0134736779389132E-005           3       71881           0
</event>
<event>
      5   9999  3.19816E-02  3.88280E+02 -1.00000E+00  1.02076E-01
      21    -1     0     0   502   501  0.000000000E+00  0.000000000E+00  6.009595172E+02  6.009595172E+02  0.000000000E+00  0.00000E+00  9.000E+00
      21    -1     0     0   511   502  0.000000000E+00  0.000000000E+00 -1.325210074E+03  1.325210074E+03  0.000000000E+00  0.00000E+00  9.000E+00
      25     1     1     2     0     0  4.564159609E+02  3.681282068E+02  2.672387382E+02  6.564110368E+02  1.250000000E+02  0.00000E+00  9.000E+00
      25     1     1     2     0     0 -1.647741715E+02 -1.117961271E+02 -3.529711563E+01  2.377389072E+02  1.250000000E+02  0.00000E+00  9.000E+00
      21     1     1     2   511   501 -2.916417894E+02 -2.563320797E+02 -9.561921790E+02  1.032019647E+03  0.000000000E+00  0.00000E+00  9.000E+00
#rwgt            2          11   2.5315090506286969E-003           3       71915           0
</event>
<event>
      5   9999  3.19816E-02  6.04834E+01 -1.00000E+00  1.34517E-01
      21    -1     0     0   502   512  0.000000000E+00  0.000000000E+00  6.354944105E+02  6.354944105E+02  0.000000000E+00  0.00000E+00  9.000E+00
      21    -1     0     0   501   502  0.000000000E+00  0.000000000E+00 -3.508979759E+02  3.508979759E+02  0.000000000E+00  0.00000E+00  9.000E+00
      25     1     1     2     0     0 -2.042819006E+02  8.291163273E+01  2.493880743E+01  2.546613003E+02  1.250000000E+02  0.00000E+00  9.000E+00
      25     1     1     2     0     0  2.334746472E+02 -2.993974718E+01 -1.579231928E+02  3.097927278E+02  1.250000000E+02  0.00000E+00  9.000E+00
      21     1     1     2   501   512 -2.919274667E+01 -5.297188555E+01  4.175808199E+02  4.219383584E+02  0.000000000E+00  0.00000E+00  9.000E+00
#rwgt            1           1   2.9420456848692999E-002           3       71935           0
</event>
<event>
      5   9999  3.19816E-02  1.38315E+02 -1.00000E+00  1.17807E-01
      21    -1     0     0   502   501  0.000000000E+00  0.000000000E+00  4.912877129E+02  4.912877129E+02  0.000000000E+00  0.00000E+00  9.000E+00
       1    -1     0     0   501     0  0.000000000E+00  0.000000000E+00 -1.389024146E+03  1.389024146E+03  0.000000000E+00  0.00000E+00  9.000E+00
      25     1     1     2     0     0 -6.407891196E+02 -1.724862034E+02 -1.637715160E+02  6.948440801E+02  1.250000000E+02  0.00000E+00  9.000E+00
      25     1     1     2     0     0  6.178580480E+02  3.088872221E+02 -3.645337885E+02  7.909928991E+02  1.250000000E+02  0.00000E+00  9.000E+00
       1     1     1     2   502     0  2.293107160E+01 -1.364010187E+02 -3.694311289E+02  3.944748800E+02  5.394796609E-06  0.00000E+00  9.000E+00
#rwgt            1           1   2.7111823142189368E-002           3       72007           0
</event>
<event>
      5   9999  3.19816E-02  2.87862E+01 -1.00000E+00  1.54296E-01
      21    -1     0     0   502   501  0.000000000E+00  0.000000000E+00  3.011731605E+02  3.011731605E+02  0.000000000E+00  0.00000E+00  9.000E+00
      21    -1     0     0   511   502  0.000000000E+00  0.000000000E+00 -1.292804356E+02  1.292804356E+02  0.000000000E+00  0.00000E+00  9.000E+00
      25     1     1     2     0     0  1.544621194E+01 -1.212058684E+02  1.625655537E+02  2.387090431E+02  1.250000000E+02  0.00000E+00  9.000E+00
      25     1     1     2     0     0  5.074649517E+00  1.010182621E+02 -2.003258671E+00  1.608087510E+02  1.250000000E+02  0.00000E+00  9.000E+00
      21     1     1     2   511   501 -2.052086146E+01  2.018760625E+01  1.133042990E+01  3.093580196E+01  4.768371582E-07  0.00000E+00  9.000E+00
#rwgt            1           1   2.7108925074618647E-002           3       72094           0
</event>
<event>
      5   9999  3.19816E-02  4.33305E+01 -1.00000E+00  1.42718E-01
      21    -1     0     0   502   501  0.000000000E+00  0.000000000E+00  2.467920751E+03  2.467920751E+03  0.000000000E+00  0.00000E+00  9.000E+00
      21    -1     0     0   501   512  0.000000000E+00  0.000000000E+00 -9.616621284E+02  9.616621284E+02  0.000000000E+00  0.00000E+00  9.000E+00
      25     1     1     2     0     0  1.405330963E+03  2.585448194E+02  1.176887731E+03  1.855394910E+03  1.250000000E+02  0.00000E+00  9.000E+00
      25     1     1     2     0     0 -1.432854735E+03 -2.920107856E+02  3.713133176E+02  1.513882945E+03  1.250000000E+02  0.00000E+00  9.000E+00
      21     1     1     2   502   512  2.752377181E+01  3.346596615E+01 -4.194242602E+01  6.030502471E+01  0.000000000E+00  0.00000E+00  9.000E+00
#rwgt            1           1   5.0758957512940191E-002           3       72234           0
</event>
<event>
      5   9999  3.19816E-02  5.56130E+01 -1.00000E+00  1.36489E-01
      21    -1     0     0   502   501  0.000000000E+00  0.000000000E+00  2.712777809E+02  2.712777809E+02  0.000000000E+00  0.00000E+00  9.000E+00
      21    -1     0     0   511   502  0.000000000E+00  0.000000000E+00 -3.022100603E+02  3.022100603E+02  0.000000000E+00  0.00000E+00  9.000E+00
      25     1     1     2     0     0  1.267071709E+02  1.221774488E+02 -1.150787429E+00  2.158896951E+02  1.250000000E+02  0.00000E+00  9.000E+00
      25     1     1     2     0     0 -1.817001525E+02 -1.304584362E+02  4.927973126E+01  2.609364691E+02  1.250000000E+02  0.00000E+00  9.000E+00
      21     1     1     2   511   501  5.499298154E+01  8.280987440E+00 -7.906122321E+01  9.666167693E+01  9.536743164E-07  0.00000E+00  9.000E+00
#rwgt            1           1   2.7448673635591097E-002           3       72418           0
</event>
<event>
      5   9999  3.19816E-02  4.43384E+01 -1.00000E+00  1.42120E-01
      21    -1     0     0   502   512  0.000000000E+00  0.000000000E+00  1.341415776E+03  1.341415776E+03  0.000000000E+00  0.00000E+00  9.000E+00
      21    -1     0     0   501   502  0.000000000E+00  0.000000000E+00 -7.116699495E+01  7.116699495E+01  0.000000000E+00  0.00000E+00  9.000E+00
      25     1     1     2     0     0  2.348023981E+02 -3.308340438E+01  6.656047674E+02  7.175523564E+02  1.250000000E+02  0.00000E+00  9.000E+00
      25     1     1     2     0     0 -2.702819910E+02  6.492208758E+00  5.123839972E+02  5.926692703E+02  1.250000000E+02  0.00000E+00  9.000E+00
      21     1     1     2   501   512  3.547959288E+01  2.659119563E+01  9.226001628E+01  1.023611440E+02  1.907348633E-06  0.00000E+00  9.000E+00
#rwgt            1           1   3.2155548755565817E-002           3       72494           0
</event>
<event>
      5   9999  3.19816E-02  1.32527E+02 -1.00000E+00  1.18566E-01
      21    -1     0     0   502   501  0.000000000E+00  0.000000000E+00  7.816204265E+02  7.816204265E+02  0.000000000E+00  0.00000E+00  9.000E+00
       2    -1     0     0   501     0  0.000000000E+00  0.000000000E+00 -5.280203092E+02  5.280203092E+02  0.000000000E+00  0.00000E+00  9.000E+00
      25     1     1     2     0     0 -1.014790328E+02  1.585891178E+02  7.156521807E+02  7.504875390E+02  1.250000000E+02  0.00000E+00  9.000E+00
      25     1     1     2     0     0  4.180830101E+01 -4.025557862E+01 -9.101414279E+01  1.651575606E+02  1.250000000E+02  0.00000E+00  9.000E+00
       2     1     1     2   502     0  5.967073175E+01 -1.183335392E+02 -3.710379207E+02  3.939956362E+02  7.629394531E-06  0.00000E+00  9.000E+00
#rwgt            1           1   1.8870262672744182E-002           3       72583           0
</event>
<event>
      5   9999  3.19816E-02  5.64396E+01 -1.00000E+00  1.36139E-01
       2    -1     0     0   502     0  0.000000000E+00  0.000000000E+00  7.532795642E+02  7.532795642E+02  0.000000000E+00  0.00000E+00  9.000E+00
      21    -1     0     0   501   502  0.000000000E+00  0.000000000E+00 -3.386343810E+02  3.386343810E+02  0.000000000E+00  0.00000E+00  9.000E+00
      25     1     1     2     0     0 -4.835488716E+01 -1.575690094E+02  4.019249726E+02  4.520341485E+02  1.250000000E+02  0.00000E+00  9.000E+00
      25     1     1     2     0     0  4.831417771E+01  2.140086102E+02 -2.593785721E+02  3.619892107E+02  1.250000000E+02  0.00000E+00  9.000E+00
       2     1     1     2   501     0  4.070944372E-02 -5.643960080E+01  2.720987828E+02  2.778905860E+02  0.000000000E+00  0.00000E+00  9.000E+00
#rwgt            1           1   2.4711620041915655E-002           3       72664           0
</event>
<event>
      5   9999  3.19816E-02  3.69640E+01 -1.00000E+00  1.46999E-01
      21    -1     0     0   511   501  0.000000000E+00  0.000000000E+00  5.058513214E+02  5.058513214E+02  0.000000000E+00  0.00000E+00  9.000E+00
      21    -1     0     0   501   502  0.000000000E+00  0.000000000E+00 -2.622900765E+03  2.622900765E+03  0.000000000E+00  0.00000E+00  9.000E+00
      25     1     1     2     0     0  1.372904111E+02  6.247553956E+02 -4.901019377E+02  8.154709502E+02  1.250000000E+02  0.00000E+00  9.000E+00
      25     1     1     2     0     0 -1.005917641E+02 -6.291768378E+02 -1.915402563E+03  2.022467348E+03  1.250000000E+02  0.00000E+00  9.000E+00
      21     1     1     2   511   502 -3.669864698E+01  4.421442185E+00  2.884550566E+02  2.908137884E+02  3.814697266E-06  0.00000E+00  9.000E+00
#rwgt            1           1   2.7518117291178444E-002           3       72762           0
</event>
<event>
      5   9999  3.19816E-02  2.47289E+01 -1.00000E+00  1.59106E-01
      21    -1     0     0   502   501  0.000000000E+00  0.000000000E+00  1.951346667E+03  1.951346667E+03  0.000000000E+00  0.00000E+00  9.000E+00
      21    -1     0     0   501   512  0.000000000E+00  0.000000000E+00 -2.014763145E+02  2.014763145E+02  0.000000000E+00  0.00000E+00  9.000E+00
      25     1     1     2     0     0  3.587883390E+02  4.754240194E+02  1.078843971E+03  1.238663144E+03  1.250000000E+02  0.00000E+00  9.000E+00
      25     1     1     2     0     0 -3.673914827E+02 -4.522398799E+02  6.482550258E+02  8.805435759E+02  1.250000000E+02  0.00000E+00  9.000E+00
      21     1     1     2   502   512  8.603143722E+00 -2.318413954E+01  2.277135606E+01  3.361626192E+01  6.743495762E-07  0.00000E+00  9.000E+00
#rwgt            1           1   2.7345361631655504E-002           3       72884           0
</event>
<event>
      5   9999  3.19816E-02  8.04324E+00 -1.00000E+00  2.07365E-01
      21    -1     0     0   511   501  0.000000000E+00  0.000000000E+00  1.501029647E+02  1.501029647E+02  0.000000000E+00  0.00000E+00  9.000E+00
      21    -1     0     0   501   502  0.000000000E+00  0.000000000E+00 -4.746605667E+02  4.746605667E+02  0.000000000E+00  0.00000E+00  9.000E+00
      25     1     1     2     0     0  1.275234765E+02  1.174066515E+02 -3.104515337E+02  3.768974843E+02  1.250000000E+02  0.00000E+00  9.000E+00
      25     1     1     2     0     0 -1.282962821E+02 -1.254126755E+02 -3.863735765E+01  2.220498155E+02  1.250000000E+02  0.00000E+00  9.000E+00
      21     1     1     2   511   502  7.728055608E-01  8.006024026E+00  2.453128943E+01  2.581623152E+01  3.371747881E-07  0.00000E+00  9.000E+00
#rwgt            1           1   3.0887678357100032E-002           3       73050           0
</event>
<event>
      5   9999  3.19816E-02  4.09152E+01 -1.00000E+00  1.44233E-01
       2    -1     0     0   502     0  0.000000000E+00  0.000000000E+00  3.453466052E+03  3.453466052E+03  0.000000000E+00  0.00000E+00  9.000E+00
      21    -1     0     0   501   502  0.000000000E+00  0.000000000E+00 -6.193020004E+01  6.193020004E+01  0.000000000E+00  0.00000E+00  9.000E+00
      25     1     1     2     0     0  4.367383909E+01  8.342363524E+01  5.430555358E+02  5.651559272E+02  1.250000000E+02  0.00000E+00  9.000E+00
      25     1     1     2     0     0 -5.379464658E+00 -6.901552566E+01  4.988501050E+01  1.513459471E+02  1.250000000E+02  0.00000E+00  9.000E+00
       2     1     1     2   501     0 -3.829437443E+01 -1.440810958E+01  2.798595306E+03  2.798894378E+03  0.000000000E+00  0.00000E+00  9.000E+00
#rwgt            1           1   2.3828210024254826E-002           3       73318           0
</event>
<event>
      5   9999  3.19816E-02  3.61624E+02 -1.00000E+00  1.03021E-01
      21    -1     0     0   502   501  0.000000000E+00  0.000000000E+00  2.845728945E+03  2.845728945E+03  0.000000000E+00  0.00000E+00  9.000E+00
      21    -1     0     0   501   511  0.000000000E+00  0.000000000E+00 -1.453834446E+03  1.453834446E+03  0.000000000E+00  0.00000E+00  9.000E+00
      25     1     1     2     0     0  1.494413801E+03  6.098711138E+02  7.755748978E+02  1.795092423E+03  1.250000000E+02  0.00000E+00  9.000E+00
      25     1     1     2     0     0 -1.141049142E+03 -5.330226420E+02  1.247476884E+03  1.777056515E+03  1.250000000E+02  0.00000E+00  9.000E+00
      21     1     1     2   502   511 -3.533646592E+02 -7.684847180E+01 -6.311572832E+02  7.274144528E+02  7.629394531E-06  0.00000E+00  9.000E+00
#rwgt            2          11   7.8286593466681993E-003           3       73538           0
</event>
<event>
      5   9999  3.19816E-02  3.84932E+01 -1.00000E+00  1.45882E-01
      21    -1     0     0   502   501  0.000000000E+00  0.000000000E+00  6.067545521E+02  6.067545521E+02  0.000000000E+00  0.00000E+00  9.000E+00
      21    -1     0     0   501   512  0.000000000E+00  0.000000000E+00 -2.517183087E+03  2.517183087E+03  0.000000000E+00  0.00000E+00  9.000E+00
      25     1     1     2     0     0 -4.465889576E+02  1.062833547E+03 -6.860563297E+02  1.347351154E+03  1.250000000E+02  0.00000E+00  9.000E+00
      25     1     1     2     0     0  4.825096976E+02 -1.048997883E+03 -9.525758608E+02  1.502077873E+03  1.250000000E+02  0.00000E+00  9.000E+00
      21     1     1     2   502   512 -3.592073999E+01 -1.383566376E+01 -2.717963446E+02  2.745086120E+02  0.000000000E+00  0.00000E+00  9.000E+00
#rwgt            1           1   6.5938337474997485E-002           3       73618           0
</event>
<event>
      5   9999  3.19816E-02  4.96390E+01 -1.00000E+00  1.39255E-01
      21    -1     0     0   502   501  0.000000000E+00  0.000000000E+00  7.813659565E+02  7.813659565E+02  0.000000000E+00  0.00000E+00  9.000E+00
      21    -1     0     0   501   511  0.000000000E+00  0.000000000E+00 -3.587008330E+02  3.587008330E+02  0.000000000E+00  0.00000E+00  9.000E+00
      25     1     1     2     0     0  4.551838300E+02 -8.878056273E+01  2.730177251E+02  5.524834709E+02  1.250000000E+02  0.00000E+00  9.000E+00
      25     1     1     2     0     0 -4.751147140E+02  1.342425685E+02  1.654428967E+02  5.354917466E+02  1.250000000E+02  0.00000E+00  9.000E+00
      21     1     1     2   502   511  1.993088401E+01 -4.546200576E+01 -1.579549831E+01  5.209157199E+01  1.305872339E-06  0.00000E+00  9.000E+00
#rwgt            1           1   2.8619707853394249E-002           3       73849           0
</event>
<event>
      5   9999  3.19816E-02  5.86147E+01 -1.00000E+00  1.35248E-01
      21    -1     0     0   502   512  0.000000000E+00  0.000000000E+00  5.984893535E+02  5.984893535E+02  0.000000000E+00  0.00000E+00  9.000E+00
      21    -1     0     0   501   502  0.000000000E+00  0.000000000E+00 -4.328353063E+02  4.328353063E+02  0.000000000E+00  0.00000E+00  9.000E+00
      25     1     1     2     0     0 -4.662220530E+01  2.871865894E+02  4.838608485E+01  3.203372915E+02  1.250000000E+02  0.00000E+00  9.000E+00
      25     1     1     2     0     0  9.451485893E+01 -2.533935218E+02 -2.189255039E+02  3.697224793E+02  1.250000000E+02  0.00000E+00  9.000E+00
      21     1     1     2   501   512 -4.789265363E+01 -3.379306755E+01  3.361934663E+02  3.412648890E+02  6.607249480E-06  0.00000E+00  9.000E+00
#rwgt            1           1   2.7191817558584377E-002           3       73981           0
</event>
<event>
      5   9999  3.19816E-02  5.46035E+00 -1.00000E+00  2.32022E-01
      21    -1     0     0   502   511  0.000000000E+00  0.000000000E+00  1.488524653E+03  1.488524653E+03  0.000000000E+00  0.00000E+00  9.000E+00
      21    -1     0     0   501   502  0.000000000E+00  0.000000000E+00 -8.919883769E+01  8.919883769E+01  0.000000000E+00  0.00000E+00  9.000E+00
      25     1     1     2     0     0  6.428161601E+00 -5.783418532E+01  1.316931791E+03  1.324130075E+03  1.250000000E+02  0.00000E+00  9.000E+00
      25     1     1     2     0     0 -1.164635908E+00  5.928701470E+01 -2.958614404E+01  1.414801979E+02  1.250000000E+02  0.00000E+00  9.000E+00
      21     1     1     2   501   511 -5.263525692E+00 -1.452829378E+00  1.119801688E+02  1.121132179E+02  0.000000000E+00  0.00000E+00  9.000E+00
#rwgt            1           1   3.1504651026115285E-002           3       74102           0
</event>
<event>
      5   9999  3.19816E-02  2.72042E+02 -1.00000E+00  1.06991E-01
      21    -1     0     0   502   501  0.000000000E+00  0.000000000E+00  1.187586481E+03  1.187586481E+03  0.000000000E+00  0.00000E+00  9.000E+00
      21    -1     0     0   512   502  0.000000000E+00  0.000000000E+00 -2.536544287E+02  2.536544287E+02  0.000000000E+00  0.00000E+00  9.000E+00
      25     1     1     2     0     0  8.410219766E+01 -1.061344950E+02  8.228622586E+02  8.432467060E+02  1.250000000E+02  0.00000E+00  9.000E+00
      25     1     1     2     0     0  1.471008445E+02  2.494939335E+02  5.431920239E+01  3.200960122E+02  1.250000000E+02  0.00000E+00  9.000E+00
      21     1     1     2   512   501 -2.312030421E+02 -1.433594385E+02  5.675059151E+01  2.778981917E+02  3.015782986E-06  0.00000E+00  9.000E+00
#rwgt            2          11   4.0976639532925756E-003           3       74460           0
</event>
<event>
      5   9999  3.19816E-02  7.65611E+01 -1.00000E+00  1.29280E-01
      21    -1     0     0   502   501  0.000000000E+00  0.000000000E+00  6.358803173E+01  6.358803173E+01  0.000000000E+00  0.00000E+00  9.000E+00
      21    -1     0     0   511   502  0.000000000E+00  0.000000000E+00 -1.202393129E+03  1.202393129E+03  0.000000000E+00  0.00000E+00  9.000E+00
      25     1     1     2     0     0 -2.159922640E+01  1.665276491E+02 -4.065095724E+02  4.572450294E+02  1.250000000E+02  0.00000E+00  9.000E+00
      25     1     1     2     0     0 -3.041568181E+01 -2.227063706E+02 -4.733562844E+02  5.387155216E+02  1.250000000E+02  0.00000E+00  9.000E+00
      21     1     1     2   511   501  5.201490820E+01  5.617872149E+01 -2.589392402E+02  2.700206095E+02  5.394796609E-06  0.00000E+00  9.000E+00
#rwgt            1           1   2.7812540695072788E-002           3       74495           0
</event>
<event>
      5   9999  3.19816E-02  1.76327E+01 -1.00000E+00  1.71014E-01
      21    -1     0     0   502   512  0.000000000E+00  0.000000000E+00  4.907243807E+02  4.907243807E+02  0.000000000E+00  0.00000E+00  9.000E+00
      21    -1     0     0   501   502  0.000000000E+00  0.000000000E+00 -1.351503888E+03  1.351503888E+03  0.000000000E+00  0.00000E+00  9.000E+00
      25     1     1     2     0     0  1.369153146E+02 -3.368783792E+02 -1.217803202E+03  1.277067925E+03  1.250000000E+02  0.00000E+00  9.000E+00
      25     1     1     2     0     0 -1.381126446E+02  3.192864256E+02  2.266634770E+02  4.336130256E+02  1.250000000E+02  0.00000E+00  9.000E+00
      21     1     1     2   501   512  1.197330011E+00  1.759195366E+01  1.303602180E+02  1.315473180E+02  2.697398305E-06  0.00000E+00  9.000E+00
#rwgt            1           1   3.2948362051616005E-002           3       74586           0
</event>
<event>
      5   9999  3.19816E-02  7.85236E+01 -1.00000E+00  1.28742E-01
      21    -1     0     0   502   501  0.000000000E+00  0.000000000E+00  3.923307400E+01  3.923307400E+01  0.000000000E+00  0.00000E+00  9.000E+00
       2    -1     0     0   501     0  0.000000000E+00  0.000000000E+00 -1.918229502E+03  1.918229502E+03  0.000000000E+00  0.00000E+00  9.000E+00
      25     1     1     2     0     0  6.800827159E+01  9.042714838E+00 -2.797383474E+02  3.139831822E+02  1.250000000E+02  0.00000E+00  9.000E+00
      25     1     1     2     0     0 -9.774234200E+01 -8.171895694E+01 -3.607904069E+02  4.025248701E+02  1.250000000E+02  0.00000E+00  9.000E+00
       2     1     1     2   502     0  2.973407041E+01  7.267624211E+01 -1.238467674E+03  1.240954524E+03  0.000000000E+00  0.00000E+00  9.000E+00
#rwgt            1           1   7.6959870411949960E-002           3       74801           0
</event>
<event>
      5   9999  3.19816E-02  1.98260E+02 -1.00000E+00  1.11786E-01
      21    -1     0     0   502   501  0.000000000E+00  0.000000000E+00  1.128657882E+03  1.128657882E+03  0.000000000E+00  0.00000E+00  9.000E+00
      21    -1     0     0   501   511  0.000000000E+00  0.000000000E+00 -5.416800001E+02  5.416800001E+02  0.000000000E+00  0.00000E+00  9.000E+00
      25     1     1     2     0     0 -3.816339656E+02 -2.097808088E+02 -2.896694017E+02  5.377600150E+02  1.250000000E+02  0.00000E+00  9.000E+00
      25     1     1     2     0     0  2.117279377E+02  3.119518610E+02  8.424486904E+02  9.313900789E+02  1.250000000E+02  0.00000E+00  9.000E+00
      21     1     1     2   502   511  1.699060278E+02 -1.021710522E+02  3.419859298E+01  2.011877878E+02  3.337860107E-06  0.00000E+00  9.000E+00
#rwgt            1           1   3.1883385683587895E-002           3       74848           0
</event>
<event>
      5   9999  3.19816E-02  1.33338E+02 -1.00000E+00  1.18457E-01
      21    -1     0     0   502   512  0.000000000E+00  0.000000000E+00  2.459829893E+02  2.459829893E+02  0.000000000E+00  0.00000E+00  9.000E+00
      21    -1     0     0   501   502  0.000000000E+00  0.000000000E+00 -1.528829059E+03  1.528829059E+03  0.000000000E+00  0.00000E+00  9.000E+00
      25     1     1     2     0     0 -2.106640906E+02  3.997326611E+02 -1.008504667E+03  1.112147573E+03  1.250000000E+02  0.00000E+00  9.000E+00
      25     1     1     2     0     0  3.085629940E+02 -3.092078878E+02 -2.714941391E+02  5.292964261E+02  1.250000000E+02  0.00000E+00  9.000E+00
      21     1     1     2   501   512 -9.789890342E+01 -9.052477332E+01 -2.847263827E+00  1.333680501E+02  1.942416517E-06  0.00000E+00  9.000E+00
#rwgt            1           1   2.5739729016282447E-002           3       74938           0
</event>
<event>
      5   9999  3.19816E-02  4.17309E+01 -1.00000E+00  1.43708E-01
      21    -1     0     0   502   501  0.000000000E+00  0.000000000E+00  2.665504305E+03  2.665504305E+03  0.000000000E+00  0.00000E+00  9.000E+00
      21    -1     0     0   501   511  0.000000000E+00  0.000000000E+00 -1.495345766E+02  1.495345766E+02  0.000000000E+00  0.00000E+00  9.000E+00
      25     1     1     2     0     0  2.584720489E+02 -2.500379500E+02  1.106550448E+03  1.170216078E+03  1.250000000E+02  0.00000E+00  9.000E+00
      25     1     1     2     0     0 -2.998098683E+02  2.443235400E+02  1.495183572E+03  1.549444695E+03  1.250000000E+02  0.00000E+00  9.000E+00
      21     1     1     2   502   511  4.133781941E+01  5.714410050E+00 -8.576429151E+01  9.537810804E+01  3.814697266E-06  0.00000E+00  9.000E+00
#rwgt            1           1   5.9289701670770183E-002           3       75018           0
</event>
<event>
      5   9999  3.19816E-02  2.57901E+01 -1.00000E+00  1.57745E-01
      21    -1     0     0   512   501  0.000000000E+00  0.000000000E+00  2.238542967E+02  2.238542967E+02  0.000000000E+00  0.00000E+00  9.000E+00
      21    -1     0     0   501   502  0.000000000E+00  0.000000000E+00 -5.718564769E+02  5.718564769E+02  0.000000000E+00  0.00000E+00  9.000E+00
      25     1     1     2     0     0  2.271582389E+02 -9.171347636E+01  3.937087401E+01  2.778260121E+02  1.250000000E+02  0.00000E+00  9.000E+00
      25     1     1     2     0     0 -2.463263059E+02  7.445901312E+01 -3.978640866E+02  4.900424727E+02  1.250000000E+02  0.00000E+00  9.000E+00
      21     1     1     2   512   502  1.916806695E+01  1.725446324E+01  1.049103241E+01  2.784228894E+01  5.057621821E-07  0.00000E+00  9.000E+00
#rwgt            1           1   2.6214296348190259E-002           3       75142           0
</event>
<event>
      5   9999  3.19816E-02  7.17329E+01 -1.00000E+00  1.30685E-01
       2    -1     0     0   502     0  0.000000000E+00  0.000000000E+00  1.228230450E+03  1.228230450E+03  0.000000000E+00  0.00000E+00  9.000E+00
      21    -1     0     0   501   502  0.000000000E+00  0.000000000E+00 -2.102221828E+02  2.102221828E+02  0.000000000E+00  0.00000E+00  9.000E+00
      25     1     1     2     0     0 -3.092042050E+02  1.957491082E+02  5.602013777E+02  6.807169290E+02  1.250000000E+02  0.00000E+00  9.000E+00
      25     1     1     2     0     0  3.645550121E+02 -1.501213692E+02  1.472885093E+02  4.390395054E+02  1.250000000E+02  0.00000E+00  9.000E+00
       2     1     1     2   501     0 -5.535080701E+01 -4.562773903E+01  3.105183808E+02  3.186961989E+02  3.814697266E-06  0.00000E+00  9.000E+00
#rwgt            1           1   2.8675297095415258E-002           3       75263           0
</event>
<event>
      5   9999  3.19816E-02  4.26529E+02 -1.00000E+00  1.00853E-01
      21    -1     0     0   502   511  0.000000000E+00  0.000000000E+00  3.713399891E+02  3.713399891E+02  0.000000000E+00  0.00000E+00  9.000E+00
      21    -1     0     0   501   502  0.000000000E+00  0.000000000E+00 -1.623850162E+03  1.623850162E+03  0.000000000E+00  0.00000E+00  9.000E+00
      25     1     1     2     0     0 -8.235034335E+01 -6.578352128E+02 -8.459237702E+02  1.082007750E+03  1.250000000E+02  0.00000E+00  9.000E+00
      25     1     1     2     0     0 -1.778374750E+02  3.198572228E+02 -1.461246991E+02  4.134153338E+02  1.250000000E+02  0.00000E+00  9.000E+00
      21     1     1     2   501   511  2.601878183E+02  3.379779899E+02 -2.604617037E+02  4.997670673E+02  6.607249480E-06  0.00000E+00  9.000E+00
#rwgt            2          11   2.6660550885501924E-003           3       75439           0
</event>
<event>
      5   9999  3.19816E-02  2.08254E+01 -1.00000E+00  1.64933E-01
      21    -1     0     0   502   501  0.000000000E+00  0.000000000E+00  2.737418849E+02  2.737418849E+02  0.000000000E+00  0.00000E+00  9.000E+00
      21    -1     0     0   501   512  0.000000000E+00  0.000000000E+00 -1.174669205E+03  1.174669205E+03  0.000000000E+00  0.00000E+00  9.000E+00
      25     1     1     2     0     0 -3.574888439E+02  1.649793502E+02 -8.837142725E+02  9.754959636E+02  1.250000000E+02  0.00000E+00  9.000E+00
      25     1     1     2     0     0  3.702173144E+02 -1.814621141E+02  1.888177653E+01  4.312434118E+02  1.250000000E+02  0.00000E+00  9.000E+00
      21     1     1     2   502   512 -1.272847053E+01  1.648276386E+01 -3.609482409E+01  4.167171454E+01  6.743495762E-07  0.00000E+00  9.000E+00
#rwgt            1           1   2.8571963519182796E-002           3       75474           0
</event>
<event>
      5   9999  3.19816E-02  1.68260E+01 -1.00000E+00  1.72809E-01
      21    -1     0     0   502   501  0.000000000E+00  0.000000000E+00  9.189706521E+01  9.189706521E+01  0.000000000E+00  0.00000E+00  9.000E+00
      21    -1     0     0   511   502  0.000000000E+00  0.000000000E+00 -2.745073937E+02  2.745073937E+02  0.000000000E+00  0.00000E+00  9.000E+00
      25     1     1     2     0     0  3.572876964E+01  6.564519018E+01 -1.284035219E+02  1.941605017E+02  1.250000000E+02  0.00000E+00  9.000E+00
      25     1     1     2     0     0 -4.794898442E+01 -5.407890027E+01 -3.900086005E+01  1.495650348E+02  1.250000000E+02  0.00000E+00  9.000E+00
      21     1     1     2   511   501  1.222021478E+01 -1.156628991E+01 -1.520594658E+01  2.267892244E+01  0.000000000E+00  0.00000E+00  9.000E+00
#rwgt            1           1   4.3416220206469687E-002           3       75658           0
</event>
<event>
      5   9999  3.19816E-02  7.12528E+01 -1.00000E+00  1.30832E-01
      21    -1     0     0   502   501  0.000000000E+00  0.000000000E+00  1.180881585E+02  1.180881585E+02  0.000000000E+00  0.00000E+00  9.000E+00
      21    -1     0     0   501   512  0.000000000E+00  0.000000000E+00 -1.072414712E+03  1.072414712E+03  0.000000000E+00  0.00000E+00  9.000E+00
      25     1     1     2     0     0  2.140814692E+02  2.287438744E+02 -4.531241304E+02  5.648903550E+02  1.250000000E+02  0.00000E+00  9.000E+00
      25     1     1     2     0     0 -1.956181343E+02 -1.599247625E+02 -2.976743494E+02  4.099724411E+02  1.250000000E+02  0.00000E+00  9.000E+00
      21     1     1     2   502   512 -1.846333493E+01 -6.881911194E+01 -2.035280735E+02  2.156400742E+02  3.814697266E-06  0.00000E+00  9.000E+00
#rwgt            1           1   2.7502342031521528E-002           3       75843           0
</event>
<event>
      5   9999  3.19816E-02  2.03063E+01 -1.00000E+00  1.65826E-01
      21    -1     0     0   511   501  0.000000000E+00  0.000000000E+00  1.077012893E+03  1.077012893E+03  0.000000000E+00  0.00000E+00  9.000E+00
      21    -1     0     0   501   502  0.000000000E+00  0.000000000E+00 -7.745141289E+01  7.745141289E+01  0.000000000E+00  0.00000E+00  9.000E+00
      25     1     1     2     0     0 -2.320276168E+02  5.313162397E+01  3.039205682E+02  4.057739472E+02  1.250000000E+02  0.00000E+00  9.000E+00
      25     1     1     2     0     0  2.199321338E+02 -3.682074116E+01  6.581366877E+02  7.060416490E+02  1.250000000E+02  0.00000E+00  9.000E+00
      21     1     1     2   511   502  1.209548299E+01 -1.631088281E+01  3.750422441E+01  4.264870989E+01  8.259061849E-07  0.00000E+00  9.000E+00
#rwgt            1           1   2.5321802480611347E-002           3       75978           0
</event>
<event>
      5   9999  3.19816E-02  5.98872E+01 -1.00000E+00  1.34747E-01
      21    -1     0     0   502   512  0.000000000E+00  0.000000000E+00  4.852528287E+02  4.852528287E+02  0.000000000E+00  0.00000E+00  9.000E+00
      21    -1     0     0   501   502  0.000000000E+00  0.000000000E+00 -1.692176428E+03  1.692176428E+03  0.000000000E+00  0.00000E+00  9.000E+00
      25     1     1     2     0     0  5.484518377E+02  4.455655715E+02 -1.931189089E+01  7.178621357E+02  1.250000000E+02  0.00000E+00  9.000E+00
      25     1     1     2     0     0 -5.141160478E+02 -4.946321549E+02 -1.196874894E+03  1.398967759E+03  1.250000000E+02  0.00000E+00  9.000E+00
      21     1     1     2   501   512 -3.433578992E+01  4.906658341E+01  9.263185299E+00  6.059936203E+01  6.848052319E-07  0.00000E+00  9.000E+00
#rwgt            1           1   3.0424129898460498E-002           3       76158           0
</event>
<event>
      5   9999  3.19816E-02  1.42576E+02 -1.00000E+00  1.17274E-01
      21    -1     0     0   502   501  0.000000000E+00  0.000000000E+00  9.356106296E+02  9.356106296E+02  0.000000000E+00  0.00000E+00  9.000E+00
      21    -1     0     0   511   502  0.000000000E+00  0.000000000E+00 -3.978880145E+02  3.978880145E+02  0.000000000E+00  0.00000E+00  9.000E+00
      25     1     1     2     0     0 -1.714512520E+02 -3.473168695E+02  6.627882761E+02  7.777774994E+02  1.250000000E+02  0.00000E+00  9.000E+00
      25     1     1     2     0     0  2.800254041E+02  2.549069255E+02 -8.695925854E+01  4.081405153E+02  1.250000000E+02  0.00000E+00  9.000E+00
      21     1     1     2   511   501 -1.085741521E+02  9.240994401E+01 -3.810640248E+01  1.475806294E+02  1.651812370E-06  0.00000E+00  9.000E+00
#rwgt            1           1   2.2111834471584570E-002           3       76241           0
</event>
<event>
      5   9999  3.19816E-02  1.73200E+02 -1.00000E+00  1.13971E-01
      21    -1     0     0   502   501  0.000000000E+00  0.000000000E+00  2.706455466E+02  2.706455466E+02  0.000000000E+00  0.00000E+00  9.000E+00
      21    -1     0     0   512   502  0.000000000E+00  0.000000000E+00 -1.324190006E+03  1.324190006E+03  0.000000000E+00  0.00000E+00  9.000E+00
      25     1     1     2     0     0 -4.487479767E+02 -2.100205945E+02 -5.583989521E+02  7.569133282E+02  1.250000000E+02  0.00000E+00  9.000E+00
      25     1     1     2     0     0  3.309419009E+02  8.305577304E+01 -5.834396219E+01  3.680350814E+02  1.250000000E+02  0.00000E+00  9.000E+00
      21     1     1     2   512   501  1.178060758E+02  1.269648215E+02 -4.368015452E+02  4.698871431E+02  5.394796609E-06  0.00000E+00  9.000E+00
#rwgt            1           1   2.7230562325175799E-002           3       76319           0
</event>
<event>
      5   9999  3.19816E-02  1.06885E+02 -1.00000E+00  1.22541E-01
      21    -1     0     0   502   501  0.000000000E+00  0.000000000E+00  7.442399908E+02  7.442399908E+02  0.000000000E+00  0.00000E+00  9.000E+00
       2    -1     0     0   501     0  0.000000000E+00  0.000000000E+00 -1.292517191E+02  1.292517191E+02  0.000000000E+00  0.00000E+00  9.000E+00
      25     1     1     2     0     0 -1.045644673E+02 -8.214091997E+00  4.341862827E+02  4.638360995E+02  1.250000000E+02  0.00000E+00  9.000E+00
      25     1     1     2     0     0  1.269176522E+02 -9.630773211E+01  2.169955493E+02  2.968085883E+02  1.250000000E+02  0.00000E+00  9.000E+00
       2     1     1     2   502     0 -2.235318483E+01  1.045218241E+02 -3.619356030E+01  1.128470221E+02  1.651812370E-06  0.00000E+00  9.000E+00
#rwgt            1           1   3.1955236651693870E-002           3       76355           0
</event>
<event>
      5   9999  3.19816E-02  2.27118E+01 -1.00000E+00  1.61938E-01
      21    -1     0     0   511   501  0.000000000E+00  0.000000000E+00  7.820234733E+01  7.820234733E+01  0.000000000E+00  0.00000E+00  9.000E+00
      21    -1     0     0   501   502  0.000000000E+00  0.000000000E+00 -8.213424631E+02  8.213424631E+02  0.000000000E+00  0.00000E+00  9.000E+00
      25     1     1     2     0     0  2.134088205E+02 -2.250138436E+01 -3.428101120E+02  4.233124258E+02  1.250000000E+02  0.00000E+00  9.000E+00
      25     1     1     2     0     0 -1.943240869E+02  3.481402056E+01 -3.779422754E+02  4.443413444E+02  1.250000000E+02  0.00000E+00  9.000E+00
      21     1     1     2   511   502 -1.908473361E+01 -1.231263619E+01 -2.238772834E+01  3.189104023E+01  4.129530925E-07  0.00000E+00  9.000E+00
#rwgt            1           1   2.8969230139372339E-002           3       76392           0
</event>
<event>
      5   9999  3.19816E-02  1.17827E+01 -1.00000E+00  1.87866E-01
      21    -1     0     0   512   501  0.000000000E+00  0.000000000E+00  2.503774951E+02  2.503774951E+02  0.000000000E+00  0.00000E+00  9.000E+00
      21    -1     0     0   501   502  0.000000000E+00  0.000000000E+00 -4.167561377E+02  4.167561377E+02  0.000000000E+00  0.00000E+00  9.000E+00
      25     1     1     2     0     0 -3.036407970E+01 -1.751750279E+02 -2.966584859E+02  3.677492692E+02  1.250000000E+02  0.00000E+00  9.000E+00
      25     1     1     2     0     0  4.144436820E+01  1.711675622E+02  5.455623138E+01  2.227495283E+02  1.250000000E+02  0.00000E+00  9.000E+00
      21     1     1     2   512   502 -1.108028850E+01  4.007465758E+00  7.572361189E+01  7.663483525E+01  1.348699152E-06  0.00000E+00  9.000E+00
#rwgt            1           1   3.2528803668828508E-002           3       76511           0
</event>
<event>
      5   9999  3.19816E-02  7.52791E+00 -1.00000E+00  2.11185E-01
      21    -1     0     0   502   501  0.000000000E+00  0.000000000E+00  8.123030715E+01  8.123030715E+01  0.000000000E+00  0.00000E+00  9.000E+00
      21    -1     0     0   511   502  0.000000000E+00  0.000000000E+00 -5.546949151E+02  5.546949151E+02  0.000000000E+00  0.00000E+00  9.000E+00
      25     1     1     2     0     0 -1.025389309E+02  1.210839210E+02 -1.993701124E+02  2.838115396E+02  1.250000000E+02  0.00000E+00  9.000E+00
      25     1     1     2     0     0  9.660746596E+01 -1.164485053E+02 -2.094499389E+02  2.870322870E+02  1.250000000E+02  0.00000E+00  9.000E+00
      21     1     1     2   511   501  5.931464977E+00 -4.635415721E+00 -6.464455672E+01  6.508139573E+01  1.348699152E-06  0.00000E+00  9.000E+00
#rwgt            1           1   3.0778293172878033E-002           3       76662           0
</event>
<event>
      5   9999  3.19816E-02  4.40504E+01 -1.00000E+00  1.42289E-01
      21    -1     0     0   502   501  0.000000000E+00  0.000000000E+00  5.099258403E+02  5.099258403E+02  0.000000000E+00  0.00000E+00  9.000E+00
      -1    -1     0     0     0   502  0.000000000E+00  0.000000000E+00 -1.147985779E+03  1.147985779E+03  0.000000000E+00  0.00000E+00  9.000E+00
      25     1     1     2     0     0  3.772308399E+02  4.261578410E+02 -5.623351862E+01  5.854065430E+02  1.250000000E+02  0.00000E+00  9.000E+00
      25     1     1     2     0     0 -3.347403642E+02 -4.145391397E+02 -6.196407355E+01  5.507797710E+02  1.250000000E+02  0.00000E+00  9.000E+00
      -1     1     1     2     0   501 -4.249047575E+01 -1.161870130E+01 -5.198623467E+02  5.217253054E+02  7.629394531E-06  0.00000E+00  9.000E+00
#rwgt            1           1   2.2685270817986321E-002           3       76881           0
</event>
<event>
      5   9999  3.19816E-02  1.28892E+01 -1.00000E+00  1.83822E-01
      21    -1     0     0   502   501  0.000000000E+00  0.000000000E+00  5.803886654E+02  5.803886654E+02  0.000000000E+00  0.00000E+00  9.000E+00
      21    -1     0     0   501   511  0.000000000E+00  0.000000000E+00 -1.243051330E+03  1.243051330E+03  0.000000000E+00  0.00000E+00  9.000E+00
      25     1     1     2     0     0  4.212440041E+02  2.153693490E+02  2.523787168E+02  5.505910317E+02  1.250000000E+02  0.00000E+00  9.000E+00
      25     1     1     2     0     0 -4.333879035E+02 -2.196886613E+02 -1.730060273E+02  5.307016754E+02  1.250000000E+02  0.00000E+00  9.000E+00
      21     1     1     2   502   511  1.214389944E+01  4.319312362E+00 -7.420353546E+02  7.421472888E+02  1.078959322E-05  0.00000E+00  9.000E+00
#rwgt            1           1   3.1087516853435998E-002           3       77051           0
</event>
<event>
      5   9999  3.19816E-02  2.44801E+01 -1.00000E+00  1.59437E-01
      21    -1     0     0   502   512  0.000000000E+00  0.000000000E+00  2.019176183E+02  2.019176183E+02  0.000000000E+00  0.00000E+00  9.000E+00
      21    -1     0     0   501   502  0.000000000E+00  0.000000000E+00 -1.435851215E+03  1.435851215E+03  0.000000000E+00  0.00000E+00  9.000E+00
      25     1     1     2     0     0  1.403558860E+02 -9.619437823E+01 -1.363124667E+03  1.379379205E+03  1.250000000E+02  0.00000E+00  9.000E+00
      25     1     1     2     0     0 -1.349609992E+02  7.231608818E+01  1.240933768E+02  2.333843484E+02  1.250000000E+02  0.00000E+00  9.000E+00
      21     1     1     2   501   512 -5.394886885E+00  2.387829005E+01  5.097693658E+00  2.500527985E+01  2.858538343E-07  0.00000E+00  9.000E+00
#rwgt            1           1   2.7787169279167419E-002           3       77281           0
</event>
<event>
      5   9999  3.19816E-02  5.61775E+01 -1.00000E+00  1.36249E-01
      21    -1     0     0   502   511  0.000000000E+00  0.000000000E+00  1.507167468E+03  1.507167468E+03  0.000000000E+00  0.00000E+00  9.000E+00
      21    -1     0     0   501   502  0.000000000E+00  0.000000000E+00 -1.457942819E+02  1.457942819E+02  0.000000000E+00  0.00000E+00  9.000E+00
      25     1     1     2     0     0 -5.682226751E+01  3.254173875E+02  4.368664547E+02  5.617851417E+02  1.250000000E+02  0.00000E+00  9.000E+00
      25     1     1     2     0     0  1.129904442E+02 -3.264414636E+02  3.293777026E+02  4.934020071E+02  1.250000000E+02  0.00000E+00  9.000E+00
      21     1     1     2   501   511 -5.616817665E+01  1.024076043E+00  5.951290286E+02  5.977746009E+02  0.000000000E+00  0.00000E+00  9.000E+00
#rwgt            1           1   3.3260804587095884E-002           3       77505           0
</event>
<event>
      5   9999  3.19816E-02  1.44370E+02 -1.00000E+00  1.17056E-01
      21    -1     0     0   512   501  0.000000000E+00  0.000000000E+00  6.200034654E+02  6.200034654E+02  0.000000000E+00  0.00000E+00  9.000E+00
      21    -1     0     0   501   502  0.000000000E+00  0.000000000E+00 -7.767804198E+02  7.767804198E+02  0.000000000E+00  0.00000E+00  9.000E+00
      25     1     1     2     0     0  1.737712087E+02 -6.025219806E+02 -1.529356364E+02  6.574522637E+02  1.250000000E+02  0.00000E+00  9.000E+00
      25     1     1     2     0     0 -5.503373940E+01  5.203987917E+02 -1.232720509E+02  5.519643226E+02  1.250000000E+02  0.00000E+00  9.000E+00
      21     1     1     2   512   502 -1.187374693E+02  8.212318897E+01  1.194307329E+02  1.873672990E+02  2.336015456E-06  0.00000E+00  9.000E+00
#rwgt            1           1   2.9240551834203574E-002           3       77588           0
</event>
<event>
      5   9999  3.19816E-02  5.83840E+01 -1.00000E+00  1.35340E-01
      21    -1     0     0   502   511  0.000000000E+00  0.000000000E+00  2.313580695E+02  2.313580695E+02  0.000000000E+00  0.00000E+00  9.000E+00
      21    -1     0     0   501   502  0.000000000E+00  0.000000000E+00 -1.725451661E+03  1.725451661E+03  0.000000000E+00  0.00000E+00  9.000E+00
      25     1     1     2     0     0  3.460794910E+02 -3.036132079E+01 -1.506693197E+03  1.551271161E+03  1.250000000E+02  0.00000E+00  9.000E+00
      25     1     1     2     0     0 -2.896664201E+02  4.540329017E+01 -4.691136425E+01  3.221704049E+02  1.250000000E+02  0.00000E+00  9.000E+00
      21     1     1     2   501   511 -5.641307085E+01 -1.504196938E+01  5.951096973E+01  8.336816494E+01  9.536743164E-07  0.00000E+00  9.000E+00
#rwgt            1           1   2.9662190212492324E-002           3       77655           0
</event>
<event>
      5   9999  3.19816E-02  7.81401E+02 -1.00000E+00  9.36387E-02
       2    -1     0     0   502     0  0.000000000E+00  0.000000000E+00  1.300086701E+03  1.300086701E+03  0.000000000E+00  0.00000E+00  9.000E+00
      21    -1     0     0   501   502  0.000000000E+00  0.000000000E+00 -1.208526363E+03  1.208526363E+03  0.000000000E+00  0.00000E+00  9.000E+00
      25     1     1     2     0     0 -1.254933909E+00 -2.858296073E-01  4.104284829E+01  1.315719269E+02  1.250000000E+02  0.00000E+00  9.000E+00
      25     1     1     2     0     0 -3.793926326E+02  6.827041630E+02 -8.658494319E+02  1.172750605E+03  1.250000000E+02  0.00000E+00  9.000E+00
       2     1     1     2   501     0  3.806475665E+02 -6.824183334E+02  9.163669208E+02  1.204290532E+03  1.525878906E-05  0.00000E+00  9.000E+00
#rwgt            2          18   2.5643444518858964E-003           3       77872           0
</event>
<event>
      5   9999  3.19816E-02  6.18290E+01 -1.00000E+00  1.34010E-01
      21    -1     0     0   502   511  0.000000000E+00  0.000000000E+00  8.023805248E+02  8.023805248E+02  0.000000000E+00  0.00000E+00  9.000E+00
      21    -1     0     0   501   502  0.000000000E+00  0.000000000E+00 -1.410068397E+03  1.410068397E+03  0.000000000E+00  0.00000E+00  9.000E+00
      25     1     1     2     0     0 -8.256455620E+02  2.556973849E+02 -6.415495592E+02  1.083643199E+03  1.250000000E+02  0.00000E+00  9.000E+00
      25     1     1     2     0     0  8.783862284E+02 -2.234290145E+02 -1.568844683E+02  9.282890860E+02  1.250000000E+02  0.00000E+00  9.000E+00
      21     1     1     2   501   511 -5.274066637E+01 -3.226837036E+01  1.907461555E+02  2.005166363E+02  0.000000000E+00  0.00000E+00  9.000E+00
#rwgt            1           1   3.2407673235432310E-002           3       77891           0
</event>
<event>
      5   9999  3.19816E-02  4.35632E+01 -1.00000E+00  1.42579E-01
       1    -1     0     0   502     0  0.000000000E+00  0.000000000E+00  9.041119743E+02  9.041119743E+02  0.000000000E+00  0.00000E+00  9.000E+00
      21    -1     0     0   501   502  0.000000000E+00  0.000000000E+00 -1.934941430E+02  1.934941430E+02  0.000000000E+00  0.00000E+00  9.000E+00
      25     1     1     2     0     0 -1.046024914E+02 -6.244313291E+01  8.308460861E+01  1.933103159E+02  1.250000000E+02  0.00000E+00  9.000E+00
      25     1     1     2     0     0  9.591445227E+01  1.051311644E+02 -7.256987180E+01  2.028386802E+02  1.250000000E+02  0.00000E+00  9.000E+00
       1     1     1     2   501     0  8.688039165E+00 -4.268803151E+01  7.001030944E+02  7.014571212E+02  7.629394531E-06  0.00000E+00  9.000E+00
#rwgt            1           1   2.4105371654953283E-002           3       78026           0
</event>
<event>
      5   9999  3.19816E-02  1.10163E+02 -1.00000E+00  1.21966E-01
      21    -1     0     0   511   501  0.000000000E+00  0.000000000E+00  1.053285002E+02  1.053285002E+02  0.000000000E+00  0.00000E+00  9.000E+00
      21    -1     0     0   501   502  0.000000000E+00  0.000000000E+00 -2.152987429E+03  2.152987429E+03  0.000000000E+00  0.00000E+00  9.000E+00
      25     1     1     2     0     0  2.373261400E+01  1.895746329E+02 -1.582537438E+02  2.777967347E+02  1.250000000E+02  0.00000E+00  9.000E+00
      25     1     1     2     0     0 -1.018830523E+02 -2.672166783E+02 -1.827892206E+03  1.854346199E+03  1.250000000E+02  0.00000E+00  9.000E+00
      21     1     1     2   511   502  7.815043825E+01  7.764204548E+01 -6.151297961E+01  1.261729959E+02  1.651812370E-06  0.00000E+00  9.000E+00
#rwgt            1           1   2.7667970500096364E-002           3       78120           0
</event>
<event>
      5   9999  3.19816E-02  1.89003E+01 -1.00000E+00  1.68421E-01
      21    -1     0     0   512   501  0.000000000E+00  0.000000000E+00  5.066560028E+02  5.066560028E+02  0.000000000E+00  0.00000E+00  9.000E+00
      21    -1     0     0   501   502  0.000000000E+00  0.000000000E+00 -1.366332221E+03  1.366332221E+03  0.000000000E+00  0.00000E+00  9.000E+00
      25     1     1     2     0     0  3.977129775E+01  7.971207127E+02 -6.472617107E+02  1.035159847E+03  1.250000000E+02  0.00000E+00  9.000E+00
      25     1     1     2     0     0 -4.713283318E+01 -7.797129998E+02 -2.029614490E+02  8.166959139E+02  1.250000000E+02  0.00000E+00  9.000E+00
      21     1     1     2   512   502  7.361535432E+00 -1.740771292E+01 -9.453058412E+00  2.113246286E+01  3.953724850E-07  0.00000E+00  9.000E+00
#rwgt            1           1   2.6481875202485020E-002           3       78210           0
</event>
<event>
      5   9999  3.19816E-02  4.40388E+01 -1.00000E+00  1.42296E-01
      21    -1     0     0   502   501  0.000000000E+00  0.000000000E+00  5.961908270E+02  5.961908270E+02  0.000000000E+00  0.00000E+00  9.000E+00
      21    -1     0     0   511   502  0.000000000E+00  0.000000000E+00 -7.169449313E+01  7.169449313E+01  0.000000000E+00  0.00000E+00  9.000E+00
      25     1     1     2     0     0  6.133833193E+01 -4.388722771E-01  4.644194626E+02  4.848432951E+02  1.250000000E+02  0.00000E+00  9.000E+00
      25     1     1     2     0     0 -1.750064413E+01  4.642493505E+00  3.032114533E+01  1.298930219E+02  1.250000000E+02  0.00000E+00  9.000E+00
      21     1     1     2   511   501 -4.383768780E+01 -4.203621227E+00  2.975572593E+01  5.314900308E+01  1.118282261E-06  0.00000E+00  9.000E+00
#rwgt            1           1   3.0045489178249667E-002           3       78444           0
</event>
<event>
      5   9999  3.19816E-02  2.54372E+01 -1.00000E+00  1.58189E-01
      21    -1     0     0   502   501  0.000000000E+00  0.000000000E+00  9.494088175E+02  9.494088175E+02  0.000000000E+00  0.00000E+00  9.000E+00
      21    -1     0     0   512   502  0.000000000E+00  0.000000000E+00 -5.012983410E+02  5.012983410E+02  0.000000000E+00  0.00000E+00  9.000E+00
      25     1     1     2     0     0  3.017345872E+02  4.748222680E+02  5.503210096E+02  7.968551693E+02  1.250000000E+02  0.00000E+00  9.000E+00
      25     1     1     2     0     0 -3.116586934E+02 -4.982436555E+02 -5.901938419E+01  6.037268995E+02  1.250000000E+02  0.00000E+00  9.000E+00
      21     1     1     2   512   501  9.924106207E+00  2.342138752E+01 -4.319114888E+01  5.012508972E+01  6.743495762E-07  0.00000E+00  9.000E+00
#rwgt            1           1   2.8493273736213173E-002           3       78528           0
</event>
<event>
      5   9999  3.19816E-02  7.25207E+01 -1.00000E+00  1.30447E-01
      21    -1     0     0   502   511  0.000000000E+00  0.000000000E+00  5.679766068E+02  5.679766068E+02  0.000000000E+00  0.00000E+00  9.000E+00
      21    -1     0     0   501   502  0.000000000E+00  0.000000000E+00 -2.266546626E+03  2.266546626E+03  0.000000000E+00  0.00000E+00  9.000E+00
      25     1     1     2     0     0  1.331187166E+01  1.440803018E+02 -2.178422949E+03  2.186798547E+03  1.250000000E+02  0.00000E+00  9.000E+00
      25     1     1     2     0     0 -4.259726457E+01 -7.773557741E+01 -9.017441188E+00  1.535045966E+02  1.250000000E+02  0.00000E+00  9.000E+00
      21     1     1     2   501   511  2.928539291E+01 -6.634472438E+01  4.888703712E+02  4.942200892E+02  5.394796609E-06  0.00000E+00  9.000E+00
#rwgt            1           1   8.6339130946904027E-002           3       78771           0
</event>
<event>
      5   9999  3.19816E-02  2.67166E+01 -1.00000E+00  1.56620E-01
      21    -1     0     0   512   501  0.000000000E+00  0.000000000E+00  1.774590017E+02  1.774590017E+02  0.000000000E+00  0.00000E+00  9.000E+00
      21    -1     0     0   501   502  0.000000000E+00  0.000000000E+00 -1.184160984E+03  1.184160984E+03  0.000000000E+00  0.00000E+00  9.000E+00
      25     1     1     2     0     0  3.739099574E+02  1.506072481E+02 -4.272821054E+02  6.005715586E+02  1.250000000E+02  0.00000E+00  9.000E+00
      25     1     1     2     0     0 -4.006068513E+02 -1.516342638E+02 -5.829261947E+02  7.341026820E+02  1.250000000E+02  0.00000E+00  9.000E+00
      21     1     1     2   512   502  2.669689391E+01  1.027015751E+00  3.506317904E+00  2.694574496E+01  5.990192664E-07  0.00000E+00  9.000E+00
#rwgt            1           1   2.8776128905454230E-002           3       78851           0
</event>
<event>
      5   9999  3.19816E-02  4.62202E+02 -1.00000E+00  9.98316E-02
      21    -1     0     0   502   501  0.000000000E+00  0.000000000E+00  6.910549915E+02  6.910549915E+02  0.000000000E+00  0.00000E+00  9.000E+00
      21    -1     0     0   501   511  0.000000000E+00  0.000000000E+00 -6.990548747E+02  6.990548747E+02  0.000000000E+00  0.00000E+00  9.000E+00
      25     1     1     2     0     0 -1.584263304E+02 -1.409536298E+01  1.059397569E+02  2.283545785E+02  1.250000000E+02  0.00000E+00  9.000E+00
      25     1     1     2     0     0  6.041603808E+02  1.363730507E+02  1.209060670E+02  6.433122505E+02  1.250000000E+02  0.00000E+00  9.000E+00
      21     1     1     2   502   511 -4.457340504E+02 -1.222776877E+02 -2.348457071E+02  5.184430371E+02  6.607249480E-06  0.00000E+00  9.000E+00
#rwgt            2          11   2.6949146267544258E-003           3       79054           0
</event>
<event>
      5   9999  3.19816E-02  5.66759E+01 -1.00000E+00  1.36040E-01
      21    -1     0     0   502   501  0.000000000E+00  0.000000000E+00  1.929318924E+03  1.929318924E+03  0.000000000E+00  0.00000E+00  9.000E+00
      21    -1     0     0   501   512  0.000000000E+00  0.000000000E+00 -3.653390428E+01  3.653390428E+01  0.000000000E+00  0.00000E+00  9.000E+00
      25     1     1     2     0     0 -9.708931475E+00  1.172145840E+02  1.103753585E+03  1.117018576E+03  1.250000000E+02  0.00000E+00  9.000E+00
      25     1     1     2     0     0 -4.548505745E+01 -1.300902589E+02  7.649540080E+02  7.872559941E+02  1.250000000E+02  0.00000E+00  9.000E+00
      21     1     1     2   502   512  5.519398892E+01  1.287567488E+01  2.407742643E+01  6.157825818E+01  1.685873940E-06  0.00000E+00  9.000E+00
#rwgt            1           1   7.0863279407605353E-002           3       79089           0
</event>
<event>
      5   9999  3.19816E-02  2.70469E+02 -1.00000E+00  1.07075E-01
      21    -1     0     0   511   501  0.000000000E+00  0.000000000E+00  4.769532719E+02  4.769532719E+02  0.000000000E+00  0.00000E+00  9.000E+00
      21    -1     0     0   501   502  0.000000000E+00  0.000000000E+00 -2.820678154E+02  2.820678154E+02  0.000000000E+00  0.00000E+00  9.000E+00
      25     1     1     2     0     0 -4.262659047E+01  1.506311328E+02  4.473039152E+01  2.052622038E+02  1.250000000E+02  0.00000E+00  9.000E+00
      25     1     1     2     0     0  1.301680526E+02  1.052785068E+02 -5.293157291E+01  2.155319868E+02  1.250000000E+02  0.00000E+00  9.000E+00
      21     1     1     2   511   502 -8.754146215E+01 -2.559096395E+02  2.030866378E+02  3.382268967E+02  2.697398305E-06  0.00000E+00  9.000E+00
#rwgt            2          11   9.3267759331778256E-003           3       79231           0
</event>
<event>
      5   9999  3.19816E-02  3.15863E+01 -1.00000E+00  1.51502E-01
      21    -1     0     0   502   501  0.000000000E+00  0.000000000E+00  1.215979143E+02  1.215979143E+02  0.000000000E+00  0.00000E+00  9.000E+00
      21    -1     0     0   501   512  0.000000000E+00  0.000000000E+00 -1.013067029E+03  1.013067029E+03  0.000000000E+00  0.00000E+00  9.000E+00
      25     1     1     2     0     0  1.832657004E+02 -1.289023749E+02 -3.221161967E+02  4.118081876E+02  1.250000000E+02  0.00000E+00  9.000E+00
      25     1     1     2     0     0 -1.670030933E+02  1.559803982E+02 -1.465340955E+02  2.988597646E+02  1.250000000E+02  0.00000E+00  9.000E+00
      21     1     1     2   502   512 -1.626260711E+01 -2.707802331E+01 -4.228188228E+02  4.239969914E+02  5.394796609E-06  0.00000E+00  9.000E+00
#rwgt            1           1   2.9992925906145919E-002           3       79266           0
</event>
<event>
      5   9999  3.19816E-02  4.59104E+01 -1.00000E+00  1.41223E-01
      21    -1     0     0   502   501  0.000000000E+00  0.000000000E+00  2.613799971E+02  2.613799971E+02  0.000000000E+00  0.00000E+00  9.000E+00
      21    -1     0     0   501   511  0.000000000E+00  0.000000000E+00 -5.250023323E+02  5.250023323E+02  0.000000000E+00  0.00000E+00  9.000E+00
      25     1     1     2     0     0 -9.714204070E+01 -2.139140172E+02 -3.207173397E+01  2.680473446E+02  1.250000000E+02  0.00000E+00  9.000E+00
      25     1     1     2     0     0  1.368689711E+02  2.369256017E+02 -1.958619823E+01  3.014555940E+02  1.250000000E+02  0.00000E+00  9.000E+00
      21     1     1     2   502   511 -3.972693037E+01 -2.301158449E+01 -2.119644030E+02  2.168793908E+02  2.697398305E-06  0.00000E+00  9.000E+00
#rwgt            1           1   2.7663687634602672E-002           3       79357           0
</event>
<event>
      5   9999  3.19816E-02  2.88695E+02 -1.00000E+00  1.06137E-01
      21    -1     0     0   502   512  0.000000000E+00  0.000000000E+00  2.274255910E+03  2.274255910E+03  0.000000000E+00  0.00000E+00  9.000E+00
      21    -1     0     0   501   502  0.000000000E+00  0.000000000E+00 -5.072621612E+02  5.072621612E+02  0.000000000E+00  0.00000E+00  9.000E+00
      25     1     1     2     0     0  2.383381579E+02 -3.463009639E+02 -2.532122099E+02  5.064295196E+02  1.250000000E+02  0.00000E+00  9.000E+00
      25     1     1     2     0     0 -4.160823826E+02  1.188111886E+02  3.248590031E+02  5.553368523E+02  1.250000000E+02  0.00000E+00  9.000E+00
      21     1     1     2   501   512  1.777442248E+02  2.274897753E+02  1.695346956E+03  1.719751700E+03  0.000000000E+00  0.00000E+00  9.000E+00
#rwgt            1           1   3.0246035990664260E-002           3       79503           0
</event>
<event>
      5   9999  3.19816E-02  1.43722E+02 -1.00000E+00  1.17134E-01
      21    -1     0     0   502   511  0.000000000E+00  0.000000000E+00  1.329507176E+02  1.329507176E+02  0.000000000E+00  0.00000E+00  9.000E+00
      21    -1     0     0   501   502  0.000000000E+00  0.000000000E+00 -8.012796590E+02  8.012796590E+02  0.000000000E+00  0.00000E+00  9.000E+00
      25     1     1     2     0     0  1.911921986E+02  2.233743217E+01 -5.862933166E+02  6.296175591E+02  1.250000000E+02  0.00000E+00  9.000E+00
      25     1     1     2     0     0 -5.211665460E+01 -5.858536074E+01 -2.345325181E+01  1.494103249E+02  1.250000000E+02  0.00000E+00  9.000E+00
      21     1     1     2   501   511 -1.390755440E+02  3.624792857E+01 -5.858237296E+01  1.552024926E+02  3.814697266E-06  0.00000E+00  9.000E+00
#rwgt            2          11   3.0824613025385180E-003           3       79568           0
</event>
<event>
      5   9999  3.19816E-02  1.17862E+02 -1.00000E+00  1.20701E-01
      21    -1     0     0   512   501  0.000000000E+00  0.000000000E+00  4.158641548E+02  4.158641548E+02  0.000000000E+00  0.00000E+00  9.000E+00
      21    -1     0     0   501   502  0.000000000E+00  0.000000000E+00 -5.764937415E+02  5.764937415E+02  0.000000000E+00  0.00000E+00  9.000E+00
      25     1     1     2     0     0 -7.586558066E+01  1.851572201E+02  2.189677812E+02  3.218861160E+02  1.250000000E+02  0.00000E+00  9.000E+00
      25     1     1     2     0     0 -1.083973792E+01 -2.649928304E+02 -4.470903230E+02  5.346526508E+02  1.250000000E+02  0.00000E+00  9.000E+00
      21     1     1     2   512   502  8.670531858E+01  7.983561027E+01  6.749295523E+01  1.358191295E+02  1.907348633E-06  0.00000E+00  9.000E+00
#rwgt            2          11   3.8333439100452062E-003           3       79603           0
</event>
<event>
      5   9999  3.19816E-02  9.10026E+01 -1.00000E+00  1.25698E-01
      21    -1     0     0   502   501  0.000000000E+00  0.000000000E+00  6.417781310E+02  6.417781310E+02  0.000000000E+00  0.00000E+00  9.000E+00
      21    -1     0     0   511   502  0.000000000E+00  0.000000000E+00 -9.843740976E+02  9.843740976E+02  0.000000000E+00  0.00000E+00  9.000E+00
      25     1     1     2     0     0  4.391266128E+02  5.063130595E+01 -2.832150781E+02  5.396586807E+02  1.250000000E+02  0.00000E+00  9.000E+00
      25     1     1     2     0     0 -5.214966924E+02 -8.931769717E+01  3.634666066E+02  6.539643915E+02  1.250000000E+02  0.00000E+00  9.000E+00
      21     1     1     2   511   501  8.237007969E+01  3.868639122E+01 -4.228474952E+02  4.325291563E+02  0.000000000E+00  0.00000E+00  9.000E+00
#rwgt            1           1   2.9461483498719979E-002           3       79623           0
</event>
<event>
      5   9999  3.19816E-02  1.25724E+02 -1.00000E+00  1.19516E-01
      21    -1     0     0   502   501  0.000000000E+00  0.000000000E+00  6.285229881E+02  6.285229881E+02  0.000000000E+00  0.00000E+00  9.000E+00
      21    -1     0     0   501   512  0.000000000E+00  0.000000000E+00 -2.084018148E+02  2.084018148E+02  0.000000000E+00  0.00000E+00  9.000E+00
      25     1     1     2     0     0 -2.604450855E+02  6.640992652E-01  3.149997889E+01  2.906016728E+02  1.250000000E+02  0.00000E+00  9.000E+00
      25     1     1     2     0     0  1.439956098E+02 -4.805551529E+01  3.702959835E+02  4.192710145E+02  1.250000000E+02  0.00000E+00  9.000E+00
      21     1     1     2   502   512  1.164494757E+02  4.739141602E+01  1.832521084E+01  1.270521155E+02  2.545613826E-06  0.00000E+00  9.000E+00
#rwgt            1           1   3.2014384655599790E-002           3       79771           0
</event>
<event>
      5   9999  3.19816E-02  9.56004E+01 -1.00000E+00  1.24713E-01
      21    -1     0     0   502   511  0.000000000E+00  0.000000000E+00  2.711999967E+03  2.711999967E+03  0.000000000E+00  0.00000E+00  9.000E+00
      21    -1     0     0   501   502  0.000000000E+00  0.000000000E+00 -4.527971708E+01  4.527971708E+01  0.000000000E+00  0.00000E+00  9.000E+00
      25     1     1     2     0     0 -2.097244399E+02 -3.759995184E+01  4.796402740E+02  5.395163478E+02  1.250000000E+02  0.00000E+00  9.000E+00
      25     1     1     2     0     0  1.911839060E+02  1.313852349E+02  1.792596301E+03  1.811860885E+03  1.250000000E+02  0.00000E+00  9.000E+00
      21     1     1     2   501   511  1.854053393E+01 -9.378528301E+01  3.944836744E+02  4.059024515E+02  0.000000000E+00  0.00000E+00  9.000E+00
#rwgt            1           1   9.3267610333217010E-002           3       79852           0
</event>
<event>
      5   9999  3.19816E-02  7.19537E+01 -1.00000E+00  1.30618E-01
      21    -1     0     0   502   501  0.000000000E+00  0.000000000E+00  2.397472169E+02  2.397472169E+02  0.000000000E+00  0.00000E+00  9.000E+00
      21    -1     0     0   512   502  0.000000000E+00  0.000000000E+00 -2.014991359E+03  2.014991359E+03  0.000000000E+00  0.00000E+00  9.000E+00
      25     1     1     2     0     0 -1.737637889E+02  2.760565345E+02  4.314335918E+01  3.519764396E+02  1.250000000E+02  0.00000E+00  9.000E+00
      25     1     1     2     0     0  1.078437577E+02 -2.472140209E+02 -4.948848194E+02  5.773049737E+02  1.250000000E+02  0.00000E+00  9.000E+00
      21     1     1     2   512   501  6.592003122E+01 -2.884251357E+01 -1.323502681E+03  1.325457162E+03  2.642899792E-05  0.00000E+00  9.000E+00
#rwgt            1           1   2.5612855575195839E-002           3       79908           0
</event>
<event>
      5   9999  3.19816E-02  1.43415E+02 -1.00000E+00  1.17172E-01
       1    -1     0     0   502     0  0.000000000E+00  0.000000000E+00  1.386955651E+03  1.386955651E+03  0.000000000E+00  0.00000E+00  9.000E+00
      21    -1     0     0   501   502  0.000000000E+00  0.000000000E+00 -8.813437523E+02  8.813437523E+02  0.000000000E+00  0.00000E+00  9.000E+00
      25     1     1     2     0     0  8.201455732E+01  2.800514003E+02  4.566822199E+01  3.207269257E+02  1.250000000E+02  0.00000E+00  9.000E+00
      25     1     1     2     0     0  5.926037352E+01 -2.553709154E+02 -7.109205736E+02  7.679577841E+02  1.250000000E+02  0.00000E+00  9.000E+00
       1     1     1     2   501     0 -1.412749308E+02 -2.468048482E+01  1.170864251E+03  1.179614694E+03  2.157918644E-05  0.00000E+00  9.000E+00
#rwgt            1           1   3.1208684010334446E-002           3       80029           0
</event>
<event>
      5   9999  3.19816E-02  8.17836E+01 -1.00000E+00  1.27888E-01
       2    -1     0     0   502     0  0.000000000E+00  0.000000000E+00  1.294707072E+02  1.294707072E+02  0.000000000E+00  0.00000E+00  9.000E+00
      21    -1     0     0   501   502  0.000000000E+00  0.000000000E+00 -6.846465032E+02  6.846465032E+02  0.000000000E+00  0.00000E+00  9.000E+00
      25     1     1     2     0     0  9.337219156E+01  1.072991696E+02 -1.996038962E+02  2.751330466E+02  1.250000000E+02  0.00000E+00  9.000E+00
      25     1     1     2     0     0 -1.019690660E+02 -1.886296826E+02 -3.797805893E+02  4.536927854E+02  1.250000000E+02  0.00000E+00  9.000E+00
       2     1     1     2   501     0  8.596874423E+00  8.133051299E+01  2.420868934E+01  8.529137842E+01  1.815741803E-06  0.00000E+00  9.000E+00
#rwgt            1           1   2.5019865521654899E-002           3       80145           0
</event>
<event>
      5   9999  3.19816E-02  5.64433E+01 -1.00000E+00  1.36137E-01
      21    -1     0     0   502   501  0.000000000E+00  0.000000000E+00  1.660432758E+03  1.660432758E+03  0.000000000E+00  0.00000E+00  9.000E+00
      21    -1     0     0   501   511  0.000000000E+00  0.000000000E+00 -3.922561407E+02  3.922561407E+02  0.000000000E+00  0.00000E+00  9.000E+00
      25     1     1     2     0     0 -1.069180379E+02  1.125427367E+02  5.046341090E+02  5.425660498E+02  1.250000000E+02  0.00000E+00  9.000E+00
      25     1     1     2     0     0  1.262740620E+02 -5.952204021E+01  1.126917392E+03  1.142390398E+03  1.250000000E+02  0.00000E+00  9.000E+00
      21     1     1     2   502   511 -1.935602409E+01 -5.302069651E+01 -3.633748836E+02  3.677324516E+02  5.394796609E-06  0.00000E+00  9.000E+00
#rwgt            1           1   3.3572044718684961E-002           3       80191           0
</event>
<event>
      5   9999  3.19816E-02  5.19466E+01 -1.00000E+00  1.38136E-01
      21    -1     0     0   512   501  0.000000000E+00  0.000000000E+00  1.089797693E+02  1.089797693E+02  0.000000000E+00  0.00000E+00  9.000E+00
      21    -1     0     0   501   502  0.000000000E+00  0.000000000E+00 -1.149310249E+03  1.149310249E+03  0.000000000E+00  0.00000E+00  9.000E+00
      25     1     1     2     0     0  1.954304742E+02  5.002543215E+01 -7.920554542E+02  8.268448807E+02  1.250000000E+02  0.00000E+00  9.000E+00
      25     1     1     2     0     0 -2.375437956E+02 -8.043784496E+01 -2.552347568E+02  3.790344085E+02  1.250000000E+02  0.00000E+00  9.000E+00
      21     1     1     2   512   502  4.211332141E+01  3.041241281E+01  6.959731128E+00  5.241072935E+01  1.505533569E-06  0.00000E+00  9.000E+00
#rwgt            1           1   2.7649871096488754E-002           3       80270           0
</event>
<event>
      5   9999  3.19816E-02  3.20551E+01 -1.00000E+00  1.51068E-01
      21    -1     0     0   502   511  0.000000000E+00  0.000000000E+00  4.150557302E+02  4.150557302E+02  0.000000000E+00  0.00000E+00  9.000E+00
      21    -1     0     0   501   502  0.000000000E+00  0.000000000E+00 -2.729531054E+02  2.729531054E+02  0.000000000E+00  0.00000E+00  9.000E+00
      25     1     1     2     0     0 -1.985644804E+02  1.875521044E+02  1.174343665E+02  3.225205035E+02  1.250000000E+02  0.00000E+00  9.000E+00
      25     1     1     2     0     0  1.885503741E+02 -2.180028240E+02 -1.495342436E+01  3.145235758E+02  1.250000000E+02  0.00000E+00  9.000E+00
      21     1     1     2   501   511  1.001410630E+01  3.045071960E+01  3.962168264E+01  5.096475630E+01  9.536743164E-07  0.00000E+00  9.000E+00
#rwgt            1           1   2.8321439883877201E-002           3       80395           0
</event>
<event>
      5   9999  3.19816E-02  1.99338E+02 -1.00000E+00  1.11701E-01
      21    -1     0     0   502   512  0.000000000E+00  0.000000000E+00  1.402217270E+03  1.402217270E+03  0.000000000E+00  0.00000E+00  9.000E+00
      21    -1     0     0   501   502  0.000000000E+00  0.000000000E+00 -7.402871588E+02  7.402871588E+02  0.000000000E+00  0.00000E+00  9.000E+00
      25     1     1     2     0     0  2.606007603E+02  5.636979912E+02  5.096902179E+02  8.130666023E+02  1.250000000E+02  0.00000E+00  9.000E+00
      25     1     1     2     0     0 -3.764401988E+02 -7.259222629E+02 -2.636694379E+02  8.682263113E+02  1.250000000E+02  0.00000E+00  9.000E+00
      21     1     1     2   501   512  1.158394385E+02  1.622242717E+02  4.159093309E+02  4.612115148E+02  5.394796609E-06  0.00000E+00  9.000E+00
#rwgt            1           1   3.1879253006767666E-002           3       80529           0
</event>
<event>
      5   9999  3.19816E-02  1.77417E+01 -1.00000E+00  1.70780E-01
       2    -1     0     0   502     0  0.000000000E+00  0.000000000E+00  2.523989777E+03  2.523989777E+03  0.000000000E+00  0.00000E+00  9.000E+00
      21    -1     0     0   501   502  0.000000000E+00  0.000000000E+00 -6.860981149E+01  6.860981149E+01  0.000000000E+00  0.00000E+00  9.000E+00
      25     1     1     2     0     0  3.800730894E+01 -1.326367876E+02  7.244857911E+01  1.997770497E+02  1.250000000E+02  0.00000E+00  9.000E+00
      25     1     1     2     0     0 -5.281086503E+01  1.424154925E+02  2.049270958E+03  2.058690753E+03  1.250000000E+02  0.00000E+00  9.000E+00
       2     1     1     2   501     0  1.480355609E+01 -9.778704867E+00  3.336604287E+02  3.341317854E+02  3.814697266E-06  0.00000E+00  9.000E+00
#rwgt            1           1   2.7182713901547247E-002           3       80613           0
</event>
<event>
      5   9999  3.19816E-02  9.62579E+01 -1.00000E+00  1.24578E-01
      21    -1     0     0   502   501  0.000000000E+00  0.000000000E+00  3.751542010E+02  3.751542010E+02  0.000000000E+00  0.00000E+00  9.000E+00
      -1    -1     0     0     0   502  0.000000000E+00  0.000000000E+00 -7.974691388E+02  7.974691388E+02  0.000000000E+00  0.00000E+00  9.000E+00
      25     1     1     2     0     0 -2.275109808E+02 -6.249445371E+01  4.775232110E+01  2.712417507E+02  1.250000000E+02  0.00000E+00  9.000E+00
      25     1     1     2     0     0  1.470141156E+02  1.152754274E+02  1.523624810E+02  2.715527572E+02  1.250000000E+02  0.00000E+00  9.000E+00
      -1     1     1     2     0   501  8.049686525E+01 -5.278097368E+01 -6.224297399E+02  6.298288320E+02  0.000000000E+00  0.00000E+00  9.000E+00
#rwgt            1           1   3.4369525469927005E-002           3       80830           0
</event>
<event>
      5   9999  3.19816E-02  4.77014E+01 -1.00000E+00  1.40252E-01
      21    -1     0     0   511   501  0.000000000E+00  0.000000000E+00  1.054940880E+03  1.054940880E+03  0.000000000E+00  0.00000E+00  9.000E+00
      21    -1     0     0   501   502  0.000000000E+00  0.000000000E+00 -1.213400800E+03  1.213400800E+03  0.000000000E+00  0.00000E+00  9.000E+00
      25     1     1     2     0     0  2.001706321E+02 -7.025512661E+02  7.466998367E+02  1.052060934E+03  1.250000000E+02  0.00000E+00  9.000E+00
      25     1     1     2     0     0 -1.543094929E+02  6.894297071E+02 -9.196683913E+02  1.166421746E+03  1.250000000E+02  0.00000E+00  9.000E+00
      21     1     1     2   511   502 -4.586113924E+01  1.312155897E+01  1.450863451E+01  4.985899996E+01  5.057621821E-07  0.00000E+00  9.000E+00
#rwgt            1           1   3.1534547724723319E-002           3       80882           0
</event>
<event>
      5   9999  3.19816E-02  4.40697E+01 -1.00000E+00  1.42278E-01
       2    -1     0     0   502     0  0.000000000E+00  0.000000000E+00  5.599868637E+01  5.599868637E+01  0.000000000E+00  0.00000E+00  9.000E+00
      21    -1     0     0   501   502  0.000000000E+00  0.000000000E+00 -1.149560295E+03  1.149560295E+03  0.000000000E+00  0.00000E+00  9.000E+00
      25     1     1     2     0     0 -6.793295966E+01 -5.214170521E+01 -9.878256224E+02  9.993788595E+02  1.250000000E+02  0.00000E+00  9.000E+00
      25     1     1     2     0     0  2.721825326E+01  3.527599581E+01 -8.385444823E+01  1.569770610E+02  1.250000000E+02  0.00000E+00  9.000E+00
       2     1     1     2   501     0  4.071470640E+01  1.686570940E+01 -2.188153749E+01  4.920306041E+01  8.259061849E-07  0.00000E+00  9.000E+00
#rwgt            1           1   2.5754038614885188E-002           3       81093           0
</event>
<event>
      5   9999  3.19816E-02  4.04250E+01 -1.00000E+00  1.44556E-01
      21    -1     0     0   511   501  0.000000000E+00  0.000000000E+00  1.027055641E+02  1.027055641E+02  0.000000000E+00  0.00000E+00  9.000E+00
      21    -1     0     0   501   502  0.000000000E+00  0.000000000E+00 -1.777972978E+03  1.777972978E+03  0.000000000E+00  0.00000E+00  9.000E+00
      25     1     1     2     0     0 -2.482565677E+02  1.674247965E+02 -1.283258677E+03  1.323646561E+03  1.250000000E+02  0.00000E+00  9.000E+00
      25     1     1     2     0     0  2.880277563E+02 -1.601839910E+02 -3.289788028E+02  4.821524159E+02  1.250000000E+02  0.00000E+00  9.000E+00
      21     1     1     2   511   502 -3.977118865E+01 -7.240805505E+00 -6.302993371E+01  7.487956500E+01  6.743495762E-07  0.00000E+00  9.000E+00
#rwgt            1           1   3.0568473219921809E-002           3       81200           0
</event>
<event>
      5   9999  3.19816E-02  7.26103E+01 -1.00000E+00  1.30420E-01
       1    -1     0     0   502     0  0.000000000E+00  0.000000000E+00  5.157000168E+02  5.157000168E+02  0.000000000E+00  0.00000E+00  9.000E+00
      21    -1     0     0   501   502  0.000000000E+00  0.000000000E+00 -9.306529322E+02  9.306529322E+02  0.000000000E+00  0.00000E+00  9.000E+00
      25     1     1     2     0     0 -1.882086826E+02 -2.122487523E+02 -2.476001176E+02  3.967402920E+02  1.250000000E+02  0.00000E+00  9.000E+00
      25     1     1     2     0     0  2.018521078E+02  2.835657023E+02 -5.485408124E+02  6.615707096E+02  1.250000000E+02  0.00000E+00  9.000E+00
       1     1     1     2   501     0 -1.364342522E+01 -7.131694996E+01  3.811880147E+02  3.880419474E+02  5.394796609E-06  0.00000E+00  9.000E+00
#rwgt            1           1   2.6572015312167022E-002           3       81309           0
</event>
<event>
      5   9999  3.19816E-02  6.19842E+01 -1.00000E+00  1.33953E-01
      21    -1     0     0   502   501  0.000000000E+00  0.000000000E+00  5.891338393E+02  5.891338393E+02  0.000000000E+00  0.00000E+00  9.000E+00
      21    -1     0     0   501   511  0.000000000E+00  0.000000000E+00 -2.061017925E+02  2.061017925E+02  0.000000000E+00  0.00000E+00  9.000E+00
      25     1     1     2     0     0  1.615859995E+02 -2.054865672E+01 -9.319813651E+01  2.254843125E+02  1.250000000E+02  0.00000E+00  9.000E+00
      25     1     1     2     0     0 -1.111840199E+02 -1.553011511E+01  4.790951953E+02  5.077009720E+02  1.250000000E+02  0.00000E+00  9.000E+00
      21     1     1     2   502   511 -5.040197954E+01  3.607877182E+01 -2.865012049E+00  6.205034740E+01  1.103893469E-06  0.00000E+00  9.000E+00
#rwgt            1           1   2.7790257637899576E-002           3       81373           0
</event>
<event>
      5   9999  3.51724E-02  2.70158E+01 -1.00000E+00  1.56269E-01
      21    -1     0     0   502   512  0.000000000E+00  0.000000000E+00  1.181244298E+03  1.181244298E+03  0.000000000E+00  0.00000E+00  9.000E+00
      21    -1     0     0   501   502  0.000000000E+00  0.000000000E+00 -1.172326863E+03  1.172326863E+03  0.000000000E+00  0.00000E+00  9.000E+00
      25     1     1     2     0     0 -1.161684346E+02 -3.659951723E+02 -5.044043134E+02  6.461395226E+02  1.250000000E+02  0.00000E+00  9.000E+00
      25     1     1     2     0     0  9.353234712E+01  3.512486828E+02 -5.349971637E+02  6.587646790E+02  1.250000000E+02  0.00000E+00  9.000E+00
      21     1     1     2   501   512  2.263608744E+01  1.474648953E+01  1.048318912E+03  1.048666960E+03  1.525878906E-05  0.00000E+00  9.000E+00
#rwgt            1           1   3.5048100820730177E-002           3       81503           0
</event>
<event>
      5   9999  3.19816E-02  1.41204E+02 -1.00000E+00  1.17443E-01
      21    -1     0     0   502   501  0.000000000E+00  0.000000000E+00  7.082520488E+02  7.082520488E+02  0.000000000E+00  0.00000E+00  9.000E+00
      21    -1     0     0   501   511  0.000000000E+00  0.000000000E+00 -1.306450478E+02  1.306450478E+02  0.000000000E+00  0.00000E+00  9.000E+00
      25     1     1     2     0     0 -1.657600297E+02 -9.830332481E+01  4.742298329E+02  5.269334546E+02  1.250000000E+02  0.00000E+00  9.000E+00
      25     1     1     2     0     0  2.565944216E+01  8.068218447E+01  7.224079447E+01  1.673671242E+02  1.250000000E+02  0.00000E+00  9.000E+00
      21     1     1     2   502   511  1.401005876E+02  1.762114034E+01  3.113637362E+01  1.445965179E+02  3.371747881E-07  0.00000E+00  9.000E+00
#rwgt            1           1   2.7314039633279517E-002           3       81706           0
</event>
<event>
      5   9999  3.19816E-02  1.23135E+02 -1.00000E+00  1.19895E-01
      21    -1     0     0   502   501  0.000000000E+00  0.000000000E+00  1.272577345E+03  1.272577345E+03  0.000000000E+00  0.00000E+00  9.000E+00
      21    -1     0     0   501   512  0.000000000E+00  0.000000000E+00 -1.860821861E+02  1.860821861E+02  0.000000000E+00  0.00000E+00  9.000E+00
      25     1     1     2     0     0 -9.368820965E+00  1.634902647E+02  6.141313583E+02  6.477647464E+02  1.250000000E+02  0.00000E+00  9.000E+00
      25     1     1     2     0     0 -1.133794999E+02 -1.732462246E+02  5.918231705E+02  6.393346780E+02  1.250000000E+02  0.00000E+00  9.000E+00
      21     1     1     2   502   512  1.227483209E+02  9.755959922E+00 -1.194593701E+02  1.715601065E+02  3.814697266E-06  0.00000E+00  9.000E+00
#rwgt            1           1   2.8620986400287825E-002           3       81748           0
</event>
<event>
      5   9999  3.19816E-02  1.25931E+02 -1.00000E+00  1.19486E-01
      21    -1     0     0   511   501  0.000000000E+00  0.000000000E+00  1.834617245E+03  1.834617245E+03  0.000000000E+00  0.00000E+00  9.000E+00
      21    -1     0     0   501   502  0.000000000E+00  0.000000000E+00 -6.218622538E+02  6.218622538E+02  0.000000000E+00  0.00000E+00  9.000E+00
      25     1     1     2     0     0  4.967735882E+01  8.644489147E+02  8.100200547E+02  1.192265598E+03  1.250000000E+02  0.00000E+00  9.000E+00
      25     1     1     2     0     0 -1.707623242E+02 -8.990472323E+02  9.110448456E+01  9.281006003E+02  1.250000000E+02  0.00000E+00  9.000E+00
      21     1     1     2   511   502  1.210849654E+02  3.459831758E+01  3.116304516E+02  3.361133005E+02  5.394796609E-06  0.00000E+00  9.000E+00
#rwgt            1           1   3.7099480588175977E-002           3       81788           0
</event>
<event>
      5   9999  3.19816E-02  2.89381E+02 -1.00000E+00  1.06103E-01
      21    -1     0     0   502   501  0.000000000E+00  0.000000000E+00  6.218094491E+02  6.218094491E+02  0.000000000E+00  0.00000E+00  9.000E+00
      21    -1     0     0   512   502  0.000000000E+00  0.000000000E+00 -3.524191151E+02  3.524191151E+02  0.000000000E+00  0.00000E+00  9.000E+00
      25     1     1     2     0     0  5.430526041E+01 -2.510461122E+02  3.286227385E+02  4.354206196E+02  1.250000000E+02  0.00000E+00  9.000E+00
      25     1     1     2     0     0 -1.122317017E+02 -3.247768017E+01  1.101578767E+02  2.034957306E+02  1.250000000E+02  0.00000E+00  9.000E+00
      21     1     1     2   512   501  5.792644129E+01  2.835237924E+02 -1.693902813E+02  3.353122140E+02  4.672030912E-06  0.00000E+00  9.000E+00
#rwgt            2          11   7.5369124816573293E-003           3       81895           0
</event>
<event>
      5   9999  3.19816E-02  1.93486E+01 -1.00000E+00  1.67564E-01
      21    -1     0     0   502   501  0.000000000E+00  0.000000000E+00  6.534905040E+02  6.534905040E+02  0.000000000E+00  0.00000E+00  9.000E+00
      21    -1     0     0   511   502  0.000000000E+00  0.000000000E+00 -1.664605168E+03  1.664605168E+03  0.000000000E+00  0.00000E+00  9.000E+00
      25     1     1     2     0     0  7.237736345E+02 -2.236411563E+01 -8.186874455E+02  1.100101159E+03  1.250000000E+02  0.00000E+00  9.000E+00
      25     1     1     2     0     0 -7.402294588E+02  3.254129991E+01  2.371751698E+02  7.879566289E+02  1.250000000E+02  0.00000E+00  9.000E+00
      21     1     1     2   511   501  1.645582425E+01 -1.017718428E+01 -4.296023882E+02  4.300378835E+02  0.000000000E+00  0.00000E+00  9.000E+00
#rwgt            1           1   3.4168842263728121E-002           3       81915           0
</event>
<event>
      5   9999  3.19816E-02  1.79763E+01 -1.00000E+00  1.70285E-01
      21    -1     0     0   502   501  0.000000000E+00  0.000000000E+00  9.661609260E+02  9.661609260E+02  0.000000000E+00  0.00000E+00  9.000E+00
       1    -1     0     0   501     0  0.000000000E+00  0.000000000E+00 -2.643719573E+02  2.643719573E+02  0.000000000E+00  0.00000E+00  9.000E+00
      25     1     1     2     0     0  2.425414963E+01  1.981325730E+02  4.785105226E+02  5.333311359E+02  1.250000000E+02  0.00000E+00  9.000E+00
      25     1     1     2     0     0 -2.288306707E+01 -1.802086185E+02  4.334221382E+02  4.862905827E+02  1.250000000E+02  0.00000E+00  9.000E+00
       1     1     1     2   502     0 -1.371082561E+00 -1.792395446E+01 -2.101436922E+02  2.109111646E+02  3.814697266E-06  0.00000E+00  9.000E+00
#rwgt            1           1   3.4463265121268745E-002           3       82169           0
</event>
<event>
      5   9999  3.19816E-02  2.16840E+02 -1.00000E+00  1.10385E-01
      21    -1     0     0   502   501  0.000000000E+00  0.000000000E+00  4.758983473E+02  4.758983473E+02  0.000000000E+00  0.00000E+00  9.000E+00
       2    -1     0     0   501     0  0.000000000E+00  0.000000000E+00 -6.583308020E+02  6.583308020E+02  0.000000000E+00  0.00000E+00  9.000E+00
      25     1     1     2     0     0 -1.549926954E+02 -4.589082172E+02  8.358779325E+01  5.071798563E+02  1.250000000E+02  0.00000E+00  9.000E+00
      25     1     1     2     0     0  8.099105344E+01  2.550860370E+02 -1.560641062E+01  2.957989132E+02  1.250000000E+02  0.00000E+00  9.000E+00
       2     1     1     2   502     0  7.400164192E+01  2.038221803E+02 -2.504138374E+02  3.312503798E+02  4.672030912E-06  0.00000E+00  9.000E+00
#rwgt            1           1   2.7394523318354541E-002           3       82261           0
</event>
<event>
      5   9999  3.19816E-02  1.10193E+02 -1.00000E+00  1.21961E-01
      21    -1     0     0   502   501  0.000000000E+00  0.000000000E+00  3.190052583E+02  3.190052583E+02  0.000000000E+00  0.00000E+00  9.000E+00
      21    -1     0     0   501   511  0.000000000E+00  0.000000000E+00 -2.093171845E+02  2.093171845E+02  0.000000000E+00  0.00000E+00  9.000E+00
      25     1     1     2     0     0 -1.166521041E+02 -1.266881309E+02 -4.631751057E+00  2.128474783E+02  1.250000000E+02  0.00000E+00  9.000E+00
      25     1     1     2     0     0  6.597725117E+00  1.211619418E+02  1.082773487E+02  2.051163825E+02  1.250000000E+02  0.00000E+00  9.000E+00
      21     1     1     2   502   511  1.100543790E+02  5.526189120E+00  6.042476072E+00  1.103585820E+02  1.372201971E-06  0.00000E+00  9.000E+00
#rwgt            1           1   2.9533226836586064E-002           3       82300           0
</event>
<event>
      5   9999  3.19816E-02  4.14672E+01 -1.00000E+00  1.43877E-01
      21    -1     0     0   502   512  0.000000000E+00  0.000000000E+00  2.951871488E+02  2.951871488E+02  0.000000000E+00  0.00000E+00  9.000E+00
      21    -1     0     0   501   502  0.000000000E+00  0.000000000E+00 -1.120834433E+03  1.120834433E+03  0.000000000E+00  0.00000E+00  9.000E+00
      25     1     1     2     0     0 -2.027517605E+02  4.335471367E+02 -7.557031846E+02  9.032074508E+02  1.250000000E+02  0.00000E+00  9.000E+00
      25     1     1     2     0     0  2.146227182E+02 -3.938154672E+02 -7.278575383E+01  4.712497208E+02  1.250000000E+02  0.00000E+00  9.000E+00
      21     1     1     2   501   512 -1.187095777E+01 -3.973166950E+01  2.841654248E+00  4.156441024E+01  7.974557972E-07  0.00000E+00  9.000E+00
#rwgt            1           1   3.4234425650429105E-002           3       82352           0
</event>
<event>
      5   9999  3.19816E-02  7.34484E+02 -1.00000E+00  9.43281E-02
      21    -1     0     0   511   501  0.000000000E+00  0.000000000E+00  5.331335375E+02  5.331335375E+02  0.000000000E+00  0.00000E+00  9.000E+00
      21    -1     0     0   501   502  0.000000000E+00  0.000000000E+00 -1.924464538E+03  1.924464538E+03  0.000000000E+00  0.00000E+00  9.000E+00
      25     1     1     2     0     0  6.797518317E+02  1.046521761E+01 -9.508807954E+02  1.175572780E+03  1.250000000E+02  0.00000E+00  9.000E+00
      25     1     1     2     0     0 -8.396809870E+01  4.190791186E+02 -4.427806787E+01  4.475080966E+02  1.250000000E+02  0.00000E+00  9.000E+00
      21     1     1     2   511   502 -5.957837330E+02 -4.295443362E+02 -3.961721374E+02  8.345171992E+02  1.206313194E-05  0.00000E+00  9.000E+00
#rwgt            2          11   1.3248672098165775E-003           3       82489           0
</event>
<event>
      5   9999  3.19816E-02  1.28597E+02 -1.00000E+00  1.19106E-01
       2    -1     0     0   502     0  0.000000000E+00  0.000000000E+00  2.128787402E+03  2.128787402E+03  0.000000000E+00  0.00000E+00  9.000E+00
      21    -1     0     0   501   502  0.000000000E+00  0.000000000E+00 -1.114042697E+02  1.114042697E+02  0.000000000E+00  0.00000E+00  9.000E+00
      25     1     1     2     0     0  2.660977440E+02 -9.101509587E+01  1.148439287E+03  1.188961544E+03  1.250000000E+02  0.00000E+00  9.000E+00
      25     1     1     2     0     0 -1.861955369E+02 -9.746757751E+00  6.031059020E+01  2.324352481E+02  1.250000000E+02  0.00000E+00  9.000E+00
       2     1     1     2   501     0 -7.990220709E+01  1.007618536E+02  8.086332559E+02  8.187948806E+02  0.000000000E+00  0.00000E+00  9.000E+00
#rwgt            1           1   2.7805859897540971E-002           3       82509           0
</event>
<event>
      5   9999  3.19816E-02  1.57139E+02 -1.00000E+00  1.15599E-01
       1    -1     0     0   502     0  0.000000000E+00  0.000000000E+00  2.574015384E+02  2.574015384E+02  0.000000000E+00  0.00000E+00  9.000E+00
      21    -1     0     0   501   502  0.000000000E+00  0.000000000E+00 -7.908086298E+02  7.908086298E+02  0.000000000E+00  0.00000E+00  9.000E+00
      25     1     1     2     0     0  7.948577360E+01  5.723723350E+01 -7.367971133E+01  1.750650992E+02  1.250000000E+02  0.00000E+00  9.000E+00
      25     1     1     2     0     0 -2.619631096E-01 -1.929433242E+02 -6.123526861E+02  6.540856268E+02  1.250000000E+02  0.00000E+00  9.000E+00
       1     1     1     2   501     0 -7.922381049E+01  1.357060907E+02  1.526253060E+02  2.190594423E+02  0.000000000E+00  0.00000E+00  9.000E+00
#rwgt            1           1   2.5460620860638085E-002           3       82560           0
</event>
<event>
      5   9999  3.19816E-02  7.46421E+01 -1.00000E+00  1.29824E-01
      21    -1     0     0   511   501  0.000000000E+00  0.000000000E+00  2.067702084E+02  2.067702084E+02  0.000000000E+00  0.00000E+00  9.000E+00
      21    -1     0     0   501   502  0.000000000E+00  0.000000000E+00 -1.040537002E+03  1.040537002E+03  0.000000000E+00  0.00000E+00  9.000E+00
      25     1     1     2     0     0  1.618610486E+02  3.861130916E+02 -5.640894754E+02  7.135154202E+02  1.250000000E+02  0.00000E+00  9.000E+00
      25     1     1     2     0     0 -1.120242977E+02 -3.305456986E+02 -2.708776683E+02  4.591400803E+02  1.250000000E+02  0.00000E+00  9.000E+00
      21     1     1     2   511   502 -4.983675089E+01 -5.556739298E+01  1.200350464E+00  7.465170958E+01  1.395627198E-06  0.00000E+00  9.000E+00
#rwgt            1           1   2.8789997120077369E-002           3       82595           0
</event>
<event>
      5   9999  3.19816E-02  1.21675E+02 -1.00000E+00  1.20113E-01
       2    -1     0     0   502     0  0.000000000E+00  0.000000000E+00  2.012778781E+03  2.012778781E+03  0.000000000E+00  0.00000E+00  9.000E+00
      21    -1     0     0   501   502  0.000000000E+00  0.000000000E+00 -4.347085597E+02  4.347085597E+02  0.000000000E+00  0.00000E+00  9.000E+00
      25     1     1     2     0     0  8.500085996E+01 -4.339166205E+02  3.481067498E+02  5.764651672E+02  1.250000000E+02  0.00000E+00  9.000E+00
      25     1     1     2     0     0  3.138355379E+01  3.984292014E+02 -1.800115678E+02  4.558068895E+02  1.250000000E+02  0.00000E+00  9.000E+00
       2     1     1     2   501     0 -1.163844138E+02  3.548741909E+01  1.409975039E+03  1.415215284E+03  2.157918644E-05  0.00000E+00  9.000E+00
#rwgt            1           1   2.5335895911331192E-002           3       82669           0
</event>
<event>
      5   9999  3.19816E-02  3.78665E+02 -1.00000E+00  1.02407E-01
       2    -1     0     0   502     0  0.000000000E+00  0.000000000E+00  1.215369745E+03  1.215369745E+03  0.000000000E+00  0.00000E+00  9.000E+00
      21    -1     0     0   501   502  0.000000000E+00  0.000000000E+00 -6.829897687E+02  6.829897687E+02  0.000000000E+00  0.00000E+00  9.000E+00
      25     1     1     2     0     0 -6.802641103E+00 -5.966279165E+02 -5.866911908E+01  6.124362923E+02  1.250000000E+02  0.00000E+00  9.000E+00
      25     1     1     2     0     0  1.541560114E+02  2.478097419E+02 -2.230904591E+02  3.880310516E+02  1.250000000E+02  0.00000E+00  9.000E+00
       2     1     1     2   501     0 -1.473533703E+02  3.488181745E+02  8.141395548E+02  8.978921702E+02  1.525878906E-05  0.00000E+00  9.000E+00
#rwgt            1           1   2.8942810757848565E-002           3       82750           0
</event>
<event>
      5   9999  3.19816E-02  6.14133E+01 -1.00000E+00  1.34165E-01
      21    -1     0     0   502   501  0.000000000E+00  0.000000000E+00  9.180287164E+01  9.180287164E+01  0.000000000E+00  0.00000E+00  9.000E+00
      21    -1     0     0   501   511  0.000000000E+00  0.000000000E+00 -4.137874207E+03  4.137874207E+03  0.000000000E+00  0.00000E+00  9.000E+00
      25     1     1     2     0     0  1.416718158E+02  5.998418386E+01 -2.197547791E+01  1.994415386E+02  1.250000000E+02  0.00000E+00  9.000E+00
      25     1     1     2     0     0 -8.442244477E+01 -3.775580302E+01 -2.439797961E+03  2.444747786E+03  1.250000000E+02  0.00000E+00  9.000E+00
      21     1     1     2   502   511 -5.724937100E+01 -2.222838084E+01 -1.584297896E+03  1.585487753E+03  2.157918644E-05  0.00000E+00  9.000E+00
#rwgt            1           1   9.5496081323649479E-002           3       82787           0
</event>
<event>
      5   9999  3.19816E-02  2.69927E+02 -1.00000E+00  1.07104E-01
      21    -1     0     0   502   512  0.000000000E+00  0.000000000E+00  1.305672170E+03  1.305672170E+03  0.000000000E+00  0.00000E+00  9.000E+00
      21    -1     0     0   501   502  0.000000000E+00  0.000000000E+00 -1.398005606E+02  1.398005606E+02  0.000000000E+00  0.00000E+00  9.000E+00
      25     1     1     2     0     0 -6.991938404E+01 -6.665087002E+01  8.272920889E+00  1.581913397E+02  1.250000000E+02  0.00000E+00  9.000E+00
      25     1     1     2     0     0  2.637420338E+01 -1.997408524E+02  2.689424810E+02  3.585346075E+02  1.250000000E+02  0.00000E+00  9.000E+00
      21     1     1     2   501   512  4.354518066E+01  2.663917224E+02  8.886562076E+02  9.287467834E+02  1.525878906E-05  0.00000E+00  9.000E+00
#rwgt            1           1   2.4330027290973888E-002           3       82885           0
</event>
<event>
      5   9999  3.19816E-02  5.45488E+01 -1.00000E+00  1.36952E-01
      21    -1     0     0   502   511  0.000000000E+00  0.000000000E+00  7.315914574E+02  7.315914574E+02  0.000000000E+00  0.00000E+00  9.000E+00
      21    -1     0     0   501   502  0.000000000E+00  0.000000000E+00 -1.118320656E+03  1.118320656E+03  0.000000000E+00  0.00000E+00  9.000E+00
      25     1     1     2     0     0  3.406181864E+02 -7.690682351E+01 -1.027645001E+03  1.092526730E+03  1.250000000E+02  0.00000E+00  9.000E+00
      25     1     1     2     0     0 -3.023785658E+02  1.158080449E+02  5.262141736E+02  6.303734265E+02  1.250000000E+02  0.00000E+00  9.000E+00
      21     1     1     2   501   511 -3.823962063E+01 -3.890122137E+01  1.147016284E+02  1.270119568E+02  1.907348633E-06  0.00000E+00  9.000E+00
#rwgt            1           1   3.1204325215790890E-002           3       82913           0
</event>
<event>
      5   9999  3.19816E-02  4.30156E+01 -1.00000E+00  1.42909E-01
      21    -1     0     0   512   501  0.000000000E+00  0.000000000E+00  2.590952733E+02  2.590952733E+02  0.000000000E+00  0.00000E+00  9.000E+00
      21    -1     0     0   501   502  0.000000000E+00  0.000000000E+00 -5.224761159E+02  5.224761159E+02  0.000000000E+00  0.00000E+00  9.000E+00
      25     1     1     2     0     0  2.284594190E+00  2.057023536E+02 -2.039766283E+01  2.415776113E+02  1.250000000E+02  0.00000E+00  9.000E+00
      25     1     1     2     0     0  4.005934358E+01 -1.981303490E+02 -3.509047398E+02  4.238154347E+02  1.250000000E+02  0.00000E+00  9.000E+00
      21     1     1     2   512   502 -4.234393777E+01 -7.572004546E+00  1.079215600E+02  1.161783432E+02  1.348699152E-06  0.00000E+00  9.000E+00
#rwgt            1           1   2.8022026158628414E-002           3       83077           0
</event>
<event>
      5   9999  3.19816E-02  1.97846E+02 -1.00000E+00  1.11819E-01
      21    -1     0     0   502   511  0.000000000E+00  0.000000000E+00  5.847094469E+02  5.847094469E+02  0.000000000E+00  0.00000E+00  9.000E+00
      21    -1     0     0   501   502  0.000000000E+00  0.000000000E+00 -1.760445979E+02  1.760445979E+02  0.000000000E+00  0.00000E+00  9.000E+00
      25     1     1     2     0     0  1.651636776E+02 -8.768512696E+01  2.923174224E+02  3.688389856E+02  1.250000000E+02  0.00000E+00  9.000E+00
      25     1     1     2     0     0 -5.142264190E+01 -7.419808776E+01 -1.425723260E+01  1.548480320E+02  1.250000000E+02  0.00000E+00  9.000E+00
      21     1     1     2   501   511 -1.137410357E+02  1.618832147E+02  1.306046592E+02  2.370670272E+02  5.046370146E-06  0.00000E+00  9.000E+00
#rwgt            1           1   2.9326250363093987E-002           3       83125           0
</event>
<event>
      5   9999  3.19816E-02  1.36579E+02 -1.00000E+00  1.18030E-01
      21    -1     0     0   502   512  0.000000000E+00  0.000000000E+00  1.598107110E+03  1.598107110E+03  0.000000000E+00  0.00000E+00  9.000E+00
      21    -1     0     0   501   502  0.000000000E+00  0.000000000E+00 -8.147367833E+01  8.147367833E+01  0.000000000E+00  0.00000E+00  9.000E+00
      25     1     1     2     0     0 -7.748381977E+01 -2.653909375E+02  3.439978150E+02  4.586889892E+02  1.250000000E+02  0.00000E+00  9.000E+00
      25     1     1     2     0     0  3.858581508E+01  1.344678398E+02  8.514498416E+02  8.718728679E+02  1.250000000E+02  0.00000E+00  9.000E+00
      21     1     1     2   501   512  3.889800469E+01  1.309230977E+02  3.211857752E+02  3.490189314E+02  3.814697266E-06  0.00000E+00  9.000E+00
#rwgt            1           1   2.6285538325663750E-002           3       83165           0
</event>
<event>
      5   9999  3.19816E-02  3.89426E+01 -1.00000E+00  1.45565E-01
      21    -1     0     0   502   511  0.000000000E+00  0.000000000E+00  4.966605649E+02  4.966605649E+02  0.000000000E+00  0.00000E+00  9.000E+00
      21    -1     0     0   501   502  0.000000000E+00  0.000000000E+00 -6.604585369E+01  6.604585369E+01  0.000000000E+00  0.00000E+00  9.000E+00
      25     1     1     2     0     0  1.792352262E+01 -1.093738928E+02  1.840884916E+02  2.485909769E+02  1.250000000E+02  0.00000E+00  9.000E+00
      25     1     1     2     0     0  3.619451088E+00  7.693272714E+01  1.493794473E+02  2.094539668E+02  1.250000000E+02  0.00000E+00  9.000E+00
      21     1     1     2   501   511 -2.154297371E+01  3.244116563E+01  9.714677235E+01  1.046614749E+02  0.000000000E+00  0.00000E+00  9.000E+00
#rwgt            1           1   7.7420234021796375E-002           3       83226           0
</event>
<event>
      5   9999  3.19816E-02  1.88927E+01 -1.00000E+00  1.68436E-01
      21    -1     0     0   512   501  0.000000000E+00  0.000000000E+00  5.341163565E+02  5.341163565E+02  0.000000000E+00  0.00000E+00  9.000E+00
      21    -1     0     0   501   502  0.000000000E+00  0.000000000E+00 -1.433571912E+02  1.433571912E+02  0.000000000E+00  0.00000E+00  9.000E+00
      25     1     1     2     0     0 -7.610107061E+01 -2.065296113E+02  1.990728283E+02  3.220261547E+02  1.250000000E+02  0.00000E+00  9.000E+00
      25     1     1     2     0     0  8.225359752E+01  2.243923873E+02  1.475343660E+02  3.074231399E+02  1.250000000E+02  0.00000E+00  9.000E+00
      21     1     1     2   512   502 -6.152526903E+00 -1.786277597E+01  4.415197093E+01  4.802425314E+01  4.768371582E-07  0.00000E+00  9.000E+00
#rwgt            1           1   2.6509551425179016E-002           3       83333           0
</event>
<event>
      5   9999  3.19816E-02  2.55841E+01 -1.00000E+00  1.58003E-01
      21    -1     0     0   511   501  0.000000000E+00  0.000000000E+00  1.739680772E+02  1.739680772E+02  0.000000000E+00  0.00000E+00  9.000E+00
      21    -1     0     0   501   502  0.000000000E+00  0.000000000E+00 -1.665447490E+03  1.665447490E+03  0.000000000E+00  0.00000E+00  9.000E+00
      25     1     1     2     0     0  2.143925220E+02 -2.920304011E+02 -1.368275753E+03  1.420932597E+03  1.250000000E+02  0.00000E+00  9.000E+00
      25     1     1     2     0     0 -1.911750706E+02  2.812835178E+02 -1.393654161E+02  3.882216432E+02  1.250000000E+02  0.00000E+00  9.000E+00
      21     1     1     2   511   502 -2.321745145E+01  1.074688326E+01  1.616175630E+01  3.026132710E+01  3.371747881E-07  0.00000E+00  9.000E+00
#rwgt            1           1   2.8278957322168844E-002           3       83516           0
</event>
<event>
      5   9999  3.19816E-02  8.93360E+01 -1.00000E+00  1.26071E-01
      21    -1     0     0   502   501  0.000000000E+00  0.000000000E+00  8.567362986E+02  8.567362986E+02  0.000000000E+00  0.00000E+00  9.000E+00
       2    -1     0     0   501     0  0.000000000E+00  0.000000000E+00 -5.846443191E+02  5.846443191E+02  0.000000000E+00  0.00000E+00  9.000E+00
      25     1     1     2     0     0  5.720503405E+02  5.684185075E+01 -1.317992660E+01  5.884482123E+02  1.250000000E+02  0.00000E+00  9.000E+00
      25     1     1     2     0     0 -4.860556432E+02 -3.263794611E+01  4.439436670E+02  6.708399983E+02  1.250000000E+02  0.00000E+00  9.000E+00
       2     1     1     2   502     0 -8.599469736E+01 -2.420390465E+01 -1.586717610E+02  1.820924071E+02  2.697398305E-06  0.00000E+00  9.000E+00
#rwgt            1           1   2.7980751260838130E-002           3       83704           0
</event>
<event>
      5   9999  3.19816E-02  6.57526E+01 -1.00000E+00  1.32612E-01
      21    -1     0     0   502   501  0.000000000E+00  0.000000000E+00  2.341185540E+02  2.341185540E+02  0.000000000E+00  0.00000E+00  9.000E+00
      21    -1     0     0   501   511  0.000000000E+00  0.000000000E+00 -9.369437983E+02  9.369437983E+02  0.000000000E+00  0.00000E+00  9.000E+00
      25     1     1     2     0     0  3.091259321E+02 -1.015606115E+02 -2.163058348E+02  4.102275148E+02  1.250000000E+02  0.00000E+00  9.000E+00
      25     1     1     2     0     0 -3.402131902E+02  4.362109160E+01 -1.138457585E+02  3.824051139E+02  1.250000000E+02  0.00000E+00  9.000E+00
      21     1     1     2   502   511  3.108725812E+01  5.793951991E+01 -3.726736510E+02  3.784297236E+02  0.000000000E+00  0.00000E+00  9.000E+00
#rwgt            1           1   3.4838044293881487E-002           3       83779           0
</event>
<event>
      5   9999  3.19816E-02  9.57166E+01 -1.00000E+00  1.24689E-01
      21    -1     0     0   502   512  0.000000000E+00  0.000000000E+00  1.171544406E+03  1.171544406E+03  0.000000000E+00  0.00000E+00  9.000E+00
      21    -1     0     0   501   502  0.000000000E+00  0.000000000E+00 -7.436302235E+02  7.436302235E+02  0.000000000E+00  0.00000E+00  9.000E+00
      25     1     1     2     0     0  7.909521924E+02  5.395610686E+01  4.277549094E+02  9.094591220E+02  1.250000000E+02  0.00000E+00  9.000E+00
      25     1     1     2     0     0 -8.313837958E+02  3.280193944E+01 -1.223827404E+02  8.502220406E+02  1.250000000E+02  0.00000E+00  9.000E+00
      21     1     1     2   501   512  4.043160342E+01 -8.675804630E+01  1.225420132E+02  1.554934666E+02  0.000000000E+00  0.00000E+00  9.000E+00
#rwgt            1           1   3.4035899710654405E-002           3       83907           0
</event>
<event>
      5   9999  3.19816E-02  1.63091E+01 -1.00000E+00  1.74027E-01
      21    -1     0     0   502   511  0.000000000E+00  0.000000000E+00  7.321527930E+02  7.321527930E+02  0.000000000E+00  0.00000E+00  9.000E+00
      21    -1     0     0   501   502  0.000000000E+00  0.000000000E+00 -1.099429826E+03  1.099429826E+03  0.000000000E+00  0.00000E+00  9.000E+00
      25     1     1     2     0     0 -4.056459631E+02  2.861441706E+02 -5.880088298E+02  7.796194698E+02  1.250000000E+02  0.00000E+00  9.000E+00
      25     1     1     2     0     0  4.201230523E+02 -2.786341872E+02 -2.531520706E+02  5.777987195E+02  1.250000000E+02  0.00000E+00  9.000E+00
      21     1     1     2   501   511 -1.447708921E+01 -7.509983348E+00  4.738838678E+02  4.741644294E+02  5.394796609E-06  0.00000E+00  9.000E+00
#rwgt            1           1   2.9289286694998976E-002           3       84020           0
</event>
<event>
      5   9999  3.19816E-02  1.40908E+02 -1.00000E+00  1.17480E-01
      21    -1     0     0   502   501  0.000000000E+00  0.000000000E+00  4.039797606E+02  4.039797606E+02  0.000000000E+00  0.00000E+00  9.000E+00
       5    -1     0     0   501     0  0.000000000E+00  0.000000000E+00 -5.654343087E+02  5.654343087E+02  0.000000000E+00  0.00000E+00  9.000E+00
      25     1     1     2     0     0 -3.557707914E+02 -1.596087142E+02  1.212451277E+02  4.270517283E+02  1.250000000E+02  0.00000E+00  9.000E+00
      25     1     1     2     0     0  2.860044071E+02  3.718467424E+01 -2.388626954E+02  3.947931206E+02  1.250000000E+02  0.00000E+00  9.000E+00
       5     1     1     2   502     0  6.976638425E+01  1.224240400E+02 -4.383698044E+01  1.475692203E+02  3.303624740E-06  0.00000E+00  9.000E+00
#rwgt            1           1   2.8723888106885646E-002           3       84213           0
</event>
<event>
      5   9999  3.19816E-02  9.66254E+00 -1.00000E+00  1.97496E-01
      21    -1     0     0   502   501  0.000000000E+00  0.000000000E+00  3.211163814E+02  3.211163814E+02  0.000000000E+00  0.00000E+00  9.000E+00
      21    -1     0     0   511   502  0.000000000E+00  0.000000000E+00 -1.249342783E+02  1.249342783E+02  0.000000000E+00  0.00000E+00  9.000E+00
      25     1     1     2     0     0 -1.284746346E+01 -8.349960708E+00  2.297762323E+02  2.620246097E+02  1.250000000E+02  0.00000E+00  9.000E+00
      25     1     1     2     0     0  2.193845851E+01  1.162388567E+01  2.049620136E+01  1.290794521E+02  1.250000000E+02  0.00000E+00  9.000E+00
      21     1     1     2   511   501 -9.090995047E+00 -3.273924961E+00 -5.409033051E+01  5.494659798E+01  6.743495762E-07  0.00000E+00  9.000E+00
#rwgt            1           1   5.8252455796639672E-002           3       84254           0
</event>
<event>
      5   9999  3.19816E-02  2.52335E+01 -1.00000E+00  1.58449E-01
      21    -1     0     0   502   512  0.000000000E+00  0.000000000E+00  3.273383367E+01  3.273383367E+01  0.000000000E+00  0.00000E+00  9.000E+00
      21    -1     0     0   501   502  0.000000000E+00  0.000000000E+00 -1.624277424E+03  1.624277424E+03  0.000000000E+00  0.00000E+00  9.000E+00
      25     1     1     2     0     0  8.306630581E+01 -7.759594028E+01 -2.633284737E+02  3.128706221E+02  1.250000000E+02  0.00000E+00  9.000E+00
      25     1     1     2     0     0 -6.098351663E+01  6.538607373E+01 -1.284532835E+03  1.293693910E+03  1.250000000E+02  0.00000E+00  9.000E+00
      21     1     1     2   501   512 -2.208278918E+01  1.220986655E+01 -4.368228170E+01  5.044672590E+01  9.536743164E-07  0.00000E+00  9.000E+00
#rwgt            1           1   2.8581810815828449E-002           3       84439           0
</event>
<event>
      5   9999  3.19816E-02  2.48119E+01 -1.00000E+00  1.58997E-01
      21    -1     0     0   502   501  0.000000000E+00  0.000000000E+00  3.307913451E+02  3.307913451E+02  0.000000000E+00  0.00000E+00  9.000E+00
      21    -1     0     0   501   511  0.000000000E+00  0.000000000E+00 -9.546831495E+02  9.546831495E+02  0.000000000E+00  0.00000E+00  9.000E+00
      25     1     1     2     0     0 -1.934824166E+02 -4.134313280E+02 -4.340803314E+02  6.421928392E+02  1.250000000E+02  0.00000E+00  9.000E+00
      25     1     1     2     0     0  1.715958442E+02  4.251192835E+02 -2.417284435E+01  4.757949824E+02  1.250000000E+02  0.00000E+00  9.000E+00
      21     1     1     2   502   511  2.188657247E+01 -1.168795545E+01 -1.656386286E+02  1.674866731E+02  1.907348633E-06  0.00000E+00  9.000E+00
#rwgt            1           1   2.8626037996674129E-002           3       84563           0
</event>
<event>
      5   9999  3.19816E-02  5.05038E+01 -1.00000E+00  1.38828E-01
      21    -1     0     0   512   501  0.000000000E+00  0.000000000E+00  6.838890778E+02  6.838890778E+02  0.000000000E+00  0.00000E+00  9.000E+00
      21    -1     0     0   501   502  0.000000000E+00  0.000000000E+00 -4.405377087E+02  4.405377087E+02  0.000000000E+00  0.00000E+00  9.000E+00
      25     1     1     2     0     0 -4.093077522E+02  2.667795594E+02  1.270462709E+02  5.200672305E+02  1.250000000E+02  0.00000E+00  9.000E+00
      25     1     1     2     0     0  4.567029410E+02 -2.493344756E+02  7.760612131E+01  5.407337303E+02  1.250000000E+02  0.00000E+00  9.000E+00
      21     1     1     2   512   502 -4.739518877E+01 -1.744508379E+01  3.869897692E+01  6.362582559E+01  4.768371582E-07  0.00000E+00  9.000E+00
#rwgt            1           1   2.8989366175569208E-002           3       84690           0
</event>
<event>
      5   9999  3.19816E-02  2.62477E+01 -1.00000E+00  1.57183E-01
      21    -1     0     0   502   501  0.000000000E+00  0.000000000E+00  4.435659887E+02  4.435659887E+02  0.000000000E+00  0.00000E+00  9.000E+00
      21    -1     0     0   511   502  0.000000000E+00  0.000000000E+00 -2.067113538E+03  2.067113538E+03  0.000000000E+00  0.00000E+00  9.000E+00
      25     1     1     2     0     0 -9.307985369E+00 -2.648078058E+02  2.912627431E+02  4.131208033E+02  1.250000000E+02  0.00000E+00  9.000E+00
      25     1     1     2     0     0 -7.724531012E+00  2.448369458E+02 -1.158618023E+02  2.984187588E+02  1.250000000E+02  0.00000E+00  9.000E+00
      21     1     1     2   511   501  1.703251638E+01  1.997086002E+01 -1.798948490E+03  1.799139965E+03  0.000000000E+00  0.00000E+00  9.000E+00
#rwgt            1           1   2.9935505808000869E-002           3       84806           0
</event>
<event>
      5   9999  3.19816E-02  8.40868E+01 -1.00000E+00  1.27311E-01
      21    -1     0     0   502   501  0.000000000E+00  0.000000000E+00  8.102879625E+02  8.102879625E+02  0.000000000E+00  0.00000E+00  9.000E+00
      21    -1     0     0   501   512  0.000000000E+00  0.000000000E+00 -9.394857493E+01  9.394857493E+01  0.000000000E+00  0.00000E+00  9.000E+00
      25     1     1     2     0     0  2.920263205E+00 -3.310311608E+01 -1.734142458E+00  1.293535909E+02  1.250000000E+02  0.00000E+00  9.000E+00
      25     1     1     2     0     0  8.064400759E+01  4.246268674E+01  6.455945819E+02  6.638703939E+02  1.250000000E+02  0.00000E+00  9.000E+00
      21     1     1     2   502   512 -8.356427079E+01 -9.359570661E+00  7.247894812E+01  1.110125526E+02  1.907348633E-06  0.00000E+00  9.000E+00
#rwgt            1           1   2.5655745403004301E-002           3       84932           0
</event>
<event>
      5   9999  3.19816E-02  1.15958E+02 -1.00000E+00  1.21003E-01
      21    -1     0     0   511   501  0.000000000E+00  0.000000000E+00  2.212826443E+03  2.212826443E+03  0.000000000E+00  0.00000E+00  9.000E+00
      21    -1     0     0   501   502  0.000000000E+00  0.000000000E+00 -6.419244162E+02  6.419244162E+02  0.000000000E+00  0.00000E+00  9.000E+00
      25     1     1     2     0     0 -5.678607195E+02 -8.161893137E+02  1.897223410E+02  1.019926644E+03  1.250000000E+02  0.00000E+00  9.000E+00
      25     1     1     2     0     0  5.178073073E+02  7.115907564E+02  6.670347046E+02  1.111326284E+03  1.250000000E+02  0.00000E+00  9.000E+00
      21     1     1     2   511   502  5.005341222E+01  1.045985573E+02  7.141449807E+02  7.234979307E+02  7.629394531E-06  0.00000E+00  9.000E+00
#rwgt            1           1   3.3894988969252658E-002           3       84978           0
</event>
<event>
      5   9999  3.19816E-02  7.36697E+02 -1.00000E+00  9.42944E-02
       1    -1     0     0   502     0  0.000000000E+00  0.000000000E+00  1.640672728E+03  1.640672728E+03  0.000000000E+00  0.00000E+00  9.000E+00
      21    -1     0     0   501   502  0.000000000E+00  0.000000000E+00 -1.071511145E+03  1.071511145E+03  0.000000000E+00  0.00000E+00  9.000E+00
      25     1     1     2     0     0  8.737777247E+02  1.615883577E+02 -1.089870164E+02  9.039366567E+02  1.250000000E+02  0.00000E+00  9.000E+00
      25     1     1     2     0     0 -2.001435234E+02  1.366380906E+02 -4.110709502E+02  4.932866548E+02  1.250000000E+02  0.00000E+00  9.000E+00
       1     1     1     2   501     0 -6.736342013E+02 -2.982264483E+02  1.089219550E+03  1.314960562E+03  0.000000000E+00  0.00000E+00  9.000E+00
#rwgt            2          17   6.5477282661092530E-004           3       85160           0
</event>
<event>
      5   9999  3.19816E-02  1.17844E+02 -1.00000E+00  1.20703E-01
      21    -1     0     0   502   511  0.000000000E+00  0.000000000E+00  2.854463557E+03  2.854463557E+03  0.000000000E+00  0.00000E+00  9.000E+00
      21    -1     0     0   501   502  0.000000000E+00  0.000000000E+00 -4.496528289E+01  4.496528289E+01  0.000000000E+00  0.00000E+00  9.000E+00
      25     1     1     2     0     0  7.926542295E+00 -6.543564228E+01  1.985778711E+03  1.990800528E+03  1.250000000E+02  0.00000E+00  9.000E+00
      25     1     1     2     0     0  6.567754357E+01  1.574665086E+02  2.724857963E+02  3.449387631E+02  1.250000000E+02  0.00000E+00  9.000E+00
      21     1     1     2   501   511 -7.360408587E+01 -9.203086630E+01  5.512337673E+02  5.636895493E+02  7.629394531E-06  0.00000E+00  9.000E+00
#rwgt            2          11   4.9674716499651375E-003           3       85344           0
</event>
<event>
      5   9999  3.19816E-02  7.44822E+02 -1.00000E+00  9.41716E-02
      21    -1     0     0   502   501  0.000000000E+00  0.000000000E+00  3.987504859E+02  3.987504859E+02  0.000000000E+00  0.00000E+00  9.000E+00
      21    -1     0     0   501   512  0.000000000E+00  0.000000000E+00 -2.948337240E+03  2.948337240E+03  0.000000000E+00  0.00000E+00  9.000E+00
      25     1     1     2     0     0 -6.656402080E+01 -2.233577837E+02 -2.429291138E+02  3.591086503E+02  1.250000000E+02  0.00000E+00  9.000E+00
      25     1     1     2     0     0  1.291093208E+02  9.655488152E+02 -6.673724977E+02  1.187419379E+03  1.250000000E+02  0.00000E+00  9.000E+00
      21     1     1     2   502   512 -6.254529999E+01 -7.421910315E+02 -1.639285142E+03  1.800559696E+03  0.000000000E+00  0.00000E+00  9.000E+00
#rwgt            2          11   3.6473740529143633E-004           3       85364           0
</event>
<event>
      5   9999  3.19816E-02  8.09085E+01 -1.00000E+00  1.28113E-01
      21    -1     0     0   502   511  0.000000000E+00  0.000000000E+00  2.110328768E+03  2.110328768E+03  0.000000000E+00  0.00000E+00  9.000E+00
      21    -1     0     0   501   502  0.000000000E+00  0.000000000E+00 -8.314211928E+02  8.314211928E+02  0.000000000E+00  0.00000E+00  9.000E+00
      25     1     1     2     0     0 -2.330045230E+02 -4.091315296E+01 -6.926754361E+02  7.425558926E+02  1.250000000E+02  0.00000E+00  9.000E+00
      25     1     1     2     0     0  2.005756912E+02  1.150384305E+02  3.995003043E+01  2.658673604E+02  1.250000000E+02  0.00000E+00  9.000E+00
      21     1     1     2   501   511  3.242883173E+01 -7.412527749E+01  1.931632981E+03  1.933326708E+03  2.157918644E-05  0.00000E+00  9.000E+00
#rwgt            1           1   2.7472750182725835E-002           3       85384           0
</event>
<event>
      5   9999  3.19816E-02  6.62337E+01 -1.00000E+00  1.32449E-01
      21    -1     0     0   502   512  0.000000000E+00  0.000000000E+00  5.904850455E+02  5.904850455E+02  0.000000000E+00  0.00000E+00  9.000E+00
      21    -1     0     0   501   502  0.000000000E+00  0.000000000E+00 -9.832015545E+01  9.832015545E+01  0.000000000E+00  0.00000E+00  9.000E+00
      25     1     1     2     0     0  8.403008295E+01  1.089371065E+02  2.256352213E+02  2.923432932E+02  1.250000000E+02  0.00000E+00  9.000E+00
      25     1     1     2     0     0 -1.491365392E+02 -9.676967868E+01  1.556865647E+02  2.673375852E+02  1.250000000E+02  0.00000E+00  9.000E+00
      21     1     1     2   501   512  6.510645626E+01 -1.216742779E+01  1.108431040E+02  1.291243225E+02  0.000000000E+00  0.00000E+00  9.000E+00
#rwgt            1           1   2.9469627670531521E-002           3       85436           0
</event>
<event>
      5   9999  3.19816E-02  1.03909E+02 -1.00000E+00  1.23083E-01
      21    -1     0     0   502   501  0.000000000E+00  0.000000000E+00  1.097330177E+03  1.097330177E+03  0.000000000E+00  0.00000E+00  9.000E+00
      21    -1     0     0   501   511  0.000000000E+00  0.000000000E+00 -6.512816373E+02  6.512816373E+02  0.000000000E+00  0.00000E+00  9.000E+00
      25     1     1     2     0     0  2.410532402E+02  3.064571476E+02  9.200833288E+02  1.007075459E+03  1.250000000E+02  0.00000E+00  9.000E+00
      25     1     1     2     0     0 -3.321079398E+02 -2.563951698E+02 -2.749581307E+02  5.169730558E+02  1.250000000E+02  0.00000E+00  9.000E+00
      21     1     1     2   502   511  9.105469962E+01 -5.006197781E+01 -1.990766580E+02  2.245633000E+02  3.814697266E-06  0.00000E+00  9.000E+00
#rwgt            2          11   3.7077768069173518E-003           3       85551           0
</event>
<event>
      5   9999  3.19816E-02  5.65942E+01 -1.00000E+00  1.36074E-01
      21    -1     0     0   502   501  0.000000000E+00  0.000000000E+00  1.431818999E+03  1.431818999E+03  0.000000000E+00  0.00000E+00  9.000E+00
      21    -1     0     0   501   512  0.000000000E+00  0.000000000E+00 -1.430620851E+02  1.430620851E+02  0.000000000E+00  0.00000E+00  9.000E+00
      25     1     1     2     0     0 -1.216500780E+00  8.324729320E+01  1.243214058E+03  1.252253084E+03  1.250000000E+02  0.00000E+00  9.000E+00
      25     1     1     2     0     0  2.250163989E+01 -1.356862707E+02  1.257970974E+02  2.244259289E+02  1.250000000E+02  0.00000E+00  9.000E+00
      21     1     1     2   502   512 -2.128513911E+01  5.243897747E+01 -8.025424167E+01  9.820207132E+01  2.132480600E-06  0.00000E+00  9.000E+00
#rwgt            1           1   2.7597317740282696E-002           3       85586           0
</event>
<event>
      5   9999  3.19816E-02  1.70541E+02 -1.00000E+00  1.14227E-01
      21    -1     0     0   502   501  0.000000000E+00  0.000000000E+00  2.057096575E+03  2.057096575E+03  0.000000000E+00  0.00000E+00  9.000E+00
      21    -1     0     0   511   502  0.000000000E+00  0.000000000E+00 -2.500144277E+02  2.500144277E+02  0.000000000E+00  0.00000E+00  9.000E+00
      25     1     1     2     0     0 -9.743611058E+01  2.977336822E+02  1.570149870E+03  1.605968479E+03  1.250000000E+02  0.00000E+00  9.000E+00
      25     1     1     2     0     0  5.549695208E+01 -4.630372691E+02  1.305875566E+02  5.001615082E+02  1.250000000E+02  0.00000E+00  9.000E+00
      21     1     1     2   511   501  4.193915850E+01  1.653035870E+02  1.063447202E+02  2.009810150E+02  3.015782986E-06  0.00000E+00  9.000E+00
#rwgt            1           1   2.8344397296525707E-002           3       85662           0
</event>
<event>
      5   9999  3.19816E-02  8.61685E+01 -1.00000E+00  1.26807E-01
      21    -1     0     0   502   501  0.000000000E+00  0.000000000E+00  4.662701373E+02  4.662701373E+02  0.000000000E+00  0.00000E+00  9.000E+00
      21    -1     0     0   512   502  0.000000000E+00  0.000000000E+00 -9.390794320E+02  9.390794320E+02  0.000000000E+00  0.00000E+00  9.000E+00
      25     1     1     2     0     0  4.662496559E+02 -1.692403765E+02 -5.871826991E+02  7.787422994E+02  1.250000000E+02  0.00000E+00  9.000E+00
      25     1     1     2     0     0 -4.009544383E+02  2.254680270E+02  1.888362412E+02  5.127225554E+02  1.250000000E+02  0.00000E+00  9.000E+00
      21     1     1     2   512   501 -6.529521765E+01 -5.622765047E+01 -7.446283681E+01  1.138847145E+02  1.348699152E-06  0.00000E+00  9.000E+00
#rwgt            1           1   3.0868708785601856E-002           3       85743           0
</event>
<event>
      5   9999  3.19816E-02  9.06122E+01 -1.00000E+00  1.25785E-01
      21    -1     0     0   511   501  0.000000000E+00  0.000000000E+00  4.979920917E+02  4.979920917E+02  0.000000000E+00  0.00000E+00  9.000E+00
      21    -1     0     0   501   502  0.000000000E+00  0.000000000E+00 -5.260175451E+02  5.260175451E+02  0.000000000E+00  0.00000E+00  9.000E+00
      25     1     1     2     0     0 -3.223794730E+02 -1.568236897E+01 -3.179654966E+02  4.700016152E+02  1.250000000E+02  0.00000E+00  9.000E+00
      25     1     1     2     0     0  3.444058495E+02  1.035767185E+02  2.459996516E+02  4.533038213E+02  1.250000000E+02  0.00000E+00  9.000E+00
      21     1     1     2   511   502 -2.202637648E+01 -8.789434951E+01  4.394039160E+01  1.007042003E+02  1.066240300E-06  0.00000E+00  9.000E+00
#rwgt            1           1   3.2668873669016350E-002           3       85818           0
</event>
<event>
      5   9999  3.19816E-02  6.09606E+01 -1.00000E+00  1.34336E-01
      21    -1     0     0   502   501  0.000000000E+00  0.000000000E+00  3.765328182E+02  3.765328182E+02  0.000000000E+00  0.00000E+00  9.000E+00
      21    -1     0     0   512   502  0.000000000E+00  0.000000000E+00 -1.730209943E+03  1.730209943E+03  0.000000000E+00  0.00000E+00  9.000E+00
      25     1     1     2     0     0 -5.994064742E+02  3.098182101E+02 -2.823962118E+02  7.420566455E+02  1.250000000E+02  0.00000E+00  9.000E+00
      25     1     1     2     0     0  5.466874112E+02 -3.404270123E+02 -5.986000310E+02  8.880904647E+02  1.250000000E+02  0.00000E+00  9.000E+00
      21     1     1     2   512   501  5.271906299E+01  3.060880221E+01 -4.726808820E+02  4.765956510E+02  7.629394531E-06  0.00000E+00  9.000E+00
#rwgt            1           1   2.8528732432787259E-002           3       85916           0
</event>
<event>
      5   9999  3.19816E-02  7.84224E+00 -1.00000E+00  2.08808E-01
      21    -1     0     0   502   511  0.000000000E+00  0.000000000E+00  3.470887068E+02  3.470887068E+02  0.000000000E+00  0.00000E+00  9.000E+00
      21    -1     0     0   501   502  0.000000000E+00  0.000000000E+00 -1.131395169E+03  1.131395169E+03  0.000000000E+00  0.00000E+00  9.000E+00
      25     1     1     2     0     0  1.330445015E+02 -2.587054909E+02  2.109967696E+02  3.804917965E+02  1.250000000E+02  0.00000E+00  9.000E+00
      25     1     1     2     0     0 -1.277012451E+02  2.529652546E+02 -1.023182608E+03  1.069030719E+03  1.250000000E+02  0.00000E+00  9.000E+00
      21     1     1     2   501   511 -5.343256433E+00  5.740236326E+00  2.787937705E+01  2.896135990E+01  4.768371582E-07  0.00000E+00  9.000E+00
#rwgt            1           1   2.8095036640803279E-002           3       86044           0
</event>
<event>
      5   9999  3.19816E-02  1.43240E+01 -1.00000E+00  1.79291E-01
      21    -1     0     0   502   501  0.000000000E+00  0.000000000E+00  6.865482624E+02  6.865482624E+02  0.000000000E+00  0.00000E+00  9.000E+00
      21    -1     0     0   512   502  0.000000000E+00  0.000000000E+00 -2.098641023E+02  2.098641023E+02  0.000000000E+00  0.00000E+00  9.000E+00
      25     1     1     2     0     0  8.490982702E+01 -3.209827514E+02  2.810805644E+02  4.526266554E+02  1.250000000E+02  0.00000E+00  9.000E+00
      25     1     1     2     0     0 -8.926892516E+01  3.073381505E+02  2.252650360E+02  4.108467065E+02  1.250000000E+02  0.00000E+00  9.000E+00
      21     1     1     2   512   501  4.359098136E+00  1.364460092E+01 -2.966144031E+01  3.293900290E+01  0.000000000E+00  0.00000E+00  9.000E+00
#rwgt            1           1   2.6822309301687997E-002           3       86330           0
</event>
<event>
      5   9999  3.19816E-02  7.91653E+01 -1.00000E+00  1.28570E-01
      21    -1     0     0   511   501  0.000000000E+00  0.000000000E+00  1.525106299E+03  1.525106299E+03  0.000000000E+00  0.00000E+00  9.000E+00
      21    -1     0     0   501   502  0.000000000E+00  0.000000000E+00 -1.287599036E+02  1.287599036E+02  0.000000000E+00  0.00000E+00  9.000E+00
      25     1     1     2     0     0 -1.244420437E+02 -3.409588631E+01  6.359073159E+02  6.607960852E+02  1.250000000E+02  0.00000E+00  9.000E+00
      25     1     1     2     0     0  1.358246912E+02 -4.424677555E+01 -3.557975042E+01  1.931244224E+02  1.250000000E+02  0.00000E+00  9.000E+00
      21     1     1     2   511   502 -1.138264753E+01  7.834266186E+01  7.960188295E+02  7.999456946E+02  1.078959322E-05  0.00000E+00  9.000E+00
#rwgt            2          11   1.2274393771508265E-003           3       86493           0
</event>
<event>
      5   9999  3.19816E-02  2.63309E+02 -1.00000E+00  1.07466E-01
      21    -1     0     0   502   501  0.000000000E+00  0.000000000E+00  5.455992554E+02  5.455992554E+02  0.000000000E+00  0.00000E+00  9.000E+00
       1    -1     0     0   501     0  0.000000000E+00  0.000000000E+00 -4.782818772E+02  4.782818772E+02  0.000000000E+00  0.00000E+00  9.000E+00
      25     1     1     2     0     0  9.001865960E+01 -2.554600484E+02  8.493549774E+01  3.101648500E+02  1.250000000E+02  0.00000E+00  9.000E+00
      25     1     1     2     0     0 -2.340704010E+02  3.504998715E+01  2.295212581E+02  3.525939054E+02  1.250000000E+02  0.00000E+00  9.000E+00
       1     1     1     2   502     0  1.440517414E+02  2.204100613E+02 -2.471393776E+02  3.611223772E+02  5.394796609E-06  0.00000E+00  9.000E+00
#rwgt            1           1   2.9397268857894648E-002           3       86528           0
</event>
<event>
      5   9999  3.19816E-02  6.36217E+01 -1.00000E+00  1.33357E-01
      21    -1     0     0   502   501  0.000000000E+00  0.000000000E+00  2.099448004E+03  2.099448004E+03  0.000000000E+00  0.00000E+00  9.000E+00
       2    -1     0     0   501     0  0.000000000E+00  0.000000000E+00 -7.981870002E+02  7.981870002E+02  0.000000000E+00  0.00000E+00  9.000E+00
      25     1     1     2     0     0  3.855127646E+01  1.270601028E+01  1.863126928E+03  1.867756567E+03  1.250000000E+02  0.00000E+00  9.000E+00
      25     1     1     2     0     0 -2.864886387E+01  5.014031263E+01  2.123321400E+02  2.530706345E+02  1.250000000E+02  0.00000E+00  9.000E+00
       2     1     1     2   502     0 -9.902412587E+00 -6.284632291E+01 -7.741980647E+02  7.768078022E+02  1.525878906E-05  0.00000E+00  9.000E+00
#rwgt            1           1   7.0881833763406010E-002           3       86575           0
</event>
<event>
      5   9999  4.12842E-02  4.45471E+01 -1.00000E+00  1.41999E-01
      21    -1     0     0   511   501  0.000000000E+00  0.000000000E+00  9.739789548E+01  9.739789548E+01  0.000000000E+00  0.00000E+00  9.000E+00
      21    -1     0     0   501   502  0.000000000E+00  0.000000000E+00 -2.051203947E+03  2.051203947E+03  0.000000000E+00  0.00000E+00  9.000E+00
      25     1     1     2     0     0 -3.841451130E+01 -1.075925730E+02 -1.887303843E+03  1.894885915E+03  1.250000000E+02  0.00000E+00  9.000E+00
      25     1     1     2     0     0  2.140336363E-01  8.467611830E+01 -1.135574896E+02  1.889190151E+02  1.250000000E+02  0.00000E+00  9.000E+00
      21     1     1     2   511   502  3.820047766E+01  2.291645471E+01  4.705528081E+01  6.479691229E+01  2.336015456E-06  0.00000E+00  9.000E+00
#rwgt            1           1  0.12795792818362556                3       86641           0
</event>
<event>
      5   9999  3.19816E-02  6.57745E+01 -1.00000E+00  1.32605E-01
      21    -1     0     0   502   501  0.000000000E+00  0.000000000E+00  9.883094953E+02  9.883094953E+02  0.000000000E+00  0.00000E+00  9.000E+00
      21    -1     0     0   501   512  0.000000000E+00  0.000000000E+00 -6.675528211E+02  6.675528211E+02  0.000000000E+00  0.00000E+00  9.000E+00
      25     1     1     2     0     0  1.976088505E+02  4.728575687E+02  2.873963675E+02  6.007205757E+02  1.250000000E+02  0.00000E+00  9.000E+00
      25     1     1     2     0     0 -1.541477208E+02 -5.222277323E+02  3.971548392E+02  6.854489700E+02  1.250000000E+02  0.00000E+00  9.000E+00
      21     1     1     2   502   512 -4.346112977E+01  4.937016367E+01 -3.637945324E+02  3.696927707E+02  7.629394531E-06  0.00000E+00  9.000E+00
#rwgt            1           1   2.8855251084613447E-002           3       86736           0
</event>
<event>
      5   9999  3.19816E-02  2.21536E+01 -1.00000E+00  1.62786E-01
      21    -1     0     0   502   511  0.000000000E+00  0.000000000E+00  2.280100074E+02  2.280100074E+02  0.000000000E+00  0.00000E+00  9.000E+00
      21    -1     0     0   501   502  0.000000000E+00  0.000000000E+00 -2.349099110E+02  2.349099110E+02  0.000000000E+00  0.00000E+00  9.000E+00
      25     1     1     2     0     0 -8.548043774E+01 -1.938379762E+01 -1.588346556E+02  2.203090663E+02  1.250000000E+02  0.00000E+00  9.000E+00
      25     1     1     2     0     0  1.072810290E+02  1.544450738E+01  1.431467217E+02  2.187778232E+02  1.250000000E+02  0.00000E+00  9.000E+00
      21     1     1     2   501   511 -2.180059130E+01  3.939290238E+00  8.788030316E+00  2.383302888E+01  3.153981341E-07  0.00000E+00  9.000E+00
#rwgt            1           1   2.8870478316184101E-002           3       86884           0
</event>
<event>
      5   9999  3.19816E-02  1.48368E+01 -1.00000E+00  1.77832E-01
      21    -1     0     0   502   501  0.000000000E+00  0.000000000E+00  9.050868421E+02  9.050868421E+02  0.000000000E+00  0.00000E+00  9.000E+00
      21    -1     0     0   501   512  0.000000000E+00  0.000000000E+00 -5.557935431E+02  5.557935431E+02  0.000000000E+00  0.00000E+00  9.000E+00
      25     1     1     2     0     0 -1.263419747E+02 -9.794824299E+01  8.681508586E+02  8.915531763E+02  1.250000000E+02  0.00000E+00  9.000E+00
      25     1     1     2     0     0  1.329850696E+02  1.112147337E+02 -5.074185571E+02  5.505927150E+02  1.250000000E+02  0.00000E+00  9.000E+00
      21     1     1     2   502   512 -6.643094863E+00 -1.326649071E+01 -1.143900252E+01  1.873449395E+01  1.685873940E-07  0.00000E+00  9.000E+00
#rwgt            1           1   3.2271846106647600E-002           3       87049           0
</event>
<event>
      5   9999  3.19816E-02  2.48989E+01 -1.00000E+00  1.58883E-01
      21    -1     0     0   502   511  0.000000000E+00  0.000000000E+00  7.845049840E+01  7.845049840E+01  0.000000000E+00  0.00000E+00  9.000E+00
      21    -1     0     0   501   502  0.000000000E+00  0.000000000E+00 -1.302567318E+03  1.302567318E+03  0.000000000E+00  0.00000E+00  9.000E+00
      25     1     1     2     0     0 -2.345132130E+02 -1.289965219E+02 -6.996466418E+02  7.594517583E+02  1.250000000E+02  0.00000E+00  9.000E+00
      25     1     1     2     0     0  2.359361648E+02  1.538547701E+02 -4.937386621E+02  5.820137718E+02  1.250000000E+02  0.00000E+00  9.000E+00
      21     1     1     2   501   511 -1.422951736E+00 -2.485824818E+01 -3.073151554E+01  3.955228617E+01  8.259061849E-07  0.00000E+00  9.000E+00
#rwgt            1           1   2.8458563293552022E-002           3       87302           0
</event>
<event>
      5   9999  3.19816E-02  7.70703E+01 -1.00000E+00  1.29139E-01
      21    -1     0     0   502   501  0.000000000E+00  0.000000000E+00  7.867771549E+02  7.867771549E+02  0.000000000E+00  0.00000E+00  9.000E+00
      21    -1     0     0   512   502  0.000000000E+00  0.000000000E+00 -3.921945040E+02  3.921945040E+02  0.000000000E+00  0.00000E+00  9.000E+00
      25     1     1     2     0     0 -2.685094748E+01 -2.699572598E+02  3.054158327E+01  3.002593609E+02  1.250000000E+02  0.00000E+00  9.000E+00
      25     1     1     2     0     0  9.496379858E+01  3.060192904E+02  5.661359431E+02  6.624204369E+02  1.250000000E+02  0.00000E+00  9.000E+00
      21     1     1     2   512   501 -6.811285110E+01 -3.606203061E+01 -2.020948754E+02  2.162918612E+02  2.697398305E-06  0.00000E+00  9.000E+00
#rwgt            1           1   2.9033995122714429E-002           3       87422           0
</event>
<event>
      5   9999  3.19816E-02  5.14624E+02 -1.00000E+00  9.84976E-02
      21    -1     0     0   502   501  0.000000000E+00  0.000000000E+00  7.661471288E+02  7.661471288E+02  0.000000000E+00  0.00000E+00  9.000E+00
       4    -1     0     0   501     0  0.000000000E+00  0.000000000E+00 -5.334064543E+02  5.334064543E+02  0.000000000E+00  0.00000E+00  9.000E+00
      25     1     1     2     0     0  1.812766477E+02  2.982544742E+02  2.092469972E+02  4.257067772E+02  1.250000000E+02  0.00000E+00  9.000E+00
      25     1     1     2     0     0 -6.794919071E+01  2.037363643E+02  2.111355411E+02  3.260809951E+02  1.250000000E+02  0.00000E+00  9.000E+00
       4     1     1     2   502     0 -1.133274570E+02 -5.019908385E+02 -1.876418638E+02  5.477658108E+02  1.321449896E-05  0.00000E+00  9.000E+00
#rwgt            2          15   9.4836827801883489E-005           3       87577           0
</event>
<event>
      5   9999  3.19816E-02  1.52358E+01 -1.00000E+00  1.76748E-01
      21    -1     0     0   502   501  0.000000000E+00  0.000000000E+00  1.573894254E+02  1.573894254E+02  0.000000000E+00  0.00000E+00  9.000E+00
      21    -1     0     0   511   502  0.000000000E+00  0.000000000E+00 -3.640092657E+02  3.640092657E+02  0.000000000E+00  0.00000E+00  9.000E+00
      25     1     1     2     0     0 -1.275846855E+01 -4.900826927E+01  1.032077958E+02  1.698276717E+02  1.250000000E+02  0.00000E+00  9.000E+00
      25     1     1     2     0     0  1.301292599E+01  6.424197918E+01 -2.266154814E+02  2.669755504E+02  1.250000000E+02  0.00000E+00  9.000E+00
      21     1     1     2   511   501 -2.544574338E-01 -1.523370991E+01 -8.321215472E+01  8.459546891E+01  9.536743164E-07  0.00000E+00  9.000E+00
#rwgt            1           1   2.6585379735410062E-002           3       87596           0
</event>
<event>
      5   9999  3.19816E-02  2.98903E+01 -1.00000E+00  1.53150E-01
      21    -1     0     0   502   501  0.000000000E+00  0.000000000E+00  3.702985140E+03  3.702985140E+03  0.000000000E+00  0.00000E+00  9.000E+00
      21    -1     0     0   501   512  0.000000000E+00  0.000000000E+00 -6.279104841E+01  6.279104841E+01  0.000000000E+00  0.00000E+00  9.000E+00
      25     1     1     2     0     0 -3.602073451E+02 -2.348705539E+02  1.655178949E+03  1.714688270E+03  1.250000000E+02  0.00000E+00  9.000E+00
      25     1     1     2     0     0  3.891828361E+02  2.275320982E+02  1.948625436E+03  2.003996065E+03  1.250000000E+02  0.00000E+00  9.000E+00
      21     1     1     2   502   512 -2.897549097E+01  7.338455773E+00  3.638970576E+01  4.709185381E+01  1.507891493E-06  0.00000E+00  9.000E+00
#rwgt            1           1   1.6390985852278536E-002           3       87769           0
</event>
<event>
      5   9999  3.19816E-02  5.12207E+01 -1.00000E+00  1.38480E-01
      21    -1     0     0   511   501  0.000000000E+00  0.000000000E+00  4.346437566E+02  4.346437566E+02  0.000000000E+00  0.00000E+00  9.000E+00
      21    -1     0     0   501   502  0.000000000E+00  0.000000000E+00 -4.052584892E+02  4.052584892E+02  0.000000000E+00  0.00000E+00  9.000E+00
      25     1     1     2     0     0 -1.649189298E+02 -1.709955233E+02  1.341755707E+02  3.001096569E+02  1.250000000E+02  0.00000E+00  9.000E+00
      25     1     1     2     0     0  1.137774833E+02  1.681478806E+02 -2.738787164E+02  3.631164782E+02  1.250000000E+02  0.00000E+00  9.000E+00
      21     1     1     2   511   502  5.114144644E+01  2.847642727E+00  1.690884132E+02  1.766761107E+02  0.000000000E+00  0.00000E+00  9.000E+00
#rwgt            1           1   2.8095098557419998E-002           3       87948           0
</event>
<event>
      5   9999  3.19816E-02  5.49861E+01 -1.00000E+00  1.36760E-01
      -4    -1     0     0     0   501  0.000000000E+00  0.000000000E+00  2.639396338E+02  2.639396338E+02  0.000000000E+00  0.00000E+00  9.000E+00
      21    -1     0     0   501   502  0.000000000E+00  0.000000000E+00 -2.893745539E+02  2.893745539E+02  0.000000000E+00  0.00000E+00  9.000E+00
      25     1     1     2     0     0 -4.409649783E+01 -1.382616757E+02 -1.351256364E+02  2.344029217E+02  1.250000000E+02  0.00000E+00  9.000E+00
      25     1     1     2     0     0 -1.047452153E+01  1.315184577E+02 -1.527090117E+01  1.823870081E+02  1.250000000E+02  0.00000E+00  9.000E+00
      -4     1     1     2     0   502  5.457101936E+01  6.743218030E+00  1.249616175E+02  1.365242579E+02  2.336015456E-06  0.00000E+00  9.000E+00
#rwgt            1           1   2.9480289083700231E-002           3       88082           0
</event>
<event>
      5   9999  3.19816E-02  3.88310E+02 -1.00000E+00  1.02075E-01
      21    -1     0     0   511   501  0.000000000E+00  0.000000000E+00  5.907885041E+02  5.907885041E+02  0.000000000E+00  0.00000E+00  9.000E+00
      21    -1     0     0   501   502  0.000000000E+00  0.000000000E+00 -1.248549760E+03  1.248549760E+03  0.000000000E+00  0.00000E+00  9.000E+00
      25     1     1     2     0     0 -2.779166505E+02  1.482535732E+02  3.151398802E+02  4.627687659E+02  1.250000000E+02  0.00000E+00  9.000E+00
      25     1     1     2     0     0 -1.099936721E+02 -1.658619449E+02 -9.596762847E+02  9.880345966E+02  1.250000000E+02  0.00000E+00  9.000E+00
      21     1     1     2   511   502  3.879103226E+02  1.760837174E+01 -1.322485152E+01  3.885349017E+02  7.979011789E-06  0.00000E+00  9.000E+00
#rwgt            2          11   3.4551409213973206E-003           3       88157           0
</event>
<event>
      5   9999  3.19816E-02  2.28865E+01 -1.00000E+00  1.61679E-01
      21    -1     0     0   502   501  0.000000000E+00  0.000000000E+00  1.386352522E+02  1.386352522E+02  0.000000000E+00  0.00000E+00  9.000E+00
      21    -1     0     0   501   512  0.000000000E+00  0.000000000E+00 -3.550438515E+02  3.550438515E+02  0.000000000E+00  0.00000E+00  9.000E+00
      25     1     1     2     0     0 -8.810110564E+01 -1.577855964E+01  4.324271266E+00  1.538000880E+02  1.250000000E+02  0.00000E+00  9.000E+00
      25     1     1     2     0     0  1.109831700E+02  1.532609269E+01 -6.113218668E+01  1.786457315E+02  1.250000000E+02  0.00000E+00  9.000E+00
      21     1     1     2   502   512 -2.288206438E+01  4.524669499E-01 -1.596006839E+02  1.612332840E+02  0.000000000E+00  0.00000E+00  9.000E+00
#rwgt            1           1   2.3831985492437393E-002           3       88177           0
</event>
<event>
      5   9999  3.64191E-02  9.95073E+01 -1.00000E+00  1.23924E-01
      21    -1     0     0   502   501  0.000000000E+00  0.000000000E+00  5.508318316E+01  5.508318316E+01  0.000000000E+00  0.00000E+00  9.000E+00
       2    -1     0     0   501     0  0.000000000E+00  0.000000000E+00 -2.517624637E+03  2.517624637E+03  0.000000000E+00  0.00000E+00  9.000E+00
      25     1     1     2     0     0  2.261000364E+02 -1.411801777E+02 -4.920755780E+02  5.734251856E+02  1.250000000E+02  0.00000E+00  9.000E+00
      25     1     1     2     0     0 -1.272575098E+02  1.526635009E+02 -1.513950706E+03  1.532048419E+03  1.250000000E+02  0.00000E+00  9.000E+00
       2     1     1     2   502     0 -9.884252663E+01 -1.148332321E+01 -4.565151705E+02  4.672342161E+02  7.629394531E-06  0.00000E+00  9.000E+00
#rwgt            1           1  0.10932003184743441                3       88282           0
</event>
<event>
      5   9999  3.19816E-02  1.06862E+02 -1.00000E+00  1.22545E-01
      21    -1     0     0   511   501  0.000000000E+00  0.000000000E+00  1.089806333E+03  1.089806333E+03  0.000000000E+00  0.00000E+00  9.000E+00
      21    -1     0     0   501   502  0.000000000E+00  0.000000000E+00 -2.805692906E+02  2.805692906E+02  0.000000000E+00  0.00000E+00  9.000E+00
      25     1     1     2     0     0  4.817446814E+02  2.132189348E+02  4.749301077E+02  7.202248672E+02  1.250000000E+02  0.00000E+00  9.000E+00
      25     1     1     2     0     0 -3.974827475E+02 -1.474963623E+02  2.202160776E+02  4.938297604E+02  1.250000000E+02  0.00000E+00  9.000E+00
      21     1     1     2   511   502 -8.426193390E+01 -6.572257253E+01  1.140908567E+02  1.563209955E+02  2.336015456E-06  0.00000E+00  9.000E+00
#rwgt            2          11   5.3427608362180247E-003           3       88343           0
</event>
<event>
      5   9999  3.19816E-02  2.35895E+01 -1.00000E+00  1.60663E-01
      21    -1     0     0   502   501  0.000000000E+00  0.000000000E+00  1.437635959E+03  1.437635959E+03  0.000000000E+00  0.00000E+00  9.000E+00
      21    -1     0     0   512   502  0.000000000E+00  0.000000000E+00 -2.731491291E+02  2.731491291E+02  0.000000000E+00  0.00000E+00  9.000E+00
      25     1     1     2     0     0 -1.198293522E+02 -3.498382274E+01  1.062847810E+03  1.077429074E+03  1.250000000E+02  0.00000E+00  9.000E+00
      25     1     1     2     0     0  1.320885278E+02  1.482994625E+01  3.442421419E+02  3.896087251E+02  1.250000000E+02  0.00000E+00  9.000E+00
      21     1     1     2   512   501 -1.225917559E+01  2.015387649E+01 -2.426031221E+02  2.437472892E+02  5.394796609E-06  0.00000E+00  9.000E+00
#rwgt            1           1   3.4438747951867431E-002           3       88393           0
</event>
<event>
      5   9999  3.19816E-02  6.15765E+01 -1.00000E+00  1.34104E-01
      21    -1     0     0   511   501  0.000000000E+00  0.000000000E+00  4.991082607E+02  4.991082607E+02  0.000000000E+00  0.00000E+00  9.000E+00
      21    -1     0     0   501   502  0.000000000E+00  0.000000000E+00 -2.924122688E+02  2.924122688E+02  0.000000000E+00  0.00000E+00  9.000E+00
      25     1     1     2     0     0  5.291132941E+01  1.315434833E+02 -8.239649832E+01  2.061976715E+02  1.250000000E+02  0.00000E+00  9.000E+00
      25     1     1     2     0     0 -3.074445440E+01 -1.889916857E+02 -5.547309905E+01  2.352984137E+02  1.250000000E+02  0.00000E+00  9.000E+00
      21     1     1     2   511   502 -2.216687502E+01  5.744820240E+01  3.445655893E+02  3.500244443E+02  5.394796609E-06  0.00000E+00  9.000E+00
#rwgt            1           1   2.8698126213813558E-002           3       88480           0
</event>
<event>
      5   9999  3.19816E-02  7.59618E+01 -1.00000E+00  1.29448E-01
      21    -1     0     0   512   501  0.000000000E+00  0.000000000E+00  4.911155766E+01  4.911155766E+01  0.000000000E+00  0.00000E+00  9.000E+00
      21    -1     0     0   501   502  0.000000000E+00  0.000000000E+00 -1.638506033E+03  1.638506033E+03  0.000000000E+00  0.00000E+00  9.000E+00
      25     1     1     2     0     0  3.624880844E+01 -1.635079470E+02 -6.495685538E+02  6.823585062E+02  1.250000000E+02  0.00000E+00  9.000E+00
      25     1     1     2     0     0  3.959331665E+01  1.592454781E+02 -8.918961291E+02  9.154400352E+02  1.250000000E+02  0.00000E+00  9.000E+00
      21     1     1     2   512   502 -7.584212509E+01  4.262468949E+00 -4.792979214E+01  8.981904895E+01  2.023048729E-06  0.00000E+00  9.000E+00
#rwgt            1           1   2.8131280953510245E-002           3       88558           0
</event>
<event>
      5   9999  3.19816E-02  3.30808E+01 -1.00000E+00  1.50148E-01
      21    -1     0     0   502   501  0.000000000E+00  0.000000000E+00  4.306635187E+02  4.306635187E+02  0.000000000E+00  0.00000E+00  9.000E+00
      21    -1     0     0   511   502  0.000000000E+00  0.000000000E+00 -5.650194881E+02  5.650194881E+02  0.000000000E+00  0.00000E+00  9.000E+00
      25     1     1     2     0     0  1.257613692E+02  2.964340489E+02  2.508731660E+02  4.269091388E+02  1.250000000E+02  0.00000E+00  9.000E+00
      25     1     1     2     0     0 -1.370625558E+02 -2.653435417E+02 -1.998608674E+02  3.804769449E+02  1.250000000E+02  0.00000E+00  9.000E+00
      21     1     1     2   511   501  1.130118667E+01 -3.109050726E+01 -1.853682680E+02  1.882969231E+02  2.697398305E-06  0.00000E+00  9.000E+00
#rwgt            1           1   2.7710100722837017E-002           3       88628           0
</event>
<event>
      5   9999  3.19816E-02  1.80542E+01 -1.00000E+00  1.70122E-01
      21    -1     0     0   502   501  0.000000000E+00  0.000000000E+00  5.442360482E+02  5.442360482E+02  0.000000000E+00  0.00000E+00  9.000E+00
       5    -1     0     0   501     0  0.000000000E+00  0.000000000E+00 -3.695246722E+02  3.695246722E+02  0.000000000E+00  0.00000E+00  9.000E+00
      25     1     1     2     0     0 -2.233963312E+01  2.367603585E+02 -6.204500306E+01  2.757337646E+02  1.250000000E+02  0.00000E+00  9.000E+00
      25     1     1     2     0     0  4.287149791E+00 -2.365143388E+02  3.959191630E+02  4.778434845E+02  1.250000000E+02  0.00000E+00  9.000E+00
       5     1     1     2   502     0  1.805248333E+01 -2.460197020E-01 -1.591627839E+02  1.601834713E+02  2.697398305E-06  0.00000E+00  9.000E+00
#rwgt            1           1   2.8986884419021884E-002           3       88740           0
</event>
<event>
      5   9999  3.19816E-02  1.40029E+02 -1.00000E+00  1.17590E-01
       1    -1     0     0   502     0  0.000000000E+00  0.000000000E+00  1.011136274E+03  1.011136274E+03  0.000000000E+00  0.00000E+00  9.000E+00
      21    -1     0     0   501   502  0.000000000E+00  0.000000000E+00 -6.540182659E+02  6.540182659E+02  0.000000000E+00  0.00000E+00  9.000E+00
      25     1     1     2     0     0  1.152639060E+02  3.899173724E+02  3.195619156E+02  5.320396068E+02  1.250000000E+02  0.00000E+00  9.000E+00
      25     1     1     2     0     0 -1.467485861E+02 -5.263605764E+02 -3.902230560E+02  6.830004666E+02  1.250000000E+02  0.00000E+00  9.000E+00
       1     1     1     2   501     0  3.148468007E+01  1.364432040E+02  4.277791491E+02  4.501144670E+02  9.344061824E-06  0.00000E+00  9.000E+00
#rwgt            1           1   2.9843235173941458E-002           3       88923           0
</event>
<event>
      5   9999  3.19816E-02  2.26234E+01 -1.00000E+00  1.62070E-01
      21    -1     0     0   511   501  0.000000000E+00  0.000000000E+00  9.939661451E+02  9.939661451E+02  0.000000000E+00  0.00000E+00  9.000E+00
      21    -1     0     0   501   502  0.000000000E+00  0.000000000E+00 -6.038745271E+02  6.038745271E+02  0.000000000E+00  0.00000E+00  9.000E+00
      25     1     1     2     0     0  4.899020467E+02  2.437672126E+02 -2.037288660E+01  5.616640667E+02  1.250000000E+02  0.00000E+00  9.000E+00
      25     1     1     2     0     0 -4.838861584E+02 -2.219583462E+02 -7.343294530E+01  5.517505951E+02  1.250000000E+02  0.00000E+00  9.000E+00
      21     1     1     2   511   502 -6.015888288E+00 -2.180886642E+01  4.838974499E+02  4.844260105E+02  0.000000000E+00  0.00000E+00  9.000E+00
#rwgt            2          11   1.4378275610225232E-003           3       89038           0
</event>
<event>
      5   9999  3.19816E-02  3.37921E+01 -1.00000E+00  1.49534E-01
      21    -1     0     0   502   512  0.000000000E+00  0.000000000E+00  1.692978721E+02  1.692978721E+02  0.000000000E+00  0.00000E+00  9.000E+00
      21    -1     0     0   501   502  0.000000000E+00  0.000000000E+00 -5.763193287E+02  5.763193287E+02  0.000000000E+00  0.00000E+00  9.000E+00
      25     1     1     2     0     0  8.336049044E+01  1.321802601E+02 -2.049398500E+01  2.011606223E+02  1.250000000E+02  0.00000E+00  9.000E+00
      25     1     1     2     0     0 -1.013907892E+02 -1.607601925E+02 -4.317440146E+02  4.880080181E+02  1.250000000E+02  0.00000E+00  9.000E+00
      21     1     1     2   501   512  1.803029880E+01  2.857993236E+01  4.521654299E+01  5.644856038E+01  4.768371582E-07  0.00000E+00  9.000E+00
#rwgt            1           1   2.6356472298471465E-002           3       89058           0
</event>
<event>
      5   9999  3.19816E-02  1.53136E+02 -1.00000E+00  1.16039E-01
      21    -1     0     0   502   511  0.000000000E+00  0.000000000E+00  1.906952677E+02  1.906952677E+02  0.000000000E+00  0.00000E+00  9.000E+00
      21    -1     0     0   501   502  0.000000000E+00  0.000000000E+00 -7.205270614E+02  7.205270614E+02  0.000000000E+00  0.00000E+00  9.000E+00
      25     1     1     2     0     0  2.261578968E+02 -2.443909826E+02 -1.851968723E+02  4.009952969E+02  1.250000000E+02  0.00000E+00  9.000E+00
      25     1     1     2     0     0 -1.313405510E+02  1.241400913E+02 -2.360580615E+02  3.225050557E+02  1.250000000E+02  0.00000E+00  9.000E+00
      21     1     1     2   501   511 -9.481734583E+01  1.202508913E+02 -1.085768599E+02  1.877219764E+02  1.907348633E-06  0.00000E+00  9.000E+00
#rwgt            1           1   2.9139230132000007E-002           3       89125           0
</event>
<event>
      5   9999  3.19816E-02  1.57191E+02 -1.00000E+00  1.15593E-01
      21    -1     0     0   502   512  0.000000000E+00  0.000000000E+00  1.857275243E+03  1.857275243E+03  0.000000000E+00  0.00000E+00  9.000E+00
      21    -1     0     0   501   502  0.000000000E+00  0.000000000E+00 -1.409691339E+02  1.409691339E+02  0.000000000E+00  0.00000E+00  9.000E+00
      25     1     1     2     0     0  1.281299019E+02  4.054514544E+01 -6.108289585E+01  1.934355209E+02  1.250000000E+02  0.00000E+00  9.000E+00
      25     1     1     2     0     0 -3.044943878E+01  8.261180236E+01  7.456565667E+02  7.611705417E+02  1.250000000E+02  0.00000E+00  9.000E+00
      21     1     1     2   501   512 -9.768046313E+01 -1.231569478E+02  1.031732439E+03  1.043638315E+03  0.000000000E+00  0.00000E+00  9.000E+00
#rwgt            1           1   2.8844974594713309E-002           3       89159           0
</event>
<event>
      5   9999  3.19816E-02  1.02772E+02 -1.00000E+00  1.23296E-01
      21    -1     0     0   502   511  0.000000000E+00  0.000000000E+00  6.764426118E+01  6.764426118E+01  0.000000000E+00  0.00000E+00  9.000E+00
      21    -1     0     0   501   502  0.000000000E+00  0.000000000E+00 -1.845300514E+03  1.845300514E+03  0.000000000E+00  0.00000E+00  9.000E+00
      25     1     1     2     0     0  1.129457871E+02  1.126986340E+01 -1.281335834E+03  1.292412582E+03  1.250000000E+02  0.00000E+00  9.000E+00
      25     1     1     2     0     0 -3.783916559E+01 -8.142035765E+01 -4.943376112E+02  5.177410075E+02  1.250000000E+02  0.00000E+00  9.000E+00
      21     1     1     2   501   511 -7.510662150E+01  7.015049425E+01 -1.982807467E+00  1.027911862E+02  3.143615305E-06  0.00000E+00  9.000E+00
#rwgt            1           1   9.6966335627086273E-002           3       89264           0
</event>
<event>
      5   9999  3.19816E-02  2.01239E+02 -1.00000E+00  1.11550E-01
       2    -1     0     0   502     0  0.000000000E+00  0.000000000E+00  9.703349825E+02  9.703349825E+02  0.000000000E+00  0.00000E+00  9.000E+00
      21    -1     0     0   501   502  0.000000000E+00  0.000000000E+00 -7.693215451E+02  7.693215451E+02  0.000000000E+00  0.00000E+00  9.000E+00
      25     1     1     2     0     0  6.190118714E+02  8.693961848E+01 -7.338745639E+01  6.416735252E+02  1.250000000E+02  0.00000E+00  9.000E+00
      25     1     1     2     0     0 -4.387250461E+02 -1.763485431E+02 -2.405994592E+02  5.450610741E+02  1.250000000E+02  0.00000E+00  9.000E+00
       2     1     1     2   501     0 -1.802868253E+02  8.940892460E+01  5.150003530E+02  5.529219283E+02  0.000000000E+00  0.00000E+00  9.000E+00
#rwgt            1           1   3.0660320142395281E-002           3       89352           0
</event>
<event>
      5   9999  3.19816E-02  1.43399E+02 -1.00000E+00  1.17173E-01
      21    -1     0     0   502   501  0.000000000E+00  0.000000000E+00  8.851377366E+01  8.851377366E+01  0.000000000E+00  0.00000E+00  9.000E+00
      21    -1     0     0   511   502  0.000000000E+00  0.000000000E+00 -2.161643311E+03  2.161643311E+03  0.000000000E+00  0.00000E+00  9.000E+00
      25     1     1     2     0     0  1.086176578E+02 -6.645117549E+01 -8.976175113E+01  1.997391456E+02  1.250000000E+02  0.00000E+00  9.000E+00
      25     1     1     2     0     0 -2.514944060E+02  5.422182771E+01 -6.601533255E+02  7.194559445E+02  1.250000000E+02  0.00000E+00  9.000E+00
      21     1     1     2   511   501  1.428767482E+02  1.222934778E+01 -1.323214461E+03  1.330961994E+03  2.642899792E-05  0.00000E+00  9.000E+00
#rwgt            1           1   3.0001210309217083E-002           3       89422           0
</event>
<event>
      5   9999  3.19816E-02  9.52817E+01 -1.00000E+00  1.24779E-01
      21    -1     0     0   502   501  0.000000000E+00  0.000000000E+00  1.215354787E+02  1.215354787E+02  0.000000000E+00  0.00000E+00  9.000E+00
       2    -1     0     0   501     0  0.000000000E+00  0.000000000E+00 -8.851635740E+02  8.851635740E+02  0.000000000E+00  0.00000E+00  9.000E+00
      25     1     1     2     0     0  8.585744974E+01 -1.379688117E+02 -2.314044983E+02  3.091600500E+02  1.250000000E+02  0.00000E+00  9.000E+00
      25     1     1     2     0     0 -9.651597462E+01  2.326524983E+02 -1.828664999E+02  3.354216378E+02  1.250000000E+02  0.00000E+00  9.000E+00
       2     1     1     2   502     0  1.065852489E+01 -9.468368665E+01 -3.493570971E+02  3.621173650E+02  0.000000000E+00  0.00000E+00  9.000E+00
#rwgt            2          13   3.3091276177012158E-004           3       89516           0
</event>
<event>
      5   9999  3.19816E-02  1.99080E+02 -1.00000E+00  1.11721E-01
      21    -1     0     0   502   501  0.000000000E+00  0.000000000E+00  9.819558984E+02  9.819558984E+02  0.000000000E+00  0.00000E+00  9.000E+00
      21    -1     0     0   511   502  0.000000000E+00  0.000000000E+00 -2.728612695E+02  2.728612695E+02  0.000000000E+00  0.00000E+00  9.000E+00
      25     1     1     2     0     0 -2.379009351E+02 -1.275572625E+02  1.521211830E+02  3.341160943E+02  1.250000000E+02  0.00000E+00  9.000E+00
      25     1     1     2     0     0  3.292877971E+02  3.044228479E+02  5.512617286E+02  7.215387842E+02  1.250000000E+02  0.00000E+00  9.000E+00
      21     1     1     2   511   501 -9.138686203E+01 -1.768655853E+02  5.711717227E+00  1.991622894E+02  1.332800375E-06  0.00000E+00  9.000E+00
#rwgt            1           1   2.0017368606256448E-002           3       89595           0
</event>
<event>
      5   9999  3.19816E-02  5.57223E+01 -1.00000E+00  1.36443E-01
      21    -1     0     0   512   501  0.000000000E+00  0.000000000E+00  6.213321023E+02  6.213321023E+02  0.000000000E+00  0.00000E+00  9.000E+00
      21    -1     0     0   501   502  0.000000000E+00  0.000000000E+00 -6.077052073E+02  6.077052073E+02  0.000000000E+00  0.00000E+00  9.000E+00
      25     1     1     2     0     0  4.192657479E+02  4.912090533E+00  2.282893212E+02  4.935067478E+02  1.250000000E+02  0.00000E+00  9.000E+00
      25     1     1     2     0     0 -3.868126041E+02 -5.020859106E+01 -3.814329040E+02  5.596971981E+02  1.250000000E+02  0.00000E+00  9.000E+00
      21     1     1     2   512   502 -3.245314379E+01  4.529650053E+01  1.667704778E+02  1.758333637E+02  2.697398305E-06  0.00000E+00  9.000E+00
#rwgt            1           1   2.8251788469302000E-002           3       89648           0
</event>
<event>
      5   9999  3.19816E-02  2.14888E+01 -1.00000E+00  1.63837E-01
      21    -1     0     0   511   501  0.000000000E+00  0.000000000E+00  4.284347212E+02  4.284347212E+02  0.000000000E+00  0.00000E+00  9.000E+00
      21    -1     0     0   501   502  0.000000000E+00  0.000000000E+00 -4.282879104E+02  4.282879104E+02  0.000000000E+00  0.00000E+00  9.000E+00
      25     1     1     2     0     0 -2.870852201E+01 -2.096369034E+02 -3.352910560E+02  4.157125241E+02  1.250000000E+02  0.00000E+00  9.000E+00
      25     1     1     2     0     0  3.372558295E+01  2.305318528E+02  3.035078607E+02  4.025225107E+02  1.250000000E+02  0.00000E+00  9.000E+00
      21     1     1     2   511   502 -5.017060948E+00 -2.089494939E+01  3.193000605E+01  3.848759666E+01  4.768371582E-07  0.00000E+00  9.000E+00
#rwgt            1           1   2.9119314741029991E-002           3       89724           0
</event>
<event>
      5   9999  3.19816E-02  1.69599E+02 -1.00000E+00  1.14318E-01
      21    -1     0     0   502   501  0.000000000E+00  0.000000000E+00  5.431964400E+02  5.431964400E+02  0.000000000E+00  0.00000E+00  9.000E+00
      21    -1     0     0   501   512  0.000000000E+00  0.000000000E+00 -5.331173547E+02  5.331173547E+02  0.000000000E+00  0.00000E+00  9.000E+00
      25     1     1     2     0     0  1.201075455E+02  5.275616689E+01  4.543703194E+02  4.891691147E+02  1.250000000E+02  0.00000E+00  9.000E+00
      25     1     1     2     0     0  4.755381996E+01 -2.719496607E+01 -3.035542341E+01  1.398119584E+02  1.250000000E+02  0.00000E+00  9.000E+00
      21     1     1     2   502   512 -1.676613655E+02 -2.556120081E+01 -4.139358107E+02  4.473327217E+02  5.394796609E-06  0.00000E+00  9.000E+00
#rwgt            1           1   2.5294577999474287E-002           3       89883           0
</event>
<event>
      5   9999  3.19816E-02  4.81529E+02 -1.00000E+00  9.93186E-02
      21    -1     0     0   502   501  0.000000000E+00  0.000000000E+00  2.120258226E+03  2.120258226E+03  0.000000000E+00  0.00000E+00  9.000E+00
       4    -1     0     0   501     0  0.000000000E+00  0.000000000E+00 -1.707204994E+03  1.707204994E+03  0.000000000E+00  0.00000E+00  9.000E+00
      25     1     1     2     0     0  1.323017080E+03 -1.252651612E+02 -5.107545648E+02  1.429181856E+03  1.250000000E+02  0.00000E+00  9.000E+00
      25     1     1     2     0     0 -1.289619566E+03  6.056350776E+02  1.178799595E+03  1.853403884E+03  1.250000000E+02  0.00000E+00  9.000E+00
       4     1     1     2   502     0 -3.339751330E+01 -4.803699164E+02 -2.549917974E+02  5.448774791E+02  0.000000000E+00  0.00000E+00  9.000E+00
#rwgt            1           1   4.4410862105850026E-002           3       89915           0
</event>
<event>
      5   9999  3.19816E-02  3.10876E+01 -1.00000E+00  1.51973E-01
      21    -1     0     0   502   501  0.000000000E+00  0.000000000E+00  6.656079422E+02  6.656079422E+02  0.000000000E+00  0.00000E+00  9.000E+00
      21    -1     0     0   511   502  0.000000000E+00  0.000000000E+00 -2.353674284E+03  2.353674284E+03  0.000000000E+00  0.00000E+00  9.000E+00
      25     1     1     2     0     0  5.685722811E+02  3.456834306E+02  7.045856397E+01  6.807061644E+02  1.250000000E+02  0.00000E+00  9.000E+00
      25     1     1     2     0     0 -5.413435500E+02 -3.606845802E+02 -8.852551436E+01  6.682873426E+02  1.250000000E+02  0.00000E+00  9.000E+00
      21     1     1     2   511   501 -2.722873107E+01  1.500114961E+01 -1.669999392E+03  1.670288719E+03  2.157918644E-05  0.00000E+00  9.000E+00
#rwgt            1           1   3.1495920555245312E-002           3       89977           0
</event>
<event>
      5   9999  3.19816E-02  2.96032E+02 -1.00000E+00  1.05780E-01
      21    -1     0     0   502   501  0.000000000E+00  0.000000000E+00  6.247174809E+02  6.247174809E+02  0.000000000E+00  0.00000E+00  9.000E+00
      21    -1     0     0   501   512  0.000000000E+00  0.000000000E+00 -4.804644240E+02  4.804644240E+02  0.000000000E+00  0.00000E+00  9.000E+00
      25     1     1     2     0     0  1.258843461E+02 -5.866454117E+01  4.227575811E+02  4.622092268E+02  1.250000000E+02  0.00000E+00  9.000E+00
      25     1     1     2     0     0 -7.200043954E+01 -2.324218038E+02 -7.468654563E+01  2.835613483E+02  1.250000000E+02  0.00000E+00  9.000E+00
      21     1     1     2   502   512 -5.388390652E+01  2.910863450E+02 -2.038179785E+02  3.594113298E+02  7.136645101E-06  0.00000E+00  9.000E+00
#rwgt            1           1   2.8867400739911866E-002           3       90169           0
</event>
<event>
      5   9999  3.19816E-02  2.13502E+02 -1.00000E+00  1.10625E-01
      21    -1     0     0   502   501  0.000000000E+00  0.000000000E+00  3.458632273E+02  3.458632273E+02  0.000000000E+00  0.00000E+00  9.000E+00
      21    -1     0     0   501   511  0.000000000E+00  0.000000000E+00 -3.007787256E+02  3.007787256E+02  0.000000000E+00  0.00000E+00  9.000E+00
      25     1     1     2     0     0  8.323638251E+01 -1.257997495E+01 -5.880494791E+01  1.617701241E+02  1.250000000E+02  0.00000E+00  9.000E+00
      25     1     1     2     0     0  6.178363350E+01  1.692712808E+02  1.509633081E+02  2.662421910E+02  1.250000000E+02  0.00000E+00  9.000E+00
      21     1     1     2   502   511 -1.450200160E+02 -1.566913058E+02 -4.707385857E+01  2.186296378E+02  2.611744678E-06  0.00000E+00  9.000E+00
#rwgt            1           1   3.1270336557926902E-002           3       90214           0
</event>
<event>
      5   9999  3.19816E-02  2.49330E+02 -1.00000E+00  1.08270E-01
      21    -1     0     0   502   501  0.000000000E+00  0.000000000E+00  1.901397631E+02  1.901397631E+02  0.000000000E+00  0.00000E+00  9.000E+00
      21    -1     0     0   501   512  0.000000000E+00  0.000000000E+00 -1.186624200E+03  1.186624200E+03  0.000000000E+00  0.00000E+00  9.000E+00
      25     1     1     2     0     0 -2.971541055E+02  1.852384064E+01 -3.544023150E+02  4.794472818E+02  1.250000000E+02  0.00000E+00  9.000E+00
      25     1     1     2     0     0  6.316514334E+01  6.758461573E+01  4.866825228E+01  1.629451269E+02  1.250000000E+02  0.00000E+00  9.000E+00
      21     1     1     2   502   512  2.339889622E+02 -8.610845637E+01 -6.907503744E+02  7.343715548E+02  1.321449896E-05  0.00000E+00  9.000E+00
#rwgt            1           1   2.6438564605790905E-002           3       90242           0
</event>
<event>
      5   9999  3.19816E-02  1.69882E+01 -1.00000E+00  1.72438E-01
      21    -1     0     0   502   501  0.000000000E+00  0.000000000E+00  1.276278737E+02  1.276278737E+02  0.000000000E+00  0.00000E+00  9.000E+00
      21    -1     0     0   501   511  0.000000000E+00  0.000000000E+00 -3.349456036E+02  3.349456036E+02  0.000000000E+00  0.00000E+00  9.000E+00
      25     1     1     2     0     0  1.407130774E+02  1.339180337E+01 -8.662234694E+01  2.076245205E+02  1.250000000E+02  0.00000E+00  9.000E+00
      25     1     1     2     0     0 -1.544470016E+02 -3.392959116E+00 -8.643056257E+01  2.167040162E+02  1.250000000E+02  0.00000E+00  9.000E+00
      21     1     1     2   502   511  1.373392422E+01 -9.998844259E+00 -3.426482038E+01  3.824494054E+01  0.000000000E+00  0.00000E+00  9.000E+00
#rwgt            1           1   3.1189806214145275E-002           3       90293           0
</event>
<event>
      5   9999  3.19816E-02  5.14271E+01 -1.00000E+00  1.38382E-01
      -4    -1     0     0     0   501  0.000000000E+00  0.000000000E+00  3.696581273E+02  3.696581273E+02  0.000000000E+00  0.00000E+00  9.000E+00
      21    -1     0     0   501   502  0.000000000E+00  0.000000000E+00 -1.866548075E+02  1.866548075E+02  0.000000000E+00  0.00000E+00  9.000E+00
      25     1     1     2     0     0  1.302401855E+02 -4.064513728E+01 -5.678597556E+01  1.935566587E+02  1.250000000E+02  0.00000E+00  9.000E+00
      25     1     1     2     0     0 -1.621596039E+02  8.096758826E+01  2.035003302E+02  2.998147293E+02  1.250000000E+02  0.00000E+00  9.000E+00
      -4     1     1     2     0   502  3.191941848E+01 -4.032245098E+01  3.628896514E+01  6.294154685E+01  8.259061849E-07  0.00000E+00  9.000E+00
#rwgt            1           1   3.1710097397190357E-002           3       90432           0
</event>
<event>
      5   9999  3.19816E-02  3.28913E+01 -1.00000E+00  1.50315E-01
      21    -1     0     0   502   501  0.000000000E+00  0.000000000E+00  1.840991781E+03  1.840991781E+03  0.000000000E+00  0.00000E+00  9.000E+00
      21    -1     0     0   501   511  0.000000000E+00  0.000000000E+00 -7.513165722E+01  7.513165722E+01  0.000000000E+00  0.00000E+00  9.000E+00
      25     1     1     2     0     0  6.680991506E+01 -1.117561627E+02  1.616798379E+03  1.626842034E+03  1.250000000E+02  0.00000E+00  9.000E+00
      25     1     1     2     0     0 -9.960867649E+01  1.092908839E+02  1.634396355E+02  2.533848855E+02  1.250000000E+02  0.00000E+00  9.000E+00
      21     1     1     2   502   511  3.279876143E+01  2.465278789E+00 -1.437789051E+01  3.589651914E+01  8.429369702E-07  0.00000E+00  9.000E+00
#rwgt            1           1   3.6006530627785596E-002           3       90564           0
</event>
<event>
      5   9999  3.19816E-02  4.13919E+01 -1.00000E+00  1.43925E-01
      21    -1     0     0   502   501  0.000000000E+00  0.000000000E+00  2.295316925E+03  2.295316925E+03  0.000000000E+00  0.00000E+00  9.000E+00
      -1    -1     0     0     0   502  0.000000000E+00  0.000000000E+00 -1.688803736E+02  1.688803736E+02  0.000000000E+00  0.00000E+00  9.000E+00
      25     1     1     2     0     0 -6.926131705E+01 -1.837978761E+01  1.949114995E+03  1.954433219E+03  1.250000000E+02  0.00000E+00  9.000E+00
      25     1     1     2     0     0  9.917220804E+01 -1.023186806E+01  3.218756827E+02  3.594005747E+02  1.250000000E+02  0.00000E+00  9.000E+00
      -1     1     1     2     0   501 -2.991089099E+01  2.861165567E+01 -1.445541258E+02  1.503635046E+02  6.031565972E-06  0.00000E+00  9.000E+00
#rwgt            1           1   7.0080563869081236E-002           3       90669           0
</event>
<event>
      5   9999  3.19816E-02  1.67136E+01 -1.00000E+00  1.73069E-01
      21    -1     0     0   511   501  0.000000000E+00  0.000000000E+00  8.350957438E+01  8.350957438E+01  0.000000000E+00  0.00000E+00  9.000E+00
      21    -1     0     0   501   502  0.000000000E+00  0.000000000E+00 -1.678695964E+03  1.678695964E+03  0.000000000E+00  0.00000E+00  9.000E+00
      25     1     1     2     0     0 -2.511113524E+00  2.776742384E+02 -1.234558850E+03  1.271561970E+03  1.250000000E+02  0.00000E+00  9.000E+00
      25     1     1     2     0     0  1.433726560E+01 -2.894846318E+02 -3.469372891E+02  4.690387956E+02  1.250000000E+02  0.00000E+00  9.000E+00
      21     1     1     2   511   502 -1.182615208E+01  1.181039337E+01 -1.369025049E+01  2.160477315E+01  0.000000000E+00  0.00000E+00  9.000E+00
#rwgt            1           1   3.0458751051315441E-002           3       90790           0
</event>
<event>
      5   9999  3.19816E-02  1.06556E+02 -1.00000E+00  1.22600E-01
      21    -1     0     0   512   501  0.000000000E+00  0.000000000E+00  2.893943579E+02  2.893943579E+02  0.000000000E+00  0.00000E+00  9.000E+00
      21    -1     0     0   501   502  0.000000000E+00  0.000000000E+00 -9.252290311E+02  9.252290311E+02  0.000000000E+00  0.00000E+00  9.000E+00
      25     1     1     2     0     0 -8.723771428E+01  3.048209944E+02 -5.738742272E+02  6.674450435E+02  1.250000000E+02  0.00000E+00  9.000E+00
      25     1     1     2     0     0  1.669089418E+02 -3.755794308E+02 -1.266536857E+01  4.297719340E+02  1.250000000E+02  0.00000E+00  9.000E+00
      21     1     1     2   512   502 -7.967122749E+01  7.075843644E+01 -4.929507738E+01  1.174064115E+02  6.743495762E-07  0.00000E+00  9.000E+00
#rwgt            1           1   2.8748411874554607E-002           3       90991           0
</event>
<event>
      5   9999  3.19816E-02  1.82947E+01 -1.00000E+00  1.69627E-01
      21    -1     0     0   502   511  0.000000000E+00  0.000000000E+00  3.532758875E+02  3.532758875E+02  0.000000000E+00  0.00000E+00  9.000E+00
      21    -1     0     0   501   502  0.000000000E+00  0.000000000E+00 -2.263857958E+02  2.263857958E+02  0.000000000E+00  0.00000E+00  9.000E+00
      25     1     1     2     0     0  1.718257706E+02  3.611770187E+01 -6.081987386E+01  2.239478530E+02  1.250000000E+02  0.00000E+00  9.000E+00
      25     1     1     2     0     0 -1.879597700E+02 -4.474275448E+01  7.574873676E+01  2.422677452E+02  1.250000000E+02  0.00000E+00  9.000E+00
      21     1     1     2   501   511  1.613399947E+01  8.625052616E+00  1.119612288E+02  1.134460851E+02  1.348699152E-06  0.00000E+00  9.000E+00
#rwgt            1           1   2.8774504152160155E-002           3       91058           0
</event>
<event>
      5   9999  3.19816E-02  1.04096E+02 -1.00000E+00  1.23049E-01
      21    -1     0     0   502   512  0.000000000E+00  0.000000000E+00  1.467054060E+03  1.467054060E+03  0.000000000E+00  0.00000E+00  9.000E+00
      21    -1     0     0   501   502  0.000000000E+00  0.000000000E+00 -2.121525389E+02  2.121525389E+02  0.000000000E+00  0.00000E+00  9.000E+00
      25     1     1     2     0     0 -2.270458093E+01 -1.624127237E+00 -1.754044103E+02  2.165868023E+02  1.250000000E+02  0.00000E+00  9.000E+00
      25     1     1     2     0     0  4.864529059E+01  1.024356996E+02  1.172608536E+03  1.184692034E+03  1.250000000E+02  0.00000E+00  9.000E+00
      21     1     1     2   501   512 -2.594070966E+01 -1.008115724E+02  2.576973956E+02  2.779277627E+02  5.394796609E-06  0.00000E+00  9.000E+00
#rwgt            1           1   1.9976119592125727E-002           3       91194           0
</event>
<event>
      5   9999  3.19816E-02  1.38816E+02 -1.00000E+00  1.17743E-01
      21    -1     0     0   502   511  0.000000000E+00  0.000000000E+00  1.258818955E+03  1.258818955E+03  0.000000000E+00  0.00000E+00  9.000E+00
      21    -1     0     0   501   502  0.000000000E+00  0.000000000E+00 -1.091830739E+02  1.091830739E+02  0.000000000E+00  0.00000E+00  9.000E+00
      25     1     1     2     0     0  1.693813270E+02  6.223466653E+01  1.204955150E+02  2.504143702E+02  1.250000000E+02  0.00000E+00  9.000E+00
      25     1     1     2     0     0 -6.564665204E+01 -1.544783089E+02  2.493395675E+02  3.255276498E+02  1.250000000E+02  0.00000E+00  9.000E+00
      21     1     1     2   501   511 -1.037346750E+02  9.224364240E+01  7.798007982E+02  7.920600086E+02  1.078959322E-05  0.00000E+00  9.000E+00
#rwgt            1           1   3.0722674462284369E-002           3       91256           0
</event>
<event>
      5   9999  3.19816E-02  2.31759E+01 -1.00000E+00  1.61256E-01
      21    -1     0     0   502   512  0.000000000E+00  0.000000000E+00  9.231410430E+02  9.231410430E+02  0.000000000E+00  0.00000E+00  9.000E+00
      21    -1     0     0   501   502  0.000000000E+00  0.000000000E+00 -3.535052145E+02  3.535052145E+02  0.000000000E+00  0.00000E+00  9.000E+00
      25     1     1     2     0     0  4.712932804E+02  1.485671601E+02  2.337802877E+02  5.607742684E+02  1.250000000E+02  0.00000E+00  9.000E+00
      25     1     1     2     0     0 -4.937034270E+02 -1.426590458E+02  1.805611647E+02  5.588577739E+02  1.250000000E+02  0.00000E+00  9.000E+00
      21     1     1     2   501   512  2.241014660E+01 -5.908114251E+00  1.552943762E+02  1.570142151E+02  0.000000000E+00  0.00000E+00  9.000E+00
#rwgt            1           1   2.7741403394506647E-002           3       91298           0
</event>
<event>
      5   9999  3.19816E-02  2.01103E+01 -1.00000E+00  1.66172E-01
      21    -1     0     0   502   501  0.000000000E+00  0.000000000E+00  5.116061820E+02  5.116061820E+02  0.000000000E+00  0.00000E+00  9.000E+00
      21    -1     0     0   501   511  0.000000000E+00  0.000000000E+00 -3.755676871E+02  3.755676871E+02  0.000000000E+00  0.00000E+00  9.000E+00
      25     1     1     2     0     0 -6.975481825E+01 -3.947009469E+02  1.349674498E+02  4.410167623E+02  1.250000000E+02  0.00000E+00  9.000E+00
      25     1     1     2     0     0  8.985841016E+01  3.941824004E+02  1.184348929E+01  4.233433204E+02  1.250000000E+02  0.00000E+00  9.000E+00
      21     1     1     2   502   511 -2.010359190E+01  5.185464535E-01 -1.077244418E+01  2.281378643E+01  3.153981341E-07  0.00000E+00  9.000E+00
#rwgt            1           1   2.8890549279786456E-002           3       91520           0
</event>
<event>
      5   9999  3.19816E-02  4.79334E+01 -1.00000E+00  1.40130E-01
      21    -1     0     0   502   501  0.000000000E+00  0.000000000E+00  1.321952210E+03  1.321952210E+03  0.000000000E+00  0.00000E+00  9.000E+00
      21    -1     0     0   501   512  0.000000000E+00  0.000000000E+00 -3.705173581E+01  3.705173581E+01  0.000000000E+00  0.00000E+00  9.000E+00
      25     1     1     2     0     0  2.195073282E+01  8.257512348E+01  1.019234676E+03  1.030419726E+03  1.250000000E+02  0.00000E+00  9.000E+00
      25     1     1     2     0     0 -2.850879516E+01 -3.509247092E+01  1.352383535E+02  1.896276487E+02  1.250000000E+02  0.00000E+00  9.000E+00
      21     1     1     2   502   512  6.558062345E+00 -4.748265257E+01  1.304274443E+02  1.389565713E+02  0.000000000E+00  0.00000E+00  9.000E+00
#rwgt            1           1   2.6072057411400906E-002           3       91701           0
</event>
<event>
      5   9999  3.19816E-02  1.00177E+02 -1.00000E+00  1.23793E-01
      21    -1     0     0   502   501  0.000000000E+00  0.000000000E+00  7.898858306E+01  7.898858306E+01  0.000000000E+00  0.00000E+00  9.000E+00
      21    -1     0     0   511   502  0.000000000E+00  0.000000000E+00 -2.494595261E+03  2.494595261E+03  0.000000000E+00  0.00000E+00  9.000E+00
      25     1     1     2     0     0 -7.735164732E+01  1.143210833E+02 -2.014415744E+03  2.023004789E+03  1.250000000E+02  0.00000E+00  9.000E+00
      25     1     1     2     0     0 -1.688331988E+01 -1.483096384E+02 -7.381230832E+01  2.082163591E+02  1.250000000E+02  0.00000E+00  9.000E+00
      21     1     1     2   511   501  9.423496720E+01  3.398855515E+01 -3.273786254E+02  3.423626956E+02  3.814697266E-06  0.00000E+00  9.000E+00
#rwgt            1           1   2.6199232512681879E-002           3       91772           0
</event>
<event>
      5   9999  3.19816E-02  4.30532E+02 -1.00000E+00  1.00733E-01
      21    -1     0     0   512   501  0.000000000E+00  0.000000000E+00  3.241339365E+02  3.241339365E+02  0.000000000E+00  0.00000E+00  9.000E+00
      21    -1     0     0   501   502  0.000000000E+00  0.000000000E+00 -2.482515380E+03  2.482515380E+03  0.000000000E+00  0.00000E+00  9.000E+00
      25     1     1     2     0     0 -5.109036190E+02 -1.899390439E+00 -1.315829598E+03  1.417059860E+03  1.250000000E+02  0.00000E+00  9.000E+00
      25     1     1     2     0     0  4.695971736E+02  4.304451406E+02 -3.577910801E+02  7.412448863E+02  1.250000000E+02  0.00000E+00  9.000E+00
      21     1     1     2   512   502  4.130644537E+01 -4.285457501E+02 -4.847607659E+02  6.483445709E+02  9.344061824E-06  0.00000E+00  9.000E+00
#rwgt            1           1   3.3238426500452507E-002           3       91864           0
</event>
<event>
      5   9999  3.19816E-02  5.92966E+01 -1.00000E+00  1.34978E-01
      21    -1     0     0   502   501  0.000000000E+00  0.000000000E+00  1.543613862E+02  1.543613862E+02  0.000000000E+00  0.00000E+00  9.000E+00
      21    -1     0     0   511   502  0.000000000E+00  0.000000000E+00 -7.948824898E+02  7.948824898E+02  0.000000000E+00  0.00000E+00  9.000E+00
      25     1     1     2     0     0  4.938789660E+01 -1.020842607E+02  9.669867545E+00  1.690528526E+02  1.250000000E+02  0.00000E+00  9.000E+00
      25     1     1     2     0     0 -4.685013511E+00  1.410424087E+02 -7.651112421E+01  2.034548169E+02  1.250000000E+02  0.00000E+00  9.000E+00
      21     1     1     2   511   501 -4.470288309E+01 -3.895814797E+01 -5.736798469E+02  5.767362065E+02  0.000000000E+00  0.00000E+00  9.000E+00
#rwgt            1           1   3.1155915268766605E-002           3       91943           0
</event>
<event>
      5   9999  3.19816E-02  1.09450E+02 -1.00000E+00  1.22089E-01
      21    -1     0     0   502   501  0.000000000E+00  0.000000000E+00  2.576184538E+02  2.576184538E+02  0.000000000E+00  0.00000E+00  9.000E+00
      21    -1     0     0   501   512  0.000000000E+00  0.000000000E+00 -1.414184274E+03  1.414184274E+03  0.000000000E+00  0.00000E+00  9.000E+00
      25     1     1     2     0     0 -3.039685807E+02  2.342077755E+01  6.347162248E+01  3.355578605E+02  1.250000000E+02  0.00000E+00  9.000E+00
      25     1     1     2     0     0  4.046957099E+02  1.939649965E+01 -1.066461127E+03  1.147658127E+03  1.250000000E+02  0.00000E+00  9.000E+00
      21     1     1     2   502   512 -1.007271292E+02 -4.281727720E+01 -1.535763167E+02  1.885867408E+02  1.907348633E-06  0.00000E+00  9.000E+00
#rwgt            1           1   2.5193928876507031E-002           3       92013           0
</event>
<event>
      5   9999  3.19816E-02  3.13668E+01 -1.00000E+00  1.51708E-01
      21    -1     0     0   502   511  0.000000000E+00  0.000000000E+00  6.409722127E+02  6.409722127E+02  0.000000000E+00  0.00000E+00  9.000E+00
      21    -1     0     0   501   502  0.000000000E+00  0.000000000E+00 -7.204588633E+01  7.204588633E+01  0.000000000E+00  0.00000E+00  9.000E+00
      25     1     1     2     0     0 -1.326278064E+02 -6.299513687E+01  2.014872301E+02  2.788917822E+02  1.250000000E+02  0.00000E+00  9.000E+00
      25     1     1     2     0     0  1.039875179E+02  7.578604218E+01  2.223968404E+02  2.857311371E+02  1.250000000E+02  0.00000E+00  9.000E+00
      21     1     1     2   501   511  2.864028851E+01 -1.279090531E+01  1.450422559E+02  1.483951798E+02  1.907348633E-06  0.00000E+00  9.000E+00
#rwgt            1           1   3.1379422391223946E-002           3       92119           0
</event>
<event>
      5   9999  3.19816E-02  3.41855E+02 -1.00000E+00  1.03781E-01
      21    -1     0     0   502   501  0.000000000E+00  0.000000000E+00  9.540569320E+02  9.540569320E+02  0.000000000E+00  0.00000E+00  9.000E+00
      21    -1     0     0   512   502  0.000000000E+00  0.000000000E+00 -7.360196772E+02  7.360196772E+02  0.000000000E+00  0.00000E+00  9.000E+00
      25     1     1     2     0     0 -1.867469874E+02 -5.361957843E+02  4.156633921E+01  5.828662943E+02  1.250000000E+02  0.00000E+00  9.000E+00
      25     1     1     2     0     0 -1.106131112E+02  7.048424864E+02  2.326246049E+02  7.607742094E+02  1.250000000E+02  0.00000E+00  9.000E+00
      21     1     1     2   512   501  2.973600986E+02 -1.686467020E+02 -5.615368937E+01  3.464361054E+02  2.132480600E-06  0.00000E+00  9.000E+00
#rwgt            2          11   3.8241858712031104E-003           3       92254           0
</event>
<event>
      5   9999  3.19816E-02  2.09156E+01 -1.00000E+00  1.64781E-01
      21    -1     0     0   502   501  0.000000000E+00  0.000000000E+00  3.984101264E+02  3.984101264E+02  0.000000000E+00  0.00000E+00  9.000E+00
      21    -1     0     0   511   502  0.000000000E+00  0.000000000E+00 -1.614856437E+03  1.614856437E+03  0.000000000E+00  0.00000E+00  9.000E+00
      25     1     1     2     0     0  4.179427927E+01  3.495996079E+01 -1.889328790E+02  2.330012734E+02  1.250000000E+02  0.00000E+00  9.000E+00
      25     1     1     2     0     0 -4.103518184E+01 -1.405810044E+01  3.646666040E+02  3.879281485E+02  1.250000000E+02  0.00000E+00  9.000E+00
      21     1     1     2   511   501 -7.590974347E-01 -2.090186035E+01 -1.392180036E+03  1.392337142E+03  1.525878906E-05  0.00000E+00  9.000E+00
#rwgt            1           1   2.8833963881488119E-002           3       92274           0
</event>
<event>
      5   9999  3.19816E-02  9.89869E+01 -1.00000E+00  1.24027E-01
      21    -1     0     0   502   501  0.000000000E+00  0.000000000E+00  8.383942187E+02  8.383942187E+02  0.000000000E+00  0.00000E+00  9.000E+00
      21    -1     0     0   512   502  0.000000000E+00  0.000000000E+00 -4.337261209E+02  4.337261209E+02  0.000000000E+00  0.00000E+00  9.000E+00
      25     1     1     2     0     0 -2.160823260E+02 -1.546228948E+02  6.759454003E+02  7.369715024E+02  1.250000000E+02  0.00000E+00  9.000E+00
      25     1     1     2     0     0  2.009618613E+02  5.679765204E+01  3.159040987E+00  2.434062911E+02  1.250000000E+02  0.00000E+00  9.000E+00
      21     1     1     2   512   501  1.512046469E+01  9.782524274E+01 -2.744363435E+02  2.917425461E+02  3.814697266E-06  0.00000E+00  9.000E+00
#rwgt            1           1   2.9654935841916825E-002           3       92400           0
</event>
<event>
      5   9999  3.19816E-02  1.93236E+01 -1.00000E+00  1.67611E-01
      21    -1     0     0   502   501  0.000000000E+00  0.000000000E+00  1.698011675E+03  1.698011675E+03  0.000000000E+00  0.00000E+00  9.000E+00
      21    -1     0     0   501   511  0.000000000E+00  0.000000000E+00 -2.197990801E+02  2.197990801E+02  0.000000000E+00  0.00000E+00  9.000E+00
      25     1     1     2     0     0 -1.826824878E+02 -5.077677847E+02  1.090104453E+03  1.222764790E+03  1.250000000E+02  0.00000E+00  9.000E+00
      25     1     1     2     0     0  1.995847176E+02  4.984020587E+02  3.905500620E+02  6.755686660E+02  1.250000000E+02  0.00000E+00  9.000E+00
      21     1     1     2   502   511 -1.690222982E+01  9.365726071E+00 -2.441919721E+00  1.947729883E+01  3.746093836E-07  0.00000E+00  9.000E+00
#rwgt            1           1   2.8934211632091662E-002           3       92552           0
</event>
<event>
      5   9999  3.19816E-02  4.95623E+01 -1.00000E+00  1.39294E-01
      21    -1     0     0   502   512  0.000000000E+00  0.000000000E+00  1.767707887E+03  1.767707887E+03  0.000000000E+00  0.00000E+00  9.000E+00
      21    -1     0     0   501   502  0.000000000E+00  0.000000000E+00 -8.746367023E+02  8.746367023E+02  0.000000000E+00  0.00000E+00  9.000E+00
      25     1     1     2     0     0  8.185650515E+02  4.843258701E+02 -3.602724148E+02  1.024715329E+03  1.250000000E+02  0.00000E+00  9.000E+00
      25     1     1     2     0     0 -7.902746051E+02 -5.250206990E+02  1.107956285E+03  1.464026235E+03  1.250000000E+02  0.00000E+00  9.000E+00
      21     1     1     2   501   512 -2.829044640E+01  4.069482892E+01  1.453873148E+02  1.536030265E+02  1.907348633E-06  0.00000E+00  9.000E+00
#rwgt            1           1   4.9580021906810295E-002           3       92708           0
</event>
<event>
      5   9999  3.19816E-02  4.50858E+02 -1.00000E+00  1.00145E-01
       2    -1     0     0   502     0  0.000000000E+00  0.000000000E+00  7.561067550E+02  7.561067550E+02  0.000000000E+00  0.00000E+00  9.000E+00
      21    -1     0     0   501   502  0.000000000E+00  0.000000000E+00 -1.212577161E+03  1.212577161E+03  0.000000000E+00  0.00000E+00  9.000E+00
      25     1     1     2     0     0  2.763328113E+02  3.585708197E+02 -3.298346492E+02  5.738891454E+02  1.250000000E+02  0.00000E+00  9.000E+00
      25     1     1     2     0     0 -5.134319119E+02 -7.420507602E+02  4.570325554E+01  9.121213990E+02  1.250000000E+02  0.00000E+00  9.000E+00
       2     1     1     2   501     0  2.370991006E+02  3.834799405E+02 -1.723390118E+02  4.826733712E+02  1.061966775E-05  0.00000E+00  9.000E+00
#rwgt            1           1   3.1252209337978405E-002           3       92836           0
</event>
<event>
      5   9999  3.19816E-02  1.63199E+02 -1.00000E+00  1.14960E-01
      21    -1     0     0   502   511  0.000000000E+00  0.000000000E+00  2.051237662E+02  2.051237662E+02  0.000000000E+00  0.00000E+00  9.000E+00
      21    -1     0     0   501   502  0.000000000E+00  0.000000000E+00 -1.946133400E+03  1.946133400E+03  0.000000000E+00  0.00000E+00  9.000E+00
      25     1     1     2     0     0 -1.624769400E+02  1.869112115E+02 -1.720555138E+03  1.742776389E+03  1.250000000E+02  0.00000E+00  9.000E+00
      25     1     1     2     0     0  1.331226626E+01 -1.207008001E+02 -1.251787494E+02  2.145707782E+02  1.250000000E+02  0.00000E+00  9.000E+00
      21     1     1     2   501   511  1.491646738E+02 -6.621041142E+01  1.047242539E+02  1.939099993E+02  1.348699152E-06  0.00000E+00  9.000E+00
#rwgt            1           1   1.8475662000281067E-002           3       92890           0
</event>
<event>
      5   9999  3.19816E-02  6.22344E+01 -1.00000E+00  1.33860E-01
      21    -1     0     0   502   501  0.000000000E+00  0.000000000E+00  4.156137872E+02  4.156137872E+02  0.000000000E+00  0.00000E+00  9.000E+00
      21    -1     0     0   512   502  0.000000000E+00  0.000000000E+00 -3.060761355E+02  3.060761355E+02  0.000000000E+00  0.00000E+00  9.000E+00
      25     1     1     2     0     0 -1.335166138E+02 -1.375283675E+02  2.606819456E+02  3.468729087E+02  1.250000000E+02  0.00000E+00  9.000E+00
      25     1     1     2     0     0  1.896933409E+02  1.643107788E+02 -1.166986285E+02  3.036859653E+02  1.250000000E+02  0.00000E+00  9.000E+00
      21     1     1     2   512   501 -5.617672710E+01 -2.678241133E+01 -3.444566542E+01  7.113104871E+01  1.168007728E-06  0.00000E+00  9.000E+00
#rwgt            1           1   2.6941089008048539E-002           3       92967           0
</event>
<event>
      5   9999  3.19816E-02  3.44774E+01 -1.00000E+00  1.48959E-01
      21    -1     0     0   502   501  0.000000000E+00  0.000000000E+00  9.369355489E+02  9.369355489E+02  0.000000000E+00  0.00000E+00  9.000E+00
      21    -1     0     0   501   511  0.000000000E+00  0.000000000E+00 -1.607490307E+02  1.607490307E+02  0.000000000E+00  0.00000E+00  9.000E+00
      25     1     1     2     0     0 -1.818574786E+02  4.002392420E+01  7.694723351E+02  8.014903190E+02  1.250000000E+02  0.00000E+00  9.000E+00
      25     1     1     2     0     0  2.012519711E+02 -1.151875631E+01  4.841888681E+01  2.420835108E+02  1.250000000E+02  0.00000E+00  9.000E+00
      21     1     1     2   502   511 -1.939449251E+01 -2.850516789E+01 -4.170470372E+01  5.411074984E+01  1.066240300E-06  0.00000E+00  9.000E+00
#rwgt            1           1   2.6673070060074251E-002           3       93067           0
</event>
<event>
      5   9999  3.19816E-02  5.53139E+01 -1.00000E+00  1.36618E-01
      21    -1     0     0   502   501  0.000000000E+00  0.000000000E+00  1.335099758E+02  1.335099758E+02  0.000000000E+00  0.00000E+00  9.000E+00
       1    -1     0     0   501     0  0.000000000E+00  0.000000000E+00 -2.908157448E+03  2.908157448E+03  0.000000000E+00  0.00000E+00  9.000E+00
      25     1     1     2     0     0  2.542588042E+02  5.800208468E+01 -7.717105808E+02  8.241201380E+02  1.250000000E+02  0.00000E+00  9.000E+00
      25     1     1     2     0     0 -1.989934579E+02 -5.568470507E+01 -2.945869567E+01  2.432940555E+02  1.250000000E+02  0.00000E+00  9.000E+00
       1     1     1     2   502     0 -5.526534631E+01 -2.317379617E+00 -1.973478196E+03  1.974253231E+03  2.157918644E-05  0.00000E+00  9.000E+00
#rwgt            1           1   3.0232191694643942E-002           3       93163           0
</event>
<event>
      5   9999  3.19816E-02  1.23136E+03 -1.00000E+00  8.88728E-02
      21    -1     0     0   502   501  0.000000000E+00  0.000000000E+00  2.968622074E+03  2.968622074E+03  0.000000000E+00  0.00000E+00  9.000E+00
       2    -1     0     0   501     0  0.000000000E+00  0.000000000E+00 -1.899802533E+03  1.899802533E+03  0.000000000E+00  0.00000E+00  9.000E+00
      25     1     1     2     0     0 -1.535449486E+03 -1.893710439E+02  1.551389062E+03  2.194515786E+03  1.250000000E+02  0.00000E+00  9.000E+00
      25     1     1     2     0     0  4.228747658E+02 -3.382972910E+02 -1.147118013E+03  1.274665784E+03  1.250000000E+02  0.00000E+00  9.000E+00
       2     1     1     2   502     0  1.112574720E+03  5.276683349E+02  6.645484923E+02  1.399243037E+03  1.321449896E-05  0.00000E+00  9.000E+00
#rwgt            2          13   2.3891081203221708E-004           3       93265           0
</event>
<event>
      5   9999  3.19816E-02  2.80297E+02 -1.00000E+00  1.06560E-01
       2    -1     0     0   502     0  0.000000000E+00  0.000000000E+00  2.215399345E+03  2.215399345E+03  0.000000000E+00  0.00000E+00  9.000E+00
      21    -1     0     0   501   502  0.000000000E+00  0.000000000E+00 -3.473986832E+02  3.473986832E+02  0.000000000E+00  0.00000E+00  9.000E+00
      25     1     1     2     0     0 -6.604747615E+01  6.040747257E+01 -2.879774681E+02  3.264465561E+02  1.250000000E+02  0.00000E+00  9.000E+00
      25     1     1     2     0     0  7.920274718E+01  2.195808619E+02  6.073547238E+02  6.625659142E+02  1.250000000E+02  0.00000E+00  9.000E+00
       2     1     1     2   501     0 -1.315527103E+01 -2.799883344E+02  1.548623406E+03  1.573785558E+03  2.157918644E-05  0.00000E+00  9.000E+00
#rwgt            1           1   2.8278627456588174E-002           3       93284           0
</event>
<event>
      5   9999  3.19816E-02  2.95441E+01 -1.00000E+00  1.53503E-01
      21    -1     0     0   511   501  0.000000000E+00  0.000000000E+00  7.611171061E+02  7.611171061E+02  0.000000000E+00  0.00000E+00  9.000E+00
      21    -1     0     0   501   502  0.000000000E+00  0.000000000E+00 -8.666866059E+01  8.666866059E+01  0.000000000E+00  0.00000E+00  9.000E+00
      25     1     1     2     0     0  1.435333284E+02 -5.341288601E+01  3.032646644E+02  3.620071953E+02  1.250000000E+02  0.00000E+00  9.000E+00
      25     1     1     2     0     0 -1.713072113E+02  6.348602069E+01  1.614768856E+02  2.740007666E+02  1.250000000E+02  0.00000E+00  9.000E+00
      21     1     1     2   511   502  2.777388291E+01 -1.007313468E+01  2.097068955E+02  2.117778048E+02  3.814697266E-06  0.00000E+00  9.000E+00
#rwgt            1           1   2.1247635928632911E-002           3       93332           0
</event>
<event>
      5   9999  3.19816E-02  4.25585E+01 -1.00000E+00  1.43190E-01
       2    -1     0     0   502     0  0.000000000E+00  0.000000000E+00  1.233180566E+03  1.233180566E+03  0.000000000E+00  0.00000E+00  9.000E+00
      21    -1     0     0   501   502  0.000000000E+00  0.000000000E+00 -3.251803200E+01  3.251803200E+01  0.000000000E+00  0.00000E+00  9.000E+00
      25     1     1     2     0     0 -1.001034055E+02  5.971401988E+01  4.121208020E+02  4.461558152E+02  1.250000000E+02  0.00000E+00  9.000E+00
      25     1     1     2     0     0  8.263373959E+01 -2.090631564E+01  3.834058063E+02  4.121776574E+02  1.250000000E+02  0.00000E+00  9.000E+00
       2     1     1     2   501     0  1.746966593E+01 -3.880770424E+01  4.051359259E+02  4.073651257E+02  5.394796609E-06  0.00000E+00  9.000E+00
#rwgt            1           1   2.0882310515720568E-002           3       93481           0
</event>
<event>
      5   9999  3.19816E-02  3.37461E+01 -1.00000E+00  1.49573E-01
      21    -1     0     0   502   501  0.000000000E+00  0.000000000E+00  5.067701403E+02  5.067701403E+02  0.000000000E+00  0.00000E+00  9.000E+00
      21    -1     0     0   511   502  0.000000000E+00  0.000000000E+00 -8.411417365E+02  8.411417365E+02  0.000000000E+00  0.00000E+00  9.000E+00
      25     1     1     2     0     0  2.228415482E+02 -3.607197614E+02  3.205781632E+02  5.460517014E+02  1.250000000E+02  0.00000E+00  9.000E+00
      25     1     1     2     0     0 -2.388209845E+02  3.309967637E+02 -5.848877866E+02  7.240946369E+02  1.250000000E+02  0.00000E+00  9.000E+00
      21     1     1     2   511   501  1.597943635E+01  2.972299767E+01 -7.006197271E+01  7.776553862E+01  9.536743164E-07  0.00000E+00  9.000E+00
#rwgt            1           1   3.3779837910376850E-002           3       93561           0
</event>
<event>
      5   9999  3.19816E-02  1.15998E+01 -1.00000E+00  1.88590E-01
      21    -1     0     0   512   501  0.000000000E+00  0.000000000E+00  1.345159591E+03  1.345159591E+03  0.000000000E+00  0.00000E+00  9.000E+00
      21    -1     0     0   501   502  0.000000000E+00  0.000000000E+00 -4.506904042E+02  4.506904042E+02  0.000000000E+00  0.00000E+00  9.000E+00
      25     1     1     2     0     0 -7.487178611E+02 -1.490051767E+02  5.302644390E+02  9.378626518E+02  1.250000000E+02  0.00000E+00  9.000E+00
      25     1     1     2     0     0  7.375523206E+02  1.521494729E+02  3.504202662E+02  8.399715773E+02  1.250000000E+02  0.00000E+00  9.000E+00
      21     1     1     2   512   502  1.116554054E+01 -3.144296190E+00  1.378448121E+01  1.801576577E+01  2.384185791E-07  0.00000E+00  9.000E+00
#rwgt            1           1   3.6526888523359551E-002           3       93749           0
</event>
<event>
      5   9999  3.19816E-02  1.12552E+02 -1.00000E+00  1.21561E-01
       1    -1     0     0   502     0  0.000000000E+00  0.000000000E+00  2.210600736E+03  2.210600736E+03  0.000000000E+00  0.00000E+00  9.000E+00
      21    -1     0     0   501   502  0.000000000E+00  0.000000000E+00 -2.238251912E+03  2.238251912E+03  0.000000000E+00  0.00000E+00  9.000E+00
      25     1     1     2     0     0 -1.627573574E+01  1.381054269E+03  1.323707103E+03  1.917133613E+03  1.250000000E+02  0.00000E+00  9.000E+00
      25     1     1     2     0     0  1.081504784E+02 -1.316039284E+03 -1.705249787E+03  2.160360563E+03  1.250000000E+02  0.00000E+00  9.000E+00
       1     1     1     2   501     0 -9.187474263E+01 -6.501498427E+01  3.538915076E+02  3.713584732E+02  5.394796609E-06  0.00000E+00  9.000E+00
#rwgt            1           1   1.4436605514601573E-002           3       94066           0
</event>
<event>
      5   9999  3.19816E-02  2.29344E+01 -1.00000E+00  1.61608E-01
      21    -1     0     0   511   501  0.000000000E+00  0.000000000E+00  6.422689263E+02  6.422689263E+02  0.000000000E+00  0.00000E+00  9.000E+00
      21    -1     0     0   501   502  0.000000000E+00  0.000000000E+00 -5.649043487E+02  5.649043487E+02  0.000000000E+00  0.00000E+00  9.000E+00
      25     1     1     2     0     0 -1.198275705E+02  6.074844740E+01 -4.357990835E+02  4.728581835E+02  1.250000000E+02  0.00000E+00  9.000E+00
      25     1     1     2     0     0  1.393226780E+02 -4.866836919E+01 -2.557730820E+01  1.950861796E+02  1.250000000E+02  0.00000E+00  9.000E+00
      21     1     1     2   511   502 -1.949510758E+01 -1.208007821E+01  5.387409692E+02  5.392289119E+02  0.000000000E+00  0.00000E+00  9.000E+00
#rwgt            1           1   3.4667194560211251E-002           3       94189           0
</event>
<event>
      5   9999  3.19816E-02  2.93289E+01 -1.00000E+00  1.53725E-01
      21    -1     0     0   502   501  0.000000000E+00  0.000000000E+00  1.141512014E+03  1.141512014E+03  0.000000000E+00  0.00000E+00  9.000E+00
      21    -1     0     0   512   502  0.000000000E+00  0.000000000E+00 -2.106367683E+02  2.106367683E+02  0.000000000E+00  0.00000E+00  9.000E+00
      25     1     1     2     0     0  1.654844751E+02  3.149920245E+02  7.838338125E+02  8.698422458E+02  1.250000000E+02  0.00000E+00  9.000E+00
      25     1     1     2     0     0 -1.756929655E+02 -3.424869389E+02  1.757880485E+02  4.412388915E+02  1.250000000E+02  0.00000E+00  9.000E+00
      21     1     1     2   512   501  1.020849044E+01  2.749491441E+01 -2.874661507E+01  4.106764509E+01  3.371747881E-07  0.00000E+00  9.000E+00
#rwgt            1           1   2.5283270523234817E-002           3       94347           0
</event>
<event>
      5   9999  3.19816E-02  2.21942E+02 -1.00000E+00  1.10027E-01
      21    -1     0     0   502   511  0.000000000E+00  0.000000000E+00  2.463368066E+02  2.463368066E+02  0.000000000E+00  0.00000E+00  9.000E+00
      21    -1     0     0   501   502  0.000000000E+00  0.000000000E+00 -8.904649723E+02  8.904649723E+02  0.000000000E+00  0.00000E+00  9.000E+00
      25     1     1     2     0     0  4.579793787E+01 -1.347883425E+02  3.482757947E+01  1.926221915E+02  1.250000000E+02  0.00000E+00  9.000E+00
      25     1     1     2     0     0  1.740694829E+02  1.650621520E+02 -6.694495885E+02  7.220342446E+02  1.250000000E+02  0.00000E+00  9.000E+00
      21     1     1     2   501   511 -2.198674208E+02 -3.027380960E+01 -9.506156699E+00  2.221453427E+02  5.106556413E-06  0.00000E+00  9.000E+00
#rwgt            1           1   2.5514983230724150E-002           3       94489           0
</event>
<event>
      5   9999  3.19816E-02  6.16820E+01 -1.00000E+00  1.34065E-01
      -1    -1     0     0     0   501  0.000000000E+00  0.000000000E+00  1.115710063E+03  1.115710063E+03  0.000000000E+00  0.00000E+00  9.000E+00
      21    -1     0     0   501   502  0.000000000E+00  0.000000000E+00 -9.280559064E+01  9.280559064E+01  0.000000000E+00  0.00000E+00  9.000E+00
      25     1     1     2     0     0 -6.068731612E+01 -2.222506755E+02  4.502780177E+02  5.210120980E+02  1.250000000E+02  0.00000E+00  9.000E+00
      25     1     1     2     0     0 -1.977497571E-01  2.321340349E+02  2.652173773E+02  3.739672532E+02  1.250000000E+02  0.00000E+00  9.000E+00
      -1     1     1     2     0   502  6.088506588E+01 -9.883359467E+00  3.074090772E+02  3.135363022E+02  0.000000000E+00  0.00000E+00  9.000E+00
#rwgt            1           1   3.0187397661806375E-002           3       94572           0
</event>
<event>
      5   9999  3.19816E-02  8.45600E+01 -1.00000E+00  1.27195E-01
      21    -1     0     0   502   511  0.000000000E+00  0.000000000E+00  1.549832891E+02  1.549832891E+02  0.000000000E+00  0.00000E+00  9.000E+00
      21    -1     0     0   501   502  0.000000000E+00  0.000000000E+00 -5.185743809E+02  5.185743809E+02  0.000000000E+00  0.00000E+00  9.000E+00
      25     1     1     2     0     0 -1.901676334E+02  3.636163119E+01 -2.082592190E+01  2.313970960E+02  1.250000000E+02  0.00000E+00  9.000E+00
      25     1     1     2     0     0  1.056454213E+02 -3.383238730E+01 -3.086223835E+02  3.509677493E+02  1.250000000E+02  0.00000E+00  9.000E+00
      21     1     1     2   501   511  8.452221209E+01 -2.529243890E+00 -3.414278645E+01  9.119282471E+01  1.581489940E-06  0.00000E+00  9.000E+00
#rwgt            1           1   2.7190106288120883E-002           3       94633           0
</event>
<event>
      5   9999  3.19816E-02  1.58958E+02 -1.00000E+00  1.15404E-01
      21    -1     0     0   502   512  0.000000000E+00  0.000000000E+00  1.171266480E+03  1.171266480E+03  0.000000000E+00  0.00000E+00  9.000E+00
      21    -1     0     0   501   502  0.000000000E+00  0.000000000E+00 -6.580907890E+02  6.580907890E+02  0.000000000E+00  0.00000E+00  9.000E+00
      25     1     1     2     0     0  6.023156101E+02 -3.693843083E+02  9.681278146E+01  7.240349273E+02  1.250000000E+02  0.00000E+00  9.000E+00
      25     1     1     2     0     0 -7.610175642E+02  3.603619123E+02  2.806903499E+02  8.963372766E+02  1.250000000E+02  0.00000E+00  9.000E+00
      21     1     1     2   501   512  1.587019542E+02  9.022395974E+00  1.356725592E+02  2.089850646E+02  2.697398305E-06  0.00000E+00  9.000E+00
#rwgt            1           1   3.1901422767333196E-002           3       94728           0
</event>
<event>
      5   9999  3.19816E-02  1.73366E+02 -1.00000E+00  1.13955E-01
       2    -1     0     0   502     0  0.000000000E+00  0.000000000E+00  2.197226737E+02  2.197226737E+02  0.000000000E+00  0.00000E+00  9.000E+00
      21    -1     0     0   501   502  0.000000000E+00  0.000000000E+00 -1.740785783E+03  1.740785783E+03  0.000000000E+00  0.00000E+00  9.000E+00
      25     1     1     2     0     0  4.142554582E+02  8.231823511E+01 -6.234399434E+02  7.633388759E+02  1.250000000E+02  0.00000E+00  9.000E+00
      25     1     1     2     0     0 -5.754607925E+02 -1.853366435E+01 -8.135776004E+02  1.004505915E+03  1.250000000E+02  0.00000E+00  9.000E+00
       2     1     1     2   501     0  1.612053344E+02 -6.378457075E+01 -8.404556595E+01  1.926636667E+02  1.907348633E-06  0.00000E+00  9.000E+00
#rwgt            1           1   3.0724652066063667E-002           3       94810           0
</event>
<event>
      5   9999  3.19816E-02  8.52441E+01 -1.00000E+00  1.27029E-01
      21    -1     0     0   511   501  0.000000000E+00  0.000000000E+00  1.578334385E+03  1.578334385E+03  0.000000000E+00  0.00000E+00  9.000E+00
      21    -1     0     0   501   502  0.000000000E+00  0.000000000E+00 -5.631898446E+02  5.631898446E+02  0.000000000E+00  0.00000E+00  9.000E+00
      25     1     1     2     0     0 -4.823461903E+02 -3.438382784E+01  6.093694125E+02  7.879061973E+02  1.250000000E+02  0.00000E+00  9.000E+00
      25     1     1     2     0     0  4.926893923E+02  1.189980689E+02 -3.269345237E+02  6.159663631E+02  1.250000000E+02  0.00000E+00  9.000E+00
      21     1     1     2   511   502 -1.034320197E+01 -8.461424110E+01  7.327096514E+02  7.376516690E+02  0.000000000E+00  0.00000E+00  9.000E+00
#rwgt            1           1   3.1188408603496528E-002           3       94864           0
</event>
<event>
      5   9999  3.19816E-02  6.60790E+02  7.55638E-03  9.55294E-02
       2    -1     0     0   501     0  0.000000000E+00  0.000000000E+00  7.152488755E+02  7.152488755E+02  0.000000000E+00  0.00000E+00  9.000E+00
      -2    -1     0     0     0   502  0.000000000E+00  0.000000000E+00 -8.661556402E+02  8.661556402E+02  0.000000000E+00  0.00000E+00  9.000E+00
      25     1     1     2     0     0 -5.974746019E+02 -3.470687204E+01  6.759738544E+01  6.151218363E+02  1.250000000E+02  0.00000E+00  9.000E+00
      25     1     1     2     0     0 -2.809385851E+01  2.475633549E+02 -3.836441062E+01  2.813782287E+02  1.250000000E+02  0.00000E+00  9.000E+00
      21     1     1     2   501   502  6.255684605E+02 -2.128564828E+02 -1.801397395E+02  6.849044508E+02  1.954450753E-05  0.00000E+00  9.000E+00
#rwgt            3           7   1.3593926462495393E-005           3       94944           0
</event>
<event>
      5   9999  3.19816E-02  8.87419E+00 -1.00000E+00  2.01951E-01
      21    -1     0     0   502   511  0.000000000E+00  0.000000000E+00  1.318688788E+03  1.318688788E+03  0.000000000E+00  0.00000E+00  9.000E+00
      21    -1     0     0   501   502  0.000000000E+00  0.000000000E+00 -5.592164789E+01  5.592164789E+01  0.000000000E+00  0.00000E+00  9.000E+00
      25     1     1     2     0     0 -6.986086661E+01  2.281802866E+02  7.012807697E+02  7.512433040E+02  1.250000000E+02  0.00000E+00  9.000E+00
      25     1     1     2     0     0  6.715010199E+01 -2.197302540E+02  5.368107757E+02  5.971443122E+02  1.250000000E+02  0.00000E+00  9.000E+00
      21     1     1     2   501   511  2.710764624E+00 -8.450032595E+00  2.467559509E+01  2.622282000E+01  3.371747881E-07  0.00000E+00  9.000E+00
#rwgt            1           1   2.6760396212670901E-002           3       94978           0
</event>
<event>
      5   9999  3.19816E-02  3.28339E+02 -1.00000E+00  1.04334E-01
      21    -1     0     0   502   501  0.000000000E+00  0.000000000E+00  6.225340495E+02  6.225340495E+02  0.000000000E+00  0.00000E+00  9.000E+00
      21    -1     0     0   512   502  0.000000000E+00  0.000000000E+00 -1.129327678E+03  1.129327678E+03  0.000000000E+00  0.00000E+00  9.000E+00
      25     1     1     2     0     0  6.123081275E+01  4.306761047E+02 -3.807026264E+00  4.526263504E+02  1.250000000E+02  0.00000E+00  9.000E+00
      25     1     1     2     0     0 -2.079460041E+01 -7.565155985E+02 -9.102817958E+01  7.724373085E+02  1.250000000E+02  0.00000E+00  9.000E+00
      21     1     1     2   512   501 -4.043621234E+01  3.258394938E+02 -4.119584223E+02  5.267980682E+02  5.394796609E-06  0.00000E+00  9.000E+00
#rwgt            1           1   3.1036035242919334E-002           3       95211           0
</event>
<event>
      5   9999  3.19816E-02  4.93647E+01 -1.00000E+00  1.39393E-01
       3    -1     0     0   502     0  0.000000000E+00  0.000000000E+00  3.280451449E+02  3.280451449E+02  0.000000000E+00  0.00000E+00  9.000E+00
      21    -1     0     0   501   502  0.000000000E+00  0.000000000E+00 -9.805526129E+01  9.805526129E+01  0.000000000E+00  0.00000E+00  9.000E+00
      25     1     1     2     0     0 -9.644812582E+00  8.674186761E+01  1.607797496E+02  2.215678269E+02  1.250000000E+02  0.00000E+00  9.000E+00
      25     1     1     2     0     0  2.576151577E+01 -4.008221524E+01  7.731284732E+01  1.545073333E+02  1.250000000E+02  0.00000E+00  9.000E+00
       3     1     1     2   501     0 -1.611670319E+01 -4.665965236E+01 -8.102713348E+00  5.002524607E+01  3.953724850E-07  0.00000E+00  9.000E+00
#rwgt            1           1   2.7434573120588116E-002           3       95257           0
</event>
<event>
      5   9999  3.19816E-02  3.04698E+01 -1.00000E+00  1.52573E-01
      21    -1     0     0   502   511  0.000000000E+00  0.000000000E+00  1.463398172E+02  1.463398172E+02  0.000000000E+00  0.00000E+00  9.000E+00
      21    -1     0     0   501   502  0.000000000E+00  0.000000000E+00 -5.035213514E+02  5.035213514E+02  0.000000000E+00  0.00000E+00  9.000E+00
      25     1     1     2     0     0 -3.129136045E+01 -1.903460361E+02 -8.171173597E+01  2.439519840E+02  1.250000000E+02  0.00000E+00  9.000E+00
      25     1     1     2     0     0  5.894092005E+01  2.031487905E+02 -2.827438336E+02  3.745831531E+02  1.250000000E+02  0.00000E+00  9.000E+00
      21     1     1     2   501   511 -2.764955960E+01 -1.280275437E+01  7.274035344E+00  3.132603160E+01  4.616955931E-07  0.00000E+00  9.000E+00
#rwgt            1           1   2.4410311301914355E-002           3       95345           0
</event>
<event>
      5   9999  3.19816E-02  3.72570E+01 -1.00000E+00  1.46780E-01
      21    -1     0     0   502   512  0.000000000E+00  0.000000000E+00  3.614489522E+02  3.614489522E+02  0.000000000E+00  0.00000E+00  9.000E+00
      21    -1     0     0   501   502  0.000000000E+00  0.000000000E+00 -2.339002753E+02  2.339002753E+02  0.000000000E+00  0.00000E+00  9.000E+00
      25     1     1     2     0     0  7.005277299E+01  2.187453764E+02  7.008772207E+01  2.707290518E+02  1.250000000E+02  0.00000E+00  9.000E+00
      25     1     1     2     0     0 -1.053177337E+02 -2.067260890E+02  9.262974164E+00  2.637011634E+02  1.250000000E+02  0.00000E+00  9.000E+00
      21     1     1     2   501   512  3.526496067E+01 -1.201928745E+01  4.819798066E+01  6.091901232E+01  6.743495762E-07  0.00000E+00  9.000E+00
#rwgt            1           1   2.6706371993308019E-002           3       95447           0
</event>
<event>
      5   9999  3.19816E-02  5.64483E+01 -1.00000E+00  1.36135E-01
      21    -1     0     0   502   501  0.000000000E+00  0.000000000E+00  5.627798974E+02  5.627798974E+02  0.000000000E+00  0.00000E+00  9.000E+00
      21    -1     0     0   501   511  0.000000000E+00  0.000000000E+00 -1.246803161E+03  1.246803161E+03  0.000000000E+00  0.00000E+00  9.000E+00
      25     1     1     2     0     0  6.255490008E+01 -1.902960164E+02  5.113460783E+02  5.632277525E+02  1.250000000E+02  0.00000E+00  9.000E+00
      25     1     1     2     0     0 -7.023450909E+01  1.343725650E+02 -3.690051885E+02  4.180654275E+02  1.250000000E+02  0.00000E+00  9.000E+00
      21     1     1     2   502   511  7.679609004E+00  5.592345132E+01 -8.263641537E+02  8.282898788E+02  0.000000000E+00  0.00000E+00  9.000E+00
#rwgt            1           1   2.4347218737588636E-002           3       95561           0
</event>
<event>
      5   9999  3.19816E-02  9.94611E+00 -1.00000E+00  1.96029E-01
      21    -1     0     0   502   501  0.000000000E+00  0.000000000E+00  7.418936514E+02  7.418936514E+02  0.000000000E+00  0.00000E+00  9.000E+00
      21    -1     0     0   512   502  0.000000000E+00  0.000000000E+00 -9.997832666E+01  9.997832666E+01  0.000000000E+00  0.00000E+00  9.000E+00
      25     1     1     2     0     0 -2.231225779E+02  5.267788642E+01  2.496101441E+02  3.612324301E+02  1.250000000E+02  0.00000E+00  9.000E+00
      25     1     1     2     0     0  2.132955878E+02 -5.114319425E+01  3.963319751E+02  4.699092131E+02  1.250000000E+02  0.00000E+00  9.000E+00
      21     1     1     2   512   501  9.826990083E+00 -1.534692167E+00 -4.026794399E+00  1.073033491E+01  5.960464478E-08  0.00000E+00  9.000E+00
#rwgt            1           1   2.8375307411117216E-002           3       95663           0
</event>
<event>
      5   9999  3.19816E-02  9.61074E+01 -1.00000E+00  1.24608E-01
      21    -1     0     0   502   501  0.000000000E+00  0.000000000E+00  2.939358144E+02  2.939358144E+02  0.000000000E+00  0.00000E+00  9.000E+00
      -3    -1     0     0     0   502  0.000000000E+00  0.000000000E+00 -6.010092020E+02  6.010092020E+02  0.000000000E+00  0.00000E+00  9.000E+00
      25     1     1     2     0     0 -8.366193661E+00  2.089243653E+02  5.202879060E+00  2.436625814E+02  1.250000000E+02  0.00000E+00  9.000E+00
      25     1     1     2     0     0 -7.068714526E+01 -1.542690305E+02  9.618090783E+01  2.316708297E+02  1.250000000E+02  0.00000E+00  9.000E+00
      -3     1     1     2     0   501  7.905333892E+01 -5.465533480E+01 -4.084571745E+02  4.196116054E+02  7.629394531E-06  0.00000E+00  9.000E+00
#rwgt            1           1   2.8381540309191731E-002           3       95856           0
</event>
<event>
      5   9999  3.19816E-02  1.12311E+02 -1.00000E+00  1.21602E-01
      21    -1     0     0   502   501  0.000000000E+00  0.000000000E+00  5.803754807E+02  5.803754807E+02  0.000000000E+00  0.00000E+00  9.000E+00
      21    -1     0     0   511   502  0.000000000E+00  0.000000000E+00 -4.399182063E+02  4.399182063E+02  0.000000000E+00  0.00000E+00  9.000E+00
      25     1     1     2     0     0  1.414680058E+02  1.132404259E+02  2.645641062E+01  2.217240005E+02  1.250000000E+02  0.00000E+00  9.000E+00
      25     1     1     2     0     0 -2.459512725E+02 -1.544348836E+02  3.891374511E+02  5.013931766E+02  1.250000000E+02  0.00000E+00  9.000E+00
      21     1     1     2   511   501  1.044832667E+02  4.119445763E+01 -2.751365873E+02  2.971765099E+02  3.814697266E-06  0.00000E+00  9.000E+00
#rwgt            1           1   2.8220632432842958E-002           3       95992           0
</event>
<event>
      5   9999  3.19816E-02  6.42779E+01 -1.00000E+00  1.33124E-01
      21    -1     0     0   502   501  0.000000000E+00  0.000000000E+00  5.919475049E+02  5.919475049E+02  0.000000000E+00  0.00000E+00  9.000E+00
      21    -1     0     0   512   502  0.000000000E+00  0.000000000E+00 -4.899222617E+02  4.899222617E+02  0.000000000E+00  0.00000E+00  9.000E+00
      25     1     1     2     0     0 -1.252366942E+02 -2.359986126E+02  4.547360361E+02  5.420234656E+02  1.250000000E+02  0.00000E+00  9.000E+00
      25     1     1     2     0     0  1.636713397E+02  1.844775010E+02 -1.253520239E+02  3.035759966E+02  1.250000000E+02  0.00000E+00  9.000E+00
      21     1     1     2   512   501 -3.843464555E+01  5.152111163E+01 -2.273587690E+02  2.362703044E+02  4.672030912E-06  0.00000E+00  9.000E+00
#rwgt            1           1   2.5257032017918454E-002           3       96080           0
</event>
<event>
      5   9999  3.19816E-02  1.48755E+02 -1.00000E+00  1.16537E-01
      21    -1     0     0   502   501  0.000000000E+00  0.000000000E+00  5.216273061E+02  5.216273061E+02  0.000000000E+00  0.00000E+00  9.000E+00
      21    -1     0     0   501   511  0.000000000E+00  0.000000000E+00 -9.247602260E+02  9.247602260E+02  0.000000000E+00  0.00000E+00  9.000E+00
      25     1     1     2     0     0 -3.759714910E+02  5.286210311E+02 -5.521087216E+01  6.629238244E+02  1.250000000E+02  0.00000E+00  9.000E+00
      25     1     1     2     0     0  2.335633876E+02 -4.856328211E+02 -2.771639237E+02  6.187373705E+02  1.250000000E+02  0.00000E+00  9.000E+00
      21     1     1     2   502   511  1.424081033E+02 -4.298820994E+01 -7.075812393E+01  1.647263373E+02  1.348699152E-06  0.00000E+00  9.000E+00
#rwgt            1           1   2.9523432052160813E-002           3       96176           0
</event>
<event>
      5   9999  3.23430E-02  7.79866E+01 -1.00000E+00  1.28888E-01
      21    -1     0     0   512   501  0.000000000E+00  0.000000000E+00  1.313173861E+02  1.313173861E+02  0.000000000E+00  0.00000E+00  9.000E+00
      21    -1     0     0   501   502  0.000000000E+00  0.000000000E+00 -4.098159857E+03  4.098159857E+03  0.000000000E+00  0.00000E+00  9.000E+00
      25     1     1     2     0     0 -4.815794698E+01  1.224975032E+02 -2.958917839E+03  2.964480494E+03  1.250000000E+02  0.00000E+00  9.000E+00
      25     1     1     2     0     0  3.317556492E+01 -4.596364269E+01 -1.120043859E+03  1.128422138E+03  1.250000000E+02  0.00000E+00  9.000E+00
      21     1     1     2   512   502  1.498238206E+01 -7.653386051E+01  1.121192263E+02  1.365746114E+02  6.877043296E-06  0.00000E+00  9.000E+00
#rwgt            1           1   3.8498841895789073E-003           3       96238           0
</event>
<event>
      5   9999  3.19816E-02  2.67085E+02 -1.00000E+00  1.07258E-01
      21    -1     0     0   502   501  0.000000000E+00  0.000000000E+00  2.874206342E+02  2.874206342E+02  0.000000000E+00  0.00000E+00  9.000E+00
       2    -1     0     0   501     0  0.000000000E+00  0.000000000E+00 -1.151168464E+03  1.151168464E+03  0.000000000E+00  0.00000E+00  9.000E+00
      25     1     1     2     0     0 -1.895048690E+02 -4.727256831E+01 -6.290001385E+01  2.402669408E+02  1.250000000E+02  0.00000E+00  9.000E+00
      25     1     1     2     0     0  3.864168574E+02  2.277167575E+02 -1.410417922E+02  4.865086808E+02  1.250000000E+02  0.00000E+00  9.000E+00
       2     1     1     2   502     0 -1.969119884E+02 -1.804441891E+02 -6.598060237E+02  7.118134766E+02  0.000000000E+00  0.00000E+00  9.000E+00
#rwgt            1           1   2.5224199335798392E-002           3       96303           0
</event>
<event>
      5   9999  3.19816E-02  1.37310E+02 -1.00000E+00  1.17936E-01
      21    -1     0     0   511   501  0.000000000E+00  0.000000000E+00  2.111221770E+02  2.111221770E+02  0.000000000E+00  0.00000E+00  9.000E+00
      21    -1     0     0   501   502  0.000000000E+00  0.000000000E+00 -4.292273979E+02  4.292273979E+02  0.000000000E+00  0.00000E+00  9.000E+00
      25     1     1     2     0     0 -6.764259635E+01 -7.752857854E+01 -2.454725643E+01  1.637491042E+02  1.250000000E+02  0.00000E+00  9.000E+00
      25     1     1     2     0     0  1.815862762E+02  1.541501060E+02 -2.058726686E+02  3.387394081E+02  1.250000000E+02  0.00000E+00  9.000E+00
      21     1     1     2   511   502 -1.139436798E+02 -7.662152747E+01  1.231470421E+01  1.378610626E+02  3.333599914E-06  0.00000E+00  9.000E+00
#rwgt            2          11   3.2118299330144286E-003           3       96361           0
</event>
<event>
      5   9999  3.19816E-02  1.01648E+02 -1.00000E+00  1.23509E-01
      21    -1     0     0   502   501  0.000000000E+00  0.000000000E+00  7.867014219E+02  7.867014219E+02  0.000000000E+00  0.00000E+00  9.000E+00
      21    -1     0     0   501   512  0.000000000E+00  0.000000000E+00 -9.449079146E+01  9.449079146E+01  0.000000000E+00  0.00000E+00  9.000E+00
      25     1     1     2     0     0 -3.963723127E+01 -5.647925182E+01  3.841495179E+02  4.098254117E+02  1.250000000E+02  0.00000E+00  9.000E+00
      25     1     1     2     0     0  1.009380386E+02 -2.460458186E+01  3.295666746E+02  3.674684559E+02  1.250000000E+02  0.00000E+00  9.000E+00
      21     1     1     2   502   512 -6.130080728E+01  8.108383368E+01 -2.150556202E+01  1.038983458E+02  8.920806376E-07  0.00000E+00  9.000E+00
#rwgt            1           1   3.9842466587704975E-002           3       96486           0
</event>
<event>
      5   9999  3.19816E-02  4.63758E+02 -1.00000E+00  9.97893E-02
      21    -1     0     0   502   511  0.000000000E+00  0.000000000E+00  8.126899278E+02  8.126899278E+02  0.000000000E+00  0.00000E+00  9.000E+00
      21    -1     0     0   501   502  0.000000000E+00  0.000000000E+00 -1.119469431E+03  1.119469431E+03  0.000000000E+00  0.00000E+00  9.000E+00
      25     1     1     2     0     0 -2.323370982E+02  6.647266444E+01 -2.796431924E+02  3.901595281E+02  1.250000000E+02  0.00000E+00  9.000E+00
      25     1     1     2     0     0  6.419857709E+02  1.509191889E+02 -5.319828951E+02  8.564771639E+02  1.250000000E+02  0.00000E+00  9.000E+00
      21     1     1     2   501   511 -4.096486726E+02 -2.173918534E+02  5.048465843E+02  6.855226667E+02  5.394796609E-06  0.00000E+00  9.000E+00
#rwgt            2          11   3.1821370819123140E-003           3       96820           0
</event>
<event>
      5   9999  3.19816E-02  6.36773E+01 -1.00000E+00  1.33337E-01
      21    -1     0     0   502   501  0.000000000E+00  0.000000000E+00  7.957774048E+01  7.957774048E+01  0.000000000E+00  0.00000E+00  9.000E+00
      21    -1     0     0   512   502  0.000000000E+00  0.000000000E+00 -1.316974496E+03  1.316974496E+03  0.000000000E+00  0.00000E+00  9.000E+00
      25     1     1     2     0     0 -1.162161208E+02  7.863587603E+01 -5.194113500E+02  5.523612389E+02  1.250000000E+02  0.00000E+00  9.000E+00
      25     1     1     2     0     0  1.274746686E+02 -1.596177401E+01 -6.896864282E+01  1.920579159E+02  1.250000000E+02  0.00000E+00  9.000E+00
      21     1     1     2   512   501 -1.125854783E+01 -6.267410201E+01 -6.490167631E+02  6.521330821E+02  1.078959322E-05  0.00000E+00  9.000E+00
#rwgt            2          11   1.0810054531970360E-003           3       96840           0
</event>
<event>
      5   9999  3.19816E-02  2.16412E+01 -1.00000E+00  1.63592E-01
      21    -1     0     0   502   501  0.000000000E+00  0.000000000E+00  1.240850711E+03  1.240850711E+03  0.000000000E+00  0.00000E+00  9.000E+00
       2    -1     0     0   501     0  0.000000000E+00  0.000000000E+00 -1.509161801E+02  1.509161801E+02  0.000000000E+00  0.00000E+00  9.000E+00
      25     1     1     2     0     0  6.987368451E+01 -1.331513611E+01  1.028207690E+03  1.038217549E+03  1.250000000E+02  0.00000E+00  9.000E+00
      25     1     1     2     0     0 -5.833414253E+01  3.162308826E+01  1.824496827E+02  2.309020974E+02  1.250000000E+02  0.00000E+00  9.000E+00
       2     1     1     2   502     0 -1.153954198E+01 -1.830795215E+01 -1.207228419E+02  1.226472449E+02  3.303624740E-06  0.00000E+00  9.000E+00
#rwgt            1           1   2.5375859802935264E-002           3       96935           0
</event>
<event>
      5   9999  3.19816E-02  3.88971E+02 -1.00000E+00  1.02052E-01
      -5    -1     0     0     0   501  0.000000000E+00  0.000000000E+00  5.032612530E+02  5.032612530E+02  0.000000000E+00  0.00000E+00  9.000E+00
      21    -1     0     0   501   502  0.000000000E+00  0.000000000E+00 -8.168065316E+02  8.168065316E+02  0.000000000E+00  0.00000E+00  9.000E+00
      25     1     1     2     0     0  1.284192888E+02  7.571994149E+01 -2.245756413E+02  2.971266429E+02  1.250000000E+02  0.00000E+00  9.000E+00
      25     1     1     2     0     0 -4.042640696E+02  1.985215640E+02 -3.237769519E+02  5.685919133E+02  1.250000000E+02  0.00000E+00  9.000E+00
      -5     1     1     2     0   502  2.758447809E+02 -2.742415054E+02  2.348073145E+02  4.543492285E+02  8.946258087E-06  0.00000E+00  9.000E+00
#rwgt            2           1   4.5199792942094444E-005           3       97293           0
</event>
<event>
      5   9999  3.19816E-02  5.42416E+01 -1.00000E+00  1.37087E-01
      21    -1     0     0   502   501  0.000000000E+00  0.000000000E+00  1.460828194E+03  1.460828194E+03  0.000000000E+00  0.00000E+00  9.000E+00
      21    -1     0     0   511   502  0.000000000E+00  0.000000000E+00 -6.613915158E+01  6.613915158E+01  0.000000000E+00  0.00000E+00  9.000E+00
      25     1     1     2     0     0 -1.604857141E+02  1.483020180E+02  4.397896683E+02  5.067436288E+02  1.250000000E+02  0.00000E+00  9.000E+00
      25     1     1     2     0     0  1.258814827E+02 -1.900715507E+02  9.192621202E+02  9.553225569E+02  1.250000000E+02  0.00000E+00  9.000E+00
      21     1     1     2   511   501  3.460423148E+01  4.176953274E+01  3.563725414E+01  6.490116011E+01  4.768371582E-07  0.00000E+00  9.000E+00
#rwgt            1           1   2.6947939055909479E-002           3       97327           0
</event>
<event>
      5   9999  3.19816E-02  9.62463E+01 -1.00000E+00  1.24580E-01
      21    -1     0     0   512   501  0.000000000E+00  0.000000000E+00  8.444197138E+02  8.444197138E+02  0.000000000E+00  0.00000E+00  9.000E+00
      21    -1     0     0   501   502  0.000000000E+00  0.000000000E+00 -5.681814514E+02  5.681814514E+02  0.000000000E+00  0.00000E+00  9.000E+00
      25     1     1     2     0     0 -2.558441937E+02  3.792563954E+02 -2.579507803E+02  5.398659740E+02  1.250000000E+02  0.00000E+00  9.000E+00
      25     1     1     2     0     0  3.136714678E+02 -4.561937731E+02  3.553083398E+02  6.696055291E+02  1.250000000E+02  0.00000E+00  9.000E+00
      21     1     1     2   512   502 -5.782727417E+01  7.693737769E+01  1.788807029E+02  2.031296620E+02  0.000000000E+00  0.00000E+00  9.000E+00
#rwgt            1           1   2.8978977935212247E-002           3       97431           0
</event>
<event>
      5   9999  3.19816E-02  6.93250E+01 -1.00000E+00  1.31434E-01
       2    -1     0     0   502     0  0.000000000E+00  0.000000000E+00  2.342019263E+03  2.342019263E+03  0.000000000E+00  0.00000E+00  9.000E+00
      21    -1     0     0   501   502  0.000000000E+00  0.000000000E+00 -5.385507849E+01  5.385507849E+01  0.000000000E+00  0.00000E+00  9.000E+00
      25     1     1     2     0     0 -1.198455778E+02  2.195585915E+02  1.342439546E+03  1.371254124E+03  1.250000000E+02  0.00000E+00  9.000E+00
      25     1     1     2     0     0  1.574843358E+02 -1.613410355E+02  4.091911457E+02  4.836265496E+02  1.250000000E+02  0.00000E+00  9.000E+00
       2     1     1     2   501     0 -3.763875794E+01 -5.821755603E+01  5.365334925E+02  5.409936677E+02  7.629394531E-06  0.00000E+00  9.000E+00
#rwgt            2          18   2.3481362450560681E-003           3       97525           0
</event>
<event>
      5   9999  3.19816E-02  2.42548E+02 -1.00000E+00  1.08681E-01
      21    -1     0     0   502   501  0.000000000E+00  0.000000000E+00  8.012254658E+02  8.012254658E+02  0.000000000E+00  0.00000E+00  9.000E+00
      21    -1     0     0   501   511  0.000000000E+00  0.000000000E+00 -8.753572867E+02  8.753572867E+02  0.000000000E+00  0.00000E+00  9.000E+00
      25     1     1     2     0     0 -1.440822371E+02  3.132255898E+01  7.414404065E+02  7.662242950E+02  1.250000000E+02  0.00000E+00  9.000E+00
      25     1     1     2     0     0 -9.838696644E+01 -2.515609707E+01 -3.549965427E+02  3.898209457E+02  1.250000000E+02  0.00000E+00  9.000E+00
      21     1     1     2   502   511  2.424692035E+02 -6.166461908E+00 -4.605756847E+02  5.205375119E+02  7.629394531E-06  0.00000E+00  9.000E+00
#rwgt            1           1   2.4357542152463097E-002           3       97544           0
</event>
<event>
      5   9999  3.19816E-02  9.32723E+01 -1.00000E+00  1.25204E-01
      21    -1     0     0   502   501  0.000000000E+00  0.000000000E+00  3.108017075E+02  3.108017075E+02  0.000000000E+00  0.00000E+00  9.000E+00
       2    -1     0     0   501     0  0.000000000E+00  0.000000000E+00 -7.907222634E+02  7.907222634E+02  0.000000000E+00  0.00000E+00  9.000E+00
      25     1     1     2     0     0  1.788924936E+02  5.123319254E+01 -1.715696702E+02  2.822915444E+02  1.250000000E+02  0.00000E+00  9.000E+00
      25     1     1     2     0     0 -1.988613789E+02  3.987639395E+01  1.946531377E+02  3.076537320E+02  1.250000000E+02  0.00000E+00  9.000E+00
       2     1     1     2   502     0  1.996888528E+01 -9.110958648E+01 -5.030040234E+02  5.115786945E+02  7.629394531E-06  0.00000E+00  9.000E+00
#rwgt            2          13   5.5572743999760996E-004           3       97658           0
</event>
<event>
      5   9999  3.19816E-02  2.39925E+01 -1.00000E+00  1.60101E-01
      21    -1     0     0   511   501  0.000000000E+00  0.000000000E+00  9.794979034E+02  9.794979034E+02  0.000000000E+00  0.00000E+00  9.000E+00
      21    -1     0     0   501   502  0.000000000E+00  0.000000000E+00 -8.759588359E+01  8.759588359E+01  0.000000000E+00  0.00000E+00  9.000E+00
      25     1     1     2     0     0  1.471452842E+02  1.734806731E+02  2.781353193E+02  3.804359795E+02  1.250000000E+02  0.00000E+00  9.000E+00
      25     1     1     2     0     0 -1.648827220E+02 -1.896369041E+02  5.327003212E+02  6.021155202E+02  1.250000000E+02  0.00000E+00  9.000E+00
      21     1     1     2   511   502  1.773743779E+01  1.615623107E+01  8.106637934E+01  8.454228741E+01  9.536743164E-07  0.00000E+00  9.000E+00
#rwgt            2          11   2.1380750345964387E-003           3       97962           0
</event>
<event>
      5   9999  3.19816E-02  8.77448E+01 -1.00000E+00  1.26437E-01
      21    -1     0     0   502   501  0.000000000E+00  0.000000000E+00  3.460954266E+02  3.460954266E+02  0.000000000E+00  0.00000E+00  9.000E+00
      21    -1     0     0   512   502  0.000000000E+00  0.000000000E+00 -3.608161627E+02  3.608161627E+02  0.000000000E+00  0.00000E+00  9.000E+00
      25     1     1     2     0     0 -1.968101872E+02 -9.511565322E+01 -1.346327604E+02  2.855384693E+02  1.250000000E+02  0.00000E+00  9.000E+00
      25     1     1     2     0     0  2.701298265E+02  4.691425076E+01  1.385820434E+02  3.316640662E+02  1.250000000E+02  0.00000E+00  9.000E+00
      21     1     1     2   512   501 -7.331963924E+01  4.820140246E+01 -1.867001910E+01  8.970905367E+01  1.634515429E-06  0.00000E+00  9.000E+00
#rwgt            1           1   2.5712113790731430E-002           3       97997           0
</event>
<event>
      5   9999  3.19816E-02  3.12183E+01 -1.00000E+00  1.51849E-01
      21    -1     0     0   502   511  0.000000000E+00  0.000000000E+00  5.158185395E+02  5.158185395E+02  0.000000000E+00  0.00000E+00  9.000E+00
      21    -1     0     0   501   502  0.000000000E+00  0.000000000E+00 -1.870284864E+03  1.870284864E+03  0.000000000E+00  0.00000E+00  9.000E+00
      25     1     1     2     0     0 -7.395410422E+02  2.721554691E+02 -2.951191123E+01  7.984268942E+02  1.250000000E+02  0.00000E+00  9.000E+00
      25     1     1     2     0     0  7.337322070E+02 -2.414824084E+02 -1.340977999E+03  1.552586132E+03  1.250000000E+02  0.00000E+00  9.000E+00
      21     1     1     2   501   511  5.808835248E+00 -3.067306074E+01  1.602358592E+01  3.509037657E+01  5.840038640E-07  0.00000E+00  9.000E+00
#rwgt            1           1   4.6690878201173125E-002           3       98067           0
</event>
<event>
      5   9999  3.19816E-02  3.25658E+01 -1.00000E+00  1.50605E-01
      21    -1     0     0   502   501  0.000000000E+00  0.000000000E+00  1.160778760E+03  1.160778760E+03  0.000000000E+00  0.00000E+00  9.000E+00
      21    -1     0     0   501   512  0.000000000E+00  0.000000000E+00 -8.858082885E+01  8.858082885E+01  0.000000000E+00  0.00000E+00  9.000E+00
      25     1     1     2     0     0  1.231340869E+02 -1.844244316E+02  2.920099895E+02  3.873876718E+02  1.250000000E+02  0.00000E+00  9.000E+00
      25     1     1     2     0     0 -1.079132737E+02  1.556345075E+02  7.945949419E+02  8.263616014E+02  1.250000000E+02  0.00000E+00  9.000E+00
      21     1     1     2   502   512 -1.522081316E+01  2.878992411E+01 -1.440700063E+01  3.561031522E+01  4.129530925E-07  0.00000E+00  9.000E+00
#rwgt            1           1   1.5928401775615799E-002           3       98267           0
</event>
<event>
      5   9999  3.19816E-02  3.08784E+02 -1.00000E+00  1.05186E-01
      21    -1     0     0   502   501  0.000000000E+00  0.000000000E+00  1.783314056E+03  1.783314056E+03  0.000000000E+00  0.00000E+00  9.000E+00
      21    -1     0     0   511   502  0.000000000E+00  0.000000000E+00 -6.991568741E+02  6.991568741E+02  0.000000000E+00  0.00000E+00  9.000E+00
      25     1     1     2     0     0  2.008512994E+02  5.614499945E+02  7.676883306E+02  9.800702596E+02  1.250000000E+02  0.00000E+00  9.000E+00
      25     1     1     2     0     0  1.056750446E+02 -5.241775224E+02  7.748540606E+02  9.497121170E+02  1.250000000E+02  0.00000E+00  9.000E+00
      21     1     1     2   511   501 -3.065263440E+02 -3.727247204E+01 -4.583852094E+02  5.526885533E+02  5.394796609E-06  0.00000E+00  9.000E+00
#rwgt            2          11   4.7561086302570013E-003           3       98434           0
</event>
<event>
      5   9999  3.19816E-02  3.36714E+01 -1.00000E+00  1.49637E-01
      21    -1     0     0   502   501  0.000000000E+00  0.000000000E+00  1.707064897E+02  1.707064897E+02  0.000000000E+00  0.00000E+00  9.000E+00
      21    -1     0     0   501   512  0.000000000E+00  0.000000000E+00 -3.858518075E+02  3.858518075E+02  0.000000000E+00  0.00000E+00  9.000E+00
      25     1     1     2     0     0 -1.707776005E+02  6.687132113E+01 -1.670577096E+02  2.777949617E+02  1.250000000E+02  0.00000E+00  9.000E+00
      25     1     1     2     0     0  1.404102728E+02 -5.232528315E+01  2.650069071E+01  1.969270590E+02  1.250000000E+02  0.00000E+00  9.000E+00
      21     1     1     2   502   512  3.036732770E+01 -1.454603798E+01 -7.458829893E+01  8.183627649E+01  9.536743164E-07  0.00000E+00  9.000E+00
#rwgt            1           1   2.5677882070265112E-002           3       98484           0
</event>
<event>
      5   9999  3.19816E-02  4.40552E+01 -1.00000E+00  1.42286E-01
      21    -1     0     0   502   501  0.000000000E+00  0.000000000E+00  2.049151736E+02  2.049151736E+02  0.000000000E+00  0.00000E+00  9.000E+00
      21    -1     0     0   501   511  0.000000000E+00  0.000000000E+00 -4.181311864E+02  4.181311864E+02  0.000000000E+00  0.00000E+00  9.000E+00
      25     1     1     2     0     0 -1.662383472E+00 -1.831318836E+02 -2.392786756E+02  3.262197647E+02  1.250000000E+02  0.00000E+00  9.000E+00
      25     1     1     2     0     0 -1.536686341E+01  1.425010574E+02  9.687366357E+01  2.134296103E+02  1.250000000E+02  0.00000E+00  9.000E+00
      21     1     1     2   502   511  1.702924689E+01  4.063082612E+01 -7.081100080E+01  8.339698504E+01  1.651812370E-06  0.00000E+00  9.000E+00
#rwgt            1           1   2.8423438743596124E-002           3       98572           0
</event>
<event>
      5   9999  3.19816E-02  8.90426E+01 -1.00000E+00  1.26138E-01
       2    -1     0     0   502     0  0.000000000E+00  0.000000000E+00  3.353036872E+02  3.353036872E+02  0.000000000E+00  0.00000E+00  9.000E+00
      21    -1     0     0   501   502  0.000000000E+00  0.000000000E+00 -2.741607778E+02  2.741607778E+02  0.000000000E+00  0.00000E+00  9.000E+00
      25     1     1     2     0     0 -8.478598170E+01 -4.675932211E+01 -1.599816814E+02  2.249316236E+02  1.250000000E+02  0.00000E+00  9.000E+00
      25     1     1     2     0     0  9.415198865E+01  1.353079494E+02  8.900883318E+01  2.252119236E+02  1.250000000E+02  0.00000E+00  9.000E+00
       2     1     1     2   501     0 -9.366006949E+00 -8.854862728E+01  1.321157576E+02  1.593209179E+02  2.697398305E-06  0.00000E+00  9.000E+00
#rwgt            1           1   2.8441799232833270E-002           3       98630           0
</event>
<event>
      5   9999  3.19816E-02  4.22823E+01 -1.00000E+00  1.43361E-01
      -4    -1     0     0     0   501  0.000000000E+00  0.000000000E+00  1.820748095E+02  1.820748095E+02  0.000000000E+00  0.00000E+00  9.000E+00
      21    -1     0     0   501   502  0.000000000E+00  0.000000000E+00 -1.904259833E+03  1.904259833E+03  0.000000000E+00  0.00000E+00  9.000E+00
      25     1     1     2     0     0  1.690118413E+02 -8.257304635E+01 -1.275942213E+02  2.594004545E+02  1.250000000E+02  0.00000E+00  9.000E+00
      25     1     1     2     0     0 -1.867683972E+02  1.209462268E+02 -1.697029043E+03  1.716112758E+03  1.250000000E+02  0.00000E+00  9.000E+00
      -4     1     1     2     0   502  1.775655588E+01 -3.837318042E+01  1.024382408E+02  1.108214304E+02  2.336015456E-06  0.00000E+00  9.000E+00
#rwgt            1           1   2.8547932336072838E-002           3       98687           0
</event>
<event>
      5   9999  3.19816E-02  4.08408E+01 -1.00000E+00  1.44282E-01
      21    -1     0     0   502   511  0.000000000E+00  0.000000000E+00  3.889563642E+02  3.889563642E+02  0.000000000E+00  0.00000E+00  9.000E+00
      21    -1     0     0   501   502  0.000000000E+00  0.000000000E+00 -7.783062534E+02  7.783062534E+02  0.000000000E+00  0.00000E+00  9.000E+00
      25     1     1     2     0     0 -1.218993028E+02  4.577195800E+02 -1.991070533E+02  5.288055150E+02  1.250000000E+02  0.00000E+00  9.000E+00
      25     1     1     2     0     0  1.558709674E+02 -4.350502820E+02 -2.694383314E+02  5.493509996E+02  1.250000000E+02  0.00000E+00  9.000E+00
      21     1     1     2   501   511 -3.397166460E+01 -2.266929805E+01  7.919549561E+01  8.910610302E+01  0.000000000E+00  0.00000E+00  9.000E+00
#rwgt            1           1   2.6399825909082270E-002           3       98826           0
</event>
<event>
      5   9999  3.19816E-02  3.67819E+02 -1.00000E+00  1.02794E-01
      21    -1     0     0   502   512  0.000000000E+00  0.000000000E+00  1.131728974E+03  1.131728974E+03  0.000000000E+00  0.00000E+00  9.000E+00
      21    -1     0     0   501   502  0.000000000E+00  0.000000000E+00 -8.228498407E+02  8.228498407E+02  0.000000000E+00  0.00000E+00  9.000E+00
      25     1     1     2     0     0  5.864694168E+02 -3.152968953E+02 -2.448059662E+02  7.203564882E+02  1.250000000E+02  0.00000E+00  9.000E+00
      25     1     1     2     0     0 -3.170928287E+02  6.484296865E+01 -1.964871837E+02  3.987288376E+02  1.250000000E+02  0.00000E+00  9.000E+00
      21     1     1     2   501   512 -2.693765881E+02  2.504539267E+02  7.501722837E+02  8.354934894E+02  1.078959322E-05  0.00000E+00  9.000E+00
#rwgt            2          11   2.6310310932603723E-003           3       99018           0
</event>
<event>
      5   9999  3.19816E-02  2.84778E+01 -1.00000E+00  1.54627E-01
      21    -1     0     0   502   501  0.000000000E+00  0.000000000E+00  1.437475222E+03  1.437475222E+03  0.000000000E+00  0.00000E+00  9.000E+00
      21    -1     0     0   511   502  0.000000000E+00  0.000000000E+00 -5.418559965E+02  5.418559965E+02  0.000000000E+00  0.00000E+00  9.000E+00
      25     1     1     2     0     0 -7.189871955E+02  2.091761147E+02  9.429000490E+02  1.210529940E+03  1.250000000E+02  0.00000E+00  9.000E+00
      25     1     1     2     0     0  6.934584144E+02 -1.965561386E+02 -2.385114240E+01  7.319240159E+02  1.250000000E+02  0.00000E+00  9.000E+00
      21     1     1     2   511   501  2.552878112E+01 -1.261997606E+01 -2.342968143E+01  3.687726174E+01  5.840038640E-07  0.00000E+00  9.000E+00
#rwgt            1           1   3.8130012428837984E-002           3       99038           0
</event>
<event>
      5   9999  3.19816E-02  4.68751E+01 -1.00000E+00  1.40694E-01
      21    -1     0     0   502   501  0.000000000E+00  0.000000000E+00  4.137337717E+02  4.137337717E+02  0.000000000E+00  0.00000E+00  9.000E+00
      21    -1     0     0   512   502  0.000000000E+00  0.000000000E+00 -8.525974771E+02  8.525974771E+02  0.000000000E+00  0.00000E+00  9.000E+00
      25     1     1     2     0     0 -1.094149595E+01 -2.849806593E+02  3.102918215E+02  4.395903855E+02  1.250000000E+02  0.00000E+00  9.000E+00
      25     1     1     2     0     0  1.706696254E+01  2.385075136E+02 -7.258793160E+02  7.744048661E+02  1.250000000E+02  0.00000E+00  9.000E+00
      21     1     1     2   512   501 -6.125466590E+00  4.647314565E+01 -2.327621093E+01  5.233599720E+01  6.743495762E-07  0.00000E+00  9.000E+00
#rwgt            1           1   3.1462329226492766E-002           3       99247           0
</event>
<event>
      5   9999  3.19816E-02  5.15564E+01 -1.00000E+00  1.38320E-01
      21    -1     0     0   502   501  0.000000000E+00  0.000000000E+00  6.267356285E+02  6.267356285E+02  0.000000000E+00  0.00000E+00  9.000E+00
      21    -1     0     0   511   502  0.000000000E+00  0.000000000E+00 -6.890134740E+02  6.890134740E+02  0.000000000E+00  0.00000E+00  9.000E+00
      25     1     1     2     0     0 -5.005783751E+02 -3.298688218E+02 -1.417040507E+02  6.285675677E+02  1.250000000E+02  0.00000E+00  9.000E+00
      25     1     1     2     0     0  4.495730466E+02  3.373865082E+02  1.544269021E+02  5.961696472E+02  1.250000000E+02  0.00000E+00  9.000E+00
      21     1     1     2   511   501  5.100532844E+01 -7.517686370E+00 -7.500069695E+01  9.101188758E+01  9.536743164E-07  0.00000E+00  9.000E+00
#rwgt            1           1   2.4362659756870141E-002           3       99381           0
</event>
<event>
      5   9999  3.19816E-02  2.32018E+01 -1.00000E+00  1.61218E-01
      -1    -1     0     0     0   501  0.000000000E+00  0.000000000E+00  1.058809118E+03  1.058809118E+03  0.000000000E+00  0.00000E+00  9.000E+00
      21    -1     0     0   501   502  0.000000000E+00  0.000000000E+00 -2.976697010E+02  2.976697010E+02  0.000000000E+00  0.00000E+00  9.000E+00
      25     1     1     2     0     0 -7.530699379E+01 -3.227215025E+01 -2.616957581E+02  3.013673918E+02  1.250000000E+02  0.00000E+00  9.000E+00
      25     1     1     2     0     0  8.829087014E+01  5.150089421E+01  3.933946515E+02  4.252434264E+02  1.250000000E+02  0.00000E+00  9.000E+00
      -1     1     1     2     0   502 -1.298387635E+01 -1.922874396E+01  6.294405239E+02  6.298680010E+02  1.321449896E-05  0.00000E+00  9.000E+00
#rwgt            1           1   2.7140381902287330E-002           3       99548           0
</event>
<event>
      5   9999  3.19816E-02  4.09149E+01 -1.00000E+00  1.44234E-01
      21    -1     0     0   502   501  0.000000000E+00  0.000000000E+00  7.640577843E+02  7.640577843E+02  0.000000000E+00  0.00000E+00  9.000E+00
      21    -1     0     0   511   502  0.000000000E+00  0.000000000E+00 -8.913228315E+02  8.913228315E+02  0.000000000E+00  0.00000E+00  9.000E+00
      25     1     1     2     0     0 -9.838425368E+01  2.571218571E+02 -6.735558235E+01  3.097626273E+02  1.250000000E+02  0.00000E+00  9.000E+00
      25     1     1     2     0     0  1.391590914E+02 -2.605045305E+02  6.021849225E+02  6.822606130E+02  1.250000000E+02  0.00000E+00  9.000E+00
      21     1     1     2   511   501 -4.077483771E+01  3.382673344E+00 -6.620943873E+02  6.633573755E+02  7.629394531E-06  0.00000E+00  9.000E+00
#rwgt            1           1   2.9070844694926042E-002           3       99749           0
</event>
<event>
      5   9999  3.19816E-02  2.21711E+02 -1.00000E+00  1.10043E-01
      -1    -1     0     0     0   501  0.000000000E+00  0.000000000E+00  5.747046706E+02  5.747046706E+02  0.000000000E+00  0.00000E+00  9.000E+00
      21    -1     0     0   501   502  0.000000000E+00  0.000000000E+00 -3.138778141E+02  3.138778141E+02  0.000000000E+00  0.00000E+00  9.000E+00
      25     1     1     2     0     0 -9.336912355E+01 -1.648984127E+02  1.099762537E+02  2.522480052E+02  1.250000000E+02  0.00000E+00  9.000E+00
      25     1     1     2     0     0  2.196689309E+02 -1.732177863E+01 -1.249440953E+02  2.824721405E+02  1.250000000E+02  0.00000E+00  9.000E+00
      -1     1     1     2     0   502 -1.262998073E+02  1.822201913E+02  2.757946981E+02  3.538623390E+02  3.814697266E-06  0.00000E+00  9.000E+00
#rwgt            1           1   2.7737809653458845E-002           3       99836           0
</event>
<event>
      5   9999  3.19816E-02  1.42758E+02 -1.00000E+00  1.17252E-01
      21    -1     0     0   502   501  0.000000000E+00  0.000000000E+00  2.450860811E+02  2.450860811E+02  0.000000000E+00  0.00000E+00  9.000E+00
       2    -1     0     0   501     0  0.000000000E+00  0.000000000E+00 -1.194966987E+03  1.194966987E+03  0.000000000E+00  0.00000E+00  9.000E+00
      25     1     1     2     0     0 -9.201502813E+01  2.464629608E+02 -7.790977397E+02  8.317626130E+02  1.250000000E+02  0.00000E+00  9.000E+00
      25     1     1     2     0     0  3.312066279E+01 -1.164191276E+02  1.672514958E+02  2.413471658E+02  1.250000000E+02  0.00000E+00  9.000E+00
       2     1     1     2   502     0  5.889436534E+01 -1.300438331E+02 -3.380346625E+02  3.669432897E+02  5.394796609E-06  0.00000E+00  9.000E+00
#rwgt            1           1   1.3734758707975749E-002           3       99865           0
</event>
<event>
      5   9999  3.19816E-02  1.49517E+02 -1.00000E+00  1.16449E-01
       1    -1     0     0   502     0  0.000000000E+00  0.000000000E+00  1.786208750E+03  1.786208750E+03  0.000000000E+00  0.00000E+00  9.000E+00
      21    -1     0     0   501   502  0.000000000E+00  0.000000000E+00 -6.193248033E+02  6.193248033E+02  0.000000000E+00  0.00000E+00  9.000E+00
      25     1     1     2     0     0  4.568682700E+02  3.002143642E+01 -1.139744061E+02  4.881035423E+02  1.250000000E+02  0.00000E+00  9.000E+00
      25     1     1     2     0     0 -3.139758175E+02 -7.403395146E+01 -2.194504779E+02  4.096893362E+02  1.250000000E+02  0.00000E+00  9.000E+00
       1     1     1     2   501     0 -1.428924525E+02  4.401251504E+01  1.500308830E+03  1.507740674E+03  2.157918644E-05  0.00000E+00  9.000E+00
#rwgt            1           1   2.6132242855993748E-002           3       99917           0
</event>
<event>
      5   9999  3.19816E-02  5.77893E+00 -1.00000E+00  2.28034E-01
      21    -1     0     0   511   501  0.000000000E+00  0.000000000E+00  2.225484825E+03  2.225484825E+03  0.000000000E+00  0.00000E+00  9.000E+00
      21    -1     0     0   501   502  0.000000000E+00  0.000000000E+00 -1.983311844E+01  1.983311844E+01  0.000000000E+00  0.00000E+00  9.000E+00
      25     1     1     2     0     0  4.513079645E-01 -1.139458906E+02  1.140077037E+03  1.152555648E+03  1.250000000E+02  0.00000E+00  9.000E+00
      25     1     1     2     0     0 -1.901183706E+00  1.083517982E+02  4.902891765E+02  5.174477783E+02  1.250000000E+02  0.00000E+00  9.000E+00
      21     1     1     2   511   502  1.449875742E+00  5.594092364E+00  5.752854930E+02  5.753145179E+02  7.629394531E-06  0.00000E+00  9.000E+00
#rwgt            1           1   2.3173826955664285E-002           3       99953           0
</event>
<event>
      5   9999  3.19816E-02  8.64069E+01 -1.00000E+00  1.26751E-01
      21    -1     0     0   502   501  0.000000000E+00  0.000000000E+00  5.504057622E+01  5.504057622E+01  0.000000000E+00  0.00000E+00  9.000E+00
      21    -1     0     0   501   512  0.000000000E+00  0.000000000E+00 -7.162506115E+02  7.162506115E+02  0.000000000E+00  0.00000E+00  9.000E+00
      25     1     1     2     0     0 -5.759478733E+01 -1.449828965E+00 -1.504318197E+02  2.038970179E+02  1.250000000E+02  0.00000E+00  9.000E+00
      25     1     1     2     0     0  3.274663593E+01  8.420686989E+01 -2.618684651E+02  3.039131983E+02  1.250000000E+02  0.00000E+00  9.000E+00
      21     1     1     2   502   512  2.484815140E+01 -8.275704092E+01 -2.489097506E+02  2.634809716E+02  2.697398305E-06  0.00000E+00  9.000E+00
#rwgt            1           1   2.7778762152361598E-002           3      100188           0
</event>
<event>
      5   9999  3.19816E-02  2.64537E+01 -1.00000E+00  1.56934E-01
       2    -1     0     0   502     0  0.000000000E+00  0.000000000E+00  1.286833228E+03  1.286833228E+03  0.000000000E+00  0.00000E+00  9.000E+00
      21    -1     0     0   501   502  0.000000000E+00  0.000000000E+00 -2.210285393E+02  2.210285393E+02  0.000000000E+00  0.00000E+00  9.000E+00
      25     1     1     2     0     0 -1.113534987E+02  1.425864525E+02  3.143857586E+02  3.836585765E+02  1.250000000E+02  0.00000E+00  9.000E+00
      25     1     1     2     0     0  1.116360407E+02 -1.690386739E+02 -1.101082904E+02  2.622699268E+02  1.250000000E+02  0.00000E+00  9.000E+00
       2     1     1     2   501     0 -2.825420043E-01  2.645222142E+01  8.615272210E+02  8.619332645E+02  1.078959322E-05  0.00000E+00  9.000E+00
#rwgt            1           1   2.7602530349559354E-002           3      100236           0
</event>
<event>
      5   9999  3.19816E-02  1.31986E+02 -1.00000E+00  1.18639E-01
      21    -1     0     0   502   501  0.000000000E+00  0.000000000E+00  4.584881510E+02  4.584881510E+02  0.000000000E+00  0.00000E+00  9.000E+00
      21    -1     0     0   501   511  0.000000000E+00  0.000000000E+00 -2.105477878E+02  2.105477878E+02  0.000000000E+00  0.00000E+00  9.000E+00
      25     1     1     2     0     0  1.304811719E+02  1.059479007E+02  2.201334071E+02  3.038651194E+02  1.250000000E+02  0.00000E+00  9.000E+00
      25     1     1     2     0     0 -1.953545968E+02  8.994353212E+00  1.986358785E+01  2.329460860E+02  1.250000000E+02  0.00000E+00  9.000E+00
      21     1     1     2   502   511  6.487342486E+01 -1.149422539E+02  7.943368260E+00  1.322247333E+02  1.946071114E-06  0.00000E+00  9.000E+00
#rwgt            2          11   2.9550336552849458E-003           3      100568           0
</event>
<event>
      5   9999  3.19816E-02  2.59029E+01 -1.00000E+00  1.57605E-01
      21    -1     0     0   502   501  0.000000000E+00  0.000000000E+00  5.877869605E+02  5.877869605E+02  0.000000000E+00  0.00000E+00  9.000E+00
      21    -1     0     0   501   512  0.000000000E+00  0.000000000E+00 -9.044014937E+02  9.044014937E+02  0.000000000E+00  0.00000E+00  9.000E+00
      25     1     1     2     0     0 -4.056943131E+02  4.793154569E+02  1.598524637E+02  6.599310517E+02  1.250000000E+02  0.00000E+00  9.000E+00
      25     1     1     2     0     0  4.303980597E+02 -4.715255244E+02 -4.323831501E+02  7.811267493E+02  1.250000000E+02  0.00000E+00  9.000E+00
      21     1     1     2   502   512 -2.470374667E+01 -7.789932447E+00 -4.408384672E+01  5.113065312E+01  0.000000000E+00  0.00000E+00  9.000E+00
#rwgt            1           1   2.9606696176876918E-002           3      100633           0
</event>
<event>
      5   9999  3.19816E-02  4.59324E+01 -1.00000E+00  1.41211E-01
      21    -1     0     0   502   501  0.000000000E+00  0.000000000E+00  2.002224220E+03  2.002224220E+03  0.000000000E+00  0.00000E+00  9.000E+00
      21    -1     0     0   511   502  0.000000000E+00  0.000000000E+00 -9.844123117E+01  9.844123117E+01  0.000000000E+00  0.00000E+00  9.000E+00
      25     1     1     2     0     0 -3.132024068E+02 -1.432822372E+02  8.861854061E+02  9.589447957E+02  1.250000000E+02  0.00000E+00  9.000E+00
      25     1     1     2     0     0  2.702910139E+02  1.268993158E+02  1.041001352E+03  1.090169475E+03  1.250000000E+02  0.00000E+00  9.000E+00
      21     1     1     2   511   501  4.291139289E+01  1.638292137E+01 -2.340376984E+01  5.155118035E+01  1.966049969E-06  0.00000E+00  9.000E+00
#rwgt            1           1   2.8586636961953862E-002           3      100769           0
</event>
<event>
      5   9999  3.19816E-02  1.54703E+02 -1.00000E+00  1.15865E-01
      21    -1     0     0   512   501  0.000000000E+00  0.000000000E+00  1.211672751E+03  1.211672751E+03  0.000000000E+00  0.00000E+00  9.000E+00
      21    -1     0     0   501   502  0.000000000E+00  0.000000000E+00 -1.425648275E+02  1.425648275E+02  0.000000000E+00  0.00000E+00  9.000E+00
      25     1     1     2     0     0  1.785893781E+02  8.835503081E+01  3.887203834E+01  2.384047248E+02  1.250000000E+02  0.00000E+00  9.000E+00
      25     1     1     2     0     0 -4.518272142E+01 -1.666850134E+02  2.918997307E+02  3.614634488E+02  1.250000000E+02  0.00000E+00  9.000E+00
      21     1     1     2   512   502 -1.334066566E+02  7.832998261E+01  7.383361549E+02  7.543694054E+02  1.078959322E-05  0.00000E+00  9.000E+00
#rwgt            1           1   2.3359426252708235E-002           3      100848           0
</event>
<event>
      5   9999  3.19816E-02  7.42892E+01 -1.00000E+00  1.29926E-01
      21    -1     0     0   502   501  0.000000000E+00  0.000000000E+00  9.432931717E+02  9.432931717E+02  0.000000000E+00  0.00000E+00  9.000E+00
      21    -1     0     0   511   502  0.000000000E+00  0.000000000E+00 -7.570771409E+02  7.570771409E+02  0.000000000E+00  0.00000E+00  9.000E+00
      25     1     1     2     0     0 -4.099974164E+02 -1.904910034E+02 -5.412263795E+02  7.161952930E+02  1.250000000E+02  0.00000E+00  9.000E+00
      25     1     1     2     0     0  4.798114143E+02  1.650962690E+02  7.428989594E+02  9.082949054E+02  1.250000000E+02  0.00000E+00  9.000E+00
      21     1     1     2   511   501 -6.981399788E+01  2.539473442E+01 -1.545654913E+01  7.588011431E+01  1.215700987E-06  0.00000E+00  9.000E+00
#rwgt            1           1   3.2692199321007559E-002           3      100906           0
</event>
<event>
      5   9999  3.19816E-02  3.17124E+01 -1.00000E+00  1.51384E-01
      21    -1     0     0   512   501  0.000000000E+00  0.000000000E+00  8.475130079E+02  8.475130079E+02  0.000000000E+00  0.00000E+00  9.000E+00
      21    -1     0     0   501   502  0.000000000E+00  0.000000000E+00 -6.464582695E+02  6.464582695E+02  0.000000000E+00  0.00000E+00  9.000E+00
      25     1     1     2     0     0  4.084821030E+01  3.597771522E+02 -5.360054423E+02  6.588133345E+02  1.250000000E+02  0.00000E+00  9.000E+00
      25     1     1     2     0     0 -4.870835400E+01 -3.290542867E+02  7.078676001E+02  7.920547750E+02  1.250000000E+02  0.00000E+00  9.000E+00
      21     1     1     2   512   502  7.860143693E+00 -3.072286553E+01  2.919258059E+01  4.310316795E+01  7.539457465E-07  0.00000E+00  9.000E+00
#rwgt            1           1   3.0387467827896749E-002           3      101016           0
</event>
<event>
      5   9999  3.19816E-02  3.69319E+01 -1.00000E+00  1.47023E-01
      21    -1     0     0   502   501  0.000000000E+00  0.000000000E+00  1.778858528E+02  1.778858528E+02  0.000000000E+00  0.00000E+00  9.000E+00
      21    -1     0     0   511   502  0.000000000E+00  0.000000000E+00 -1.752792649E+03  1.752792649E+03  0.000000000E+00  0.00000E+00  9.000E+00
      25     1     1     2     0     0 -3.337151928E+02  2.890067307E+02 -7.374372955E+02  8.685214362E+02  1.250000000E+02  0.00000E+00  9.000E+00
      25     1     1     2     0     0  3.642904405E+02 -3.097219035E+02 -4.361933548E+02  6.591849705E+02  1.250000000E+02  0.00000E+00  9.000E+00
      21     1     1     2   511   501 -3.057524768E+01  2.071517284E+01 -4.012761456E+02  4.029720948E+02  7.629394531E-06  0.00000E+00  9.000E+00
#rwgt            1           1   3.0104347466301532E-002           3      101184           0
</event>
<event>
      5   9999  3.19816E-02  1.87819E+02 -1.00000E+00  1.12651E-01
      21    -1     0     0   502   501  0.000000000E+00  0.000000000E+00  7.009683221E+02  7.009683221E+02  0.000000000E+00  0.00000E+00  9.000E+00
       2    -1     0     0   501     0  0.000000000E+00  0.000000000E+00 -1.694004459E+03  1.694004459E+03  0.000000000E+00  0.00000E+00  9.000E+00
      25     1     1     2     0     0  6.541492933E+01 -8.899114462E+02 -3.761793630E+02  9.764002295E+02  1.250000000E+02  0.00000E+00  9.000E+00
      25     1     1     2     0     0  1.224026189E+02  8.905971115E+02 -1.560183432E+02  9.209301491E+02  1.250000000E+02  0.00000E+00  9.000E+00
       2     1     1     2   502     0 -1.878175483E+02 -6.856652928E-01 -4.608384305E+02  4.976424023E+02  5.394796609E-06  0.00000E+00  9.000E+00
#rwgt            1           1   3.0305494498719186E-002           3      101338           0
</event>
<event>
      5   9999  3.19816E-02  2.45238E+02 -1.00000E+00  1.08516E-01
      21    -1     0     0   502   501  0.000000000E+00  0.000000000E+00  6.841976608E+02  6.841976608E+02  0.000000000E+00  0.00000E+00  9.000E+00
      21    -1     0     0   511   502  0.000000000E+00  0.000000000E+00 -4.084795666E+02  4.084795666E+02  0.000000000E+00  0.00000E+00  9.000E+00
      25     1     1     2     0     0 -3.347116110E+02 -1.822387024E+02 -7.931224123E+01  4.088498976E+02  1.250000000E+02  0.00000E+00  9.000E+00
      25     1     1     2     0     0  1.935198303E+02 -1.827707474E+01  3.720665344E+02  4.379982674E+02  1.250000000E+02  0.00000E+00  9.000E+00
      21     1     1     2   511   501  1.411917807E+02  2.005157772E+02 -1.703619906E+01  2.458290624E+02  3.693564745E-06  0.00000E+00  9.000E+00
#rwgt            1           1   2.8444368307572149E-002           3      101405           0
</event>
<event>
      5   9999  3.19816E-02  6.56078E+01 -1.00000E+00  1.32662E-01
      21    -1     0     0   502   501  0.000000000E+00  0.000000000E+00  9.467612359E+02  9.467612359E+02  0.000000000E+00  0.00000E+00  9.000E+00
      21    -1     0     0   501   512  0.000000000E+00  0.000000000E+00 -1.251629227E+03  1.251629227E+03  0.000000000E+00  0.00000E+00  9.000E+00
      25     1     1     2     0     0 -5.564352236E+02 -5.138336165E+02 -4.480947325E+02  8.888526497E+02  1.250000000E+02  0.00000E+00  9.000E+00
      25     1     1     2     0     0  4.908846496E+02  5.165731995E+02  5.428885821E+02  9.045267393E+02  1.250000000E+02  0.00000E+00  9.000E+00
      21     1     1     2   502   512  6.555057409E+01 -2.739583020E+00 -3.996618403E+02  4.050110735E+02  5.394796609E-06  0.00000E+00  9.000E+00
#rwgt            1           1   2.8336940203372123E-002           3      101447           0
</event>
<event>
      5   9999  3.19816E-02  2.77609E+01 -1.00000E+00  1.55417E-01
      21    -1     0     0   502   511  0.000000000E+00  0.000000000E+00  2.120980912E+03  2.120980912E+03  0.000000000E+00  0.00000E+00  9.000E+00
      21    -1     0     0   501   502  0.000000000E+00  0.000000000E+00 -3.939960467E+01  3.939960467E+01  0.000000000E+00  0.00000E+00  9.000E+00
      25     1     1     2     0     0 -7.685111763E+01  8.608580095E+01  1.838916285E+02  2.505154495E+02  1.250000000E+02  0.00000E+00  9.000E+00
      25     1     1     2     0     0  1.034629111E+02 -9.399030561E+01  1.663334076E+03  1.673870962E+03  1.250000000E+02  0.00000E+00  9.000E+00
      21     1     1     2   501   511 -2.661179343E+01  7.904504663E+00  2.343556028E+02  2.359941044E+02  3.814697266E-06  0.00000E+00  9.000E+00
#rwgt            1           1   2.6838886712806456E-002           3      101537           0
</event>
<event>
      5   9999  3.19816E-02  2.75025E+01 -1.00000E+00  1.55709E-01
      21    -1     0     0   502   512  0.000000000E+00  0.000000000E+00  8.853414665E+01  8.853414665E+01  0.000000000E+00  0.00000E+00  9.000E+00
      21    -1     0     0   501   502  0.000000000E+00  0.000000000E+00 -7.571065910E+02  7.571065910E+02  0.000000000E+00  0.00000E+00  9.000E+00
      25     1     1     2     0     0 -3.476523900E+01 -1.301356928E+02 -2.628469700E+02  3.207139692E+02  1.250000000E+02  0.00000E+00  9.000E+00
      25     1     1     2     0     0  3.486692719E+01  1.576380389E+02 -4.375613219E+02  4.828564634E+02  1.250000000E+02  0.00000E+00  9.000E+00
      21     1     1     2   501   512 -1.016881936E-01 -2.750234608E+01  3.183584749E+01  4.207030504E+01  4.768371582E-07  0.00000E+00  9.000E+00
#rwgt            1           1   3.6363694986878567E-002           3      101692           0
</event>
<event>
      5   9999  3.19816E-02  9.29514E+01 -1.00000E+00  1.25273E-01
      21    -1     0     0   511   501  0.000000000E+00  0.000000000E+00  1.609907156E+02  1.609907156E+02  0.000000000E+00  0.00000E+00  9.000E+00
      21    -1     0     0   501   502  0.000000000E+00  0.000000000E+00 -1.228196137E+03  1.228196137E+03  0.000000000E+00  0.00000E+00  9.000E+00
      25     1     1     2     0     0  1.489436906E+02  2.432827132E+02 -5.776472851E+02  6.562561143E+02  1.250000000E+02  0.00000E+00  9.000E+00
      25     1     1     2     0     0 -1.660156464E+02 -1.519124756E+02 -5.599816559E+02  6.163140839E+02  1.250000000E+02  0.00000E+00  9.000E+00
      21     1     1     2   511   502  1.707195585E+01 -9.137023753E+01  7.042351957E+01  1.166166544E+02  9.536743164E-07  0.00000E+00  9.000E+00
#rwgt            1           1   3.6433888408222100E-002           3      101834           0
</event>
<event>
      5   9999  3.19816E-02  1.15075E+01 -1.00000E+00  1.88962E-01
      21    -1     0     0   502   501  0.000000000E+00  0.000000000E+00  1.034624118E+03  1.034624118E+03  0.000000000E+00  0.00000E+00  9.000E+00
      21    -1     0     0   512   502  0.000000000E+00  0.000000000E+00 -3.900782355E+02  3.900782355E+02  0.000000000E+00  0.00000E+00  9.000E+00
      25     1     1     2     0     0 -1.821013758E+02 -4.289952365E+02  2.178602461E+02  5.294203536E+02  1.250000000E+02  0.00000E+00  9.000E+00
      25     1     1     2     0     0  1.905851144E+02  4.212203579E+02  5.739750532E+02  7.475437361E+02  1.250000000E+02  0.00000E+00  9.000E+00
      21     1     1     2   512   501 -8.483738621E+00  7.774878602E+00 -1.472894163E+02  1.477382642E+02  3.303624740E-06  0.00000E+00  9.000E+00
#rwgt            1           1   2.8221927108489385E-002           3      101896           0
</event>
<event>
      5   9999  3.19816E-02  2.42642E+01 -1.00000E+00  1.59729E-01
      21    -1     0     0   502   511  0.000000000E+00  0.000000000E+00  3.130249231E+03  3.130249231E+03  0.000000000E+00  0.00000E+00  9.000E+00
      21    -1     0     0   501   502  0.000000000E+00  0.000000000E+00 -1.831757328E+02  1.831757328E+02  0.000000000E+00  0.00000E+00  9.000E+00
      25     1     1     2     0     0  9.535749474E+00  1.083215931E+02 -1.354693703E+02  2.140127294E+02  1.250000000E+02  0.00000E+00  9.000E+00
      25     1     1     2     0     0 -2.903805357E+01 -1.227580494E+02  9.340518640E+02  9.507842194E+02  1.250000000E+02  0.00000E+00  9.000E+00
      21     1     1     2   501   511  1.950230410E+01  1.443645629E+01  2.148491004E+03  2.148628015E+03  0.000000000E+00  0.00000E+00  9.000E+00
#rwgt            1           1   3.2500442110147319E-002           3      102198           0
</event>
<event>
      5   9999  3.19816E-02  1.38956E+02 -1.00000E+00  1.17725E-01
      21    -1     0     0   502   512  0.000000000E+00  0.000000000E+00  7.599715097E+02  7.599715097E+02  0.000000000E+00  0.00000E+00  9.000E+00
      21    -1     0     0   501   502  0.000000000E+00  0.000000000E+00 -1.743089260E+02  1.743089260E+02  0.000000000E+00  0.00000E+00  9.000E+00
      25     1     1     2     0     0  3.876682989E+01  2.212403463E+01 -8.261081836E+01  1.563390141E+02  1.250000000E+02  0.00000E+00  9.000E+00
      25     1     1     2     0     0 -1.763533232E+02 -2.661248860E+00  2.192195376E+02  3.078794935E+02  1.250000000E+02  0.00000E+00  9.000E+00
      21     1     1     2   501   512  1.375864933E+02 -1.946278577E+01  4.490538645E+02  4.700619282E+02  7.629394531E-06  0.00000E+00  9.000E+00
#rwgt            1           1   2.6189833234002709E-002           3      102446           0
</event>
<event>
      5   9999  3.19816E-02  5.15192E+01 -1.00000E+00  1.38338E-01
      21    -1     0     0   502   501  0.000000000E+00  0.000000000E+00  7.420144769E+02  7.420144769E+02  0.000000000E+00  0.00000E+00  9.000E+00
      21    -1     0     0   501   511  0.000000000E+00  0.000000000E+00 -3.453487052E+02  3.453487052E+02  0.000000000E+00  0.00000E+00  9.000E+00
      25     1     1     2     0     0 -4.347523109E+02  1.067232210E+00  5.449765645E+01  4.556376909E+02  1.250000000E+02  0.00000E+00  9.000E+00
      25     1     1     2     0     0  4.586545853E+02  4.457172458E+01  3.243320356E+02  5.772061474E+02  1.250000000E+02  0.00000E+00  9.000E+00
      21     1     1     2   502   511 -2.390227444E+01 -4.563895679E+01  1.783607966E+01  5.451934370E+01  3.371747881E-07  0.00000E+00  9.000E+00
#rwgt            2          11   5.1889332836954618E-003           3      102522           0
</event>
<event>
      5   9999  3.19816E-02  1.05933E+02 -1.00000E+00  1.22712E-01
      21    -1     0     0   512   501  0.000000000E+00  0.000000000E+00  1.560532360E+02  1.560532360E+02  0.000000000E+00  0.00000E+00  9.000E+00
      21    -1     0     0   501   502  0.000000000E+00  0.000000000E+00 -7.771862018E+02  7.771862018E+02  0.000000000E+00  0.00000E+00  9.000E+00
      25     1     1     2     0     0  2.917686341E+02  5.178645953E+01 -3.121243813E+02  4.481711756E+02  1.250000000E+02  0.00000E+00  9.000E+00
      25     1     1     2     0     0 -1.906008886E+02 -8.320163992E+01 -2.888387156E+02  3.772320443E+02  1.250000000E+02  0.00000E+00  9.000E+00
      21     1     1     2   512   502 -1.011677455E+02  3.141518039E+01 -2.016986890E+01  1.078362179E+02  7.539457465E-07  0.00000E+00  9.000E+00
#rwgt            1           1   2.7781788222046893E-002           3      102557           0
</event>
<event>
      5   9999  3.19816E-02  1.02068E+02 -1.00000E+00  1.23429E-01
      21    -1     0     0   511   501  0.000000000E+00  0.000000000E+00  2.686054669E+02  2.686054669E+02  0.000000000E+00  0.00000E+00  9.000E+00
      21    -1     0     0   501   502  0.000000000E+00  0.000000000E+00 -1.169437451E+03  1.169437451E+03  0.000000000E+00  0.00000E+00  9.000E+00
      25     1     1     2     0     0 -9.767685735E+00 -1.854698778E+02 -4.515787226E+02  5.040266123E+02  1.250000000E+02  0.00000E+00  9.000E+00
      25     1     1     2     0     0 -7.651931638E+01  1.309499394E+02 -6.660240302E+02  6.944178146E+02  1.250000000E+02  0.00000E+00  9.000E+00
      21     1     1     2   511   502  8.628700211E+01  5.451993837E+01  2.167707690E+02  2.395984906E+02  6.031565972E-06  0.00000E+00  9.000E+00
#rwgt            1           1   2.9712950374336852E-002           3      102611           0
</event>
<event>
      5   9999  3.19816E-02  1.94355E+02 -1.00000E+00  1.12103E-01
      21    -1     0     0   502   501  0.000000000E+00  0.000000000E+00  3.438400478E+02  3.438400478E+02  0.000000000E+00  0.00000E+00  9.000E+00
      21    -1     0     0   512   502  0.000000000E+00  0.000000000E+00 -1.408909064E+03  1.408909064E+03  0.000000000E+00  0.00000E+00  9.000E+00
      25     1     1     2     0     0  2.378099674E+01 -2.707111104E+02 -1.860597224E+02  3.522687346E+02  1.250000000E+02  0.00000E+00  9.000E+00
      25     1     1     2     0     0 -1.061091713E+02  4.467676473E+02  2.427486172E+01  4.765236152E+02  1.250000000E+02  0.00000E+00  9.000E+00
      21     1     1     2   512   501  8.232817455E+01 -1.760565369E+02 -9.032841552E+02  9.239567618E+02  1.078959322E-05  0.00000E+00  9.000E+00
#rwgt            2          11   2.0305954439339270E-003           3      102718           0
</event>
<event>
      5   9999  3.19816E-02  1.41513E+02 -1.00000E+00  1.17405E-01
      21    -1     0     0   511   501  0.000000000E+00  0.000000000E+00  2.123373325E+02  2.123373325E+02  0.000000000E+00  0.00000E+00  9.000E+00
      21    -1     0     0   501   502  0.000000000E+00  0.000000000E+00 -1.434966356E+03  1.434966356E+03  0.000000000E+00  0.00000E+00  9.000E+00
      25     1     1     2     0     0  1.711469900E+02  2.391270854E+02 -1.086115384E+03  1.132141635E+03  1.250000000E+02  0.00000E+00  9.000E+00
      25     1     1     2     0     0 -4.275164801E+01 -2.986298464E+02 -1.215657735E+01  3.267725064E+02  1.250000000E+02  0.00000E+00  9.000E+00
      21     1     1     2   511   502 -1.283953420E+02  5.950276095E+01 -1.243570621E+02  1.883895466E+02  3.303624740E-06  0.00000E+00  9.000E+00
#rwgt            1           1   2.5836458354451069E-002           3      102738           0
</event>
<event>
      5   9999  3.19816E-02  1.84039E+02 -1.00000E+00  1.12979E-01
       2    -1     0     0   502     0  0.000000000E+00  0.000000000E+00  2.040910728E+03  2.040910728E+03  0.000000000E+00  0.00000E+00  9.000E+00
      21    -1     0     0   501   502  0.000000000E+00  0.000000000E+00 -1.575257852E+02  1.575257852E+02  0.000000000E+00  0.00000E+00  9.000E+00
      25     1     1     2     0     0  2.919682747E+02 -1.130665837E+02  5.096305649E+02  6.110465109E+02  1.250000000E+02  0.00000E+00  9.000E+00
      25     1     1     2     0     0 -3.644766968E+02 -5.608730740E+01  2.833443891E+02  4.815579834E+02  1.250000000E+02  0.00000E+00  9.000E+00
       2     1     1     2   501     0  7.250842207E+01  1.691538911E+02  1.090409989E+03  1.105832019E+03  2.157918644E-05  0.00000E+00  9.000E+00
#rwgt            2          18   1.4938545293579110E-003           3      103012           0
</event>
<event>
      5   9999  3.19816E-02  1.58522E+02 -1.00000E+00  1.15450E-01
      21    -1     0     0   502   511  0.000000000E+00  0.000000000E+00  5.511375036E+02  5.511375036E+02  0.000000000E+00  0.00000E+00  9.000E+00
      21    -1     0     0   501   502  0.000000000E+00  0.000000000E+00 -2.003065406E+03  2.003065406E+03  0.000000000E+00  0.00000E+00  9.000E+00
      25     1     1     2     0     0 -1.096253072E+01 -3.807267053E+02 -1.030734927E+03  1.105944163E+03  1.250000000E+02  0.00000E+00  9.000E+00
      25     1     1     2     0     0 -1.348914181E+02  3.186313346E+02 -8.848332276E+02  9.582674276E+02  1.250000000E+02  0.00000E+00  9.000E+00
      21     1     1     2   501   511  1.458539488E+02  6.209537078E+01  4.636402523E+02  4.899913193E+02  5.394796609E-06  0.00000E+00  9.000E+00
#rwgt            1           1   3.4008169800582362E-002           3      103046           0
</event>
<event>
      5   9999  3.19816E-02  1.43388E+02 -1.00000E+00  1.17175E-01
      21    -1     0     0   502   501  0.000000000E+00  0.000000000E+00  5.686424261E+02  5.686424261E+02  0.000000000E+00  0.00000E+00  9.000E+00
      -2    -1     0     0     0   502  0.000000000E+00  0.000000000E+00 -7.359894299E+02  7.359894299E+02  0.000000000E+00  0.00000E+00  9.000E+00
      25     1     1     2     0     0  3.050571430E+02  1.020318948E+02  4.558520817E+01  3.480996685E+02  1.250000000E+02  0.00000E+00  9.000E+00
      25     1     1     2     0     0 -2.814366603E+02  3.939708661E+01  2.952945563E+02  4.284654002E+02  1.250000000E+02  0.00000E+00  9.000E+00
      -2     1     1     2     0   501 -2.362048270E+01 -1.414289814E+02 -5.082267682E+02  5.280667874E+02  7.629394531E-06  0.00000E+00  9.000E+00
#rwgt            1           1   3.0678962231501617E-002           3      103112           0
</event>
<event>
      5   9999  3.19816E-02  5.46489E+01 -1.00000E+00  1.36908E-01
      21    -1     0     0   511   501  0.000000000E+00  0.000000000E+00  8.211211757E+01  8.211211757E+01  0.000000000E+00  0.00000E+00  9.000E+00
      21    -1     0     0   501   502  0.000000000E+00  0.000000000E+00 -6.075514650E+02  6.075514650E+02  0.000000000E+00  0.00000E+00  9.000E+00
      25     1     1     2     0     0  2.569836217E+01  6.841651516E+01 -5.175874758E+01  1.537699363E+02  1.250000000E+02  0.00000E+00  9.000E+00
      25     1     1     2     0     0  2.893907094E+01 -6.953458059E+01 -4.554886168E+02  4.782963597E+02  1.250000000E+02  0.00000E+00  9.000E+00
      21     1     1     2   511   502 -5.463743310E+01  1.118065430E+00 -1.819198310E+01  5.759728653E+01  5.840038640E-07  0.00000E+00  9.000E+00
#rwgt            1           1   2.4022742223722117E-002           3      103191           0
</event>
<event>
      5   9999  3.19816E-02  1.01924E+02 -1.00000E+00  1.23457E-01
      21    -1     0     0   502   501  0.000000000E+00  0.000000000E+00  2.871111376E+02  2.871111376E+02  0.000000000E+00  0.00000E+00  9.000E+00
      21    -1     0     0   501   512  0.000000000E+00  0.000000000E+00 -3.620799280E+02  3.620799280E+02  0.000000000E+00  0.00000E+00  9.000E+00
      25     1     1     2     0     0 -1.847021393E+02  2.996847761E+01 -4.748582420E+01  2.299845504E+02  1.250000000E+02  0.00000E+00  9.000E+00
      25     1     1     2     0     0  2.596704473E+02 -9.902137201E+01  2.275044008E+01  3.055757776E+02  1.250000000E+02  0.00000E+00  9.000E+00
      21     1     1     2   502   512 -7.496830803E+01  6.905289440E+01 -5.023340622E+01  1.136307376E+02  2.336015456E-06  0.00000E+00  9.000E+00
#rwgt            1           1   2.8505351139127579E-002           3      103272           0
</event>
<event>
      5   9999  3.19816E-02  2.95564E+01 -1.00000E+00  1.53491E-01
      21    -1     0     0   502   501  0.000000000E+00  0.000000000E+00  1.503225245E+03  1.503225245E+03  0.000000000E+00  0.00000E+00  9.000E+00
      21    -1     0     0   511   502  0.000000000E+00  0.000000000E+00 -2.496026180E+02  2.496026180E+02  0.000000000E+00  0.00000E+00  9.000E+00
      25     1     1     2     0     0  2.184913035E+02 -3.052327923E+02  1.057491468E+02  4.095282521E+02  1.250000000E+02  0.00000E+00  9.000E+00
      25     1     1     2     0     0 -2.328623927E+02  2.794054551E+02  1.212607307E+03  1.272137486E+03  1.250000000E+02  0.00000E+00  9.000E+00
      21     1     1     2   511   501  1.437108916E+01  2.582733713E+01 -6.473382742E+01  7.116212447E+01  1.651812370E-06  0.00000E+00  9.000E+00
#rwgt            1           1   2.8020530091599286E-002           3      103340           0
</event>
<event>
      5   9999  3.19816E-02  4.39418E+01 -1.00000E+00  1.42353E-01
      21    -1     0     0   512   501  0.000000000E+00  0.000000000E+00  3.608202278E+02  3.608202278E+02  0.000000000E+00  0.00000E+00  9.000E+00
      21    -1     0     0   501   502  0.000000000E+00  0.000000000E+00 -1.005285529E+03  1.005285529E+03  0.000000000E+00  0.00000E+00  9.000E+00
      25     1     1     2     0     0  1.218145321E+02  4.630018096E+02 -6.284689572E+02  7.998797947E+02  1.250000000E+02  0.00000E+00  9.000E+00
      25     1     1     2     0     0 -8.339861305E+01 -4.843348463E+02 -5.152081893E+01  5.097204791E+02  1.250000000E+02  0.00000E+00  9.000E+00
      21     1     1     2   512   502 -3.841591903E+01  2.133303673E+01  3.552447491E+01  5.650548300E+01  8.259061849E-07  0.00000E+00  9.000E+00
#rwgt            1           1   2.9975540288416820E-002           3      103503           0
</event>
<event>
      5   9999  3.19816E-02  3.12472E+01 -1.00000E+00  1.51821E-01
      21    -1     0     0   502   501  0.000000000E+00  0.000000000E+00  2.717921446E+02  2.717921446E+02  0.000000000E+00  0.00000E+00  9.000E+00
      21    -1     0     0   501   511  0.000000000E+00  0.000000000E+00 -1.368912276E+02  1.368912276E+02  0.000000000E+00  0.00000E+00  9.000E+00
      25     1     1     2     0     0  9.137554757E+01 -1.003776207E+02  1.047414673E+02  2.121813668E+02  1.250000000E+02  0.00000E+00  9.000E+00
      25     1     1     2     0     0 -7.029753958E+01  7.731019600E+01  2.481740147E+01  1.648014378E+02  1.250000000E+02  0.00000E+00  9.000E+00
      21     1     1     2   502   511 -2.107800799E+01  2.306742473E+01  5.342048203E+00  3.170056756E+01  1.884864366E-07  0.00000E+00  9.000E+00
#rwgt            1           1   2.6409284141435636E-002           3      103587           0
</event>
<event>
      5   9999  3.19816E-02  1.42987E+02 -1.00000E+00  1.17224E-01
      21    -1     0     0   502   501  0.000000000E+00  0.000000000E+00  2.864545574E+03  2.864545574E+03  0.000000000E+00  0.00000E+00  9.000E+00
      21    -1     0     0   501   512  0.000000000E+00  0.000000000E+00 -3.795341810E+02  3.795341810E+02  0.000000000E+00  0.00000E+00  9.000E+00
      25     1     1     2     0     0 -1.295898919E+02  8.774655044E+01  2.663682399E+03  2.671202336E+03  1.250000000E+02  0.00000E+00  9.000E+00
      25     1     1     2     0     0  2.509892897E+02 -1.219816017E+01  6.707234679E+01  2.885621568E+02  1.250000000E+02  0.00000E+00  9.000E+00
      21     1     1     2   502   512 -1.213993978E+02 -7.554839027E+01 -2.457433526E+02  2.843152623E+02  5.394796609E-06  0.00000E+00  9.000E+00
#rwgt            1           1   7.9325920030225552E-002           3      103655           0
</event>
<event>
      5   9999  3.19816E-02  4.63119E+01 -1.00000E+00  1.41001E-01
      21    -1     0     0   502   511  0.000000000E+00  0.000000000E+00  2.931611100E+02  2.931611100E+02  0.000000000E+00  0.00000E+00  9.000E+00
      21    -1     0     0   501   502  0.000000000E+00  0.000000000E+00 -7.423959683E+02  7.423959683E+02  0.000000000E+00  0.00000E+00  9.000E+00
      25     1     1     2     0     0 -2.168781288E+02  9.348004105E+01 -1.760983314E+02  3.200160358E+02  1.250000000E+02  0.00000E+00  9.000E+00
      25     1     1     2     0     0  2.599934140E+02 -1.103876381E+02 -4.426781805E+02  5.397879004E+02  1.250000000E+02  0.00000E+00  9.000E+00
      21     1     1     2   501   511 -4.311528520E+01  1.690759704E+01  1.695416536E+02  1.757531421E+02  3.814697266E-06  0.00000E+00  9.000E+00
#rwgt            1           1   2.7908399511673700E-002           3      103728           0
</event>
<event>
      5   9999  3.19816E-02  4.16608E+01 -1.00000E+00  1.43753E-01
      21    -1     0     0   502   501  0.000000000E+00  0.000000000E+00  1.124595866E+02  1.124595866E+02  0.000000000E+00  0.00000E+00  9.000E+00
       1    -1     0     0   501     0  0.000000000E+00  0.000000000E+00 -8.488472209E+02  8.488472209E+02  0.000000000E+00  0.00000E+00  9.000E+00
      25     1     1     2     0     0 -8.275116011E+01 -1.289876024E+02 -5.254724521E+01  2.046259247E+02  1.250000000E+02  0.00000E+00  9.000E+00
      25     1     1     2     0     0  1.204335174E+02  1.467545133E+02 -3.318400230E+02  4.022237190E+02  1.250000000E+02  0.00000E+00  9.000E+00
       1     1     1     2   502     0 -3.768235725E+01 -1.776691084E+01 -3.520003661E+02  3.544571637E+02  7.629394531E-06  0.00000E+00  9.000E+00
#rwgt            1           1   3.1761986880449199E-002           3      103890           0
</event>
<event>
      5   9999  3.19816E-02  5.97204E+01 -1.00000E+00  1.34812E-01
      21    -1     0     0   511   501  0.000000000E+00  0.000000000E+00  3.365167041E+02  3.365167041E+02  0.000000000E+00  0.00000E+00  9.000E+00
      21    -1     0     0   501   502  0.000000000E+00  0.000000000E+00 -2.538164266E+02  2.538164266E+02  0.000000000E+00  0.00000E+00  9.000E+00
      25     1     1     2     0     0  1.033070641E+01 -2.003516277E+02 -2.173551843E+01  2.373708722E+02  1.250000000E+02  0.00000E+00  9.000E+00
      25     1     1     2     0     0 -5.599042906E+01  2.388446723E+02  7.025578373E+01  2.841523901E+02  1.250000000E+02  0.00000E+00  9.000E+00
      21     1     1     2   511   502  4.565972264E+01 -3.849304467E+01  3.418001214E+01  6.880986841E+01  1.261592536E-06  0.00000E+00  9.000E+00
#rwgt            1           1   2.4388338118586605E-002           3      103993           0
</event>
<event>
      5   9999  3.19816E-02  1.74389E+01 -1.00000E+00  1.71434E-01
      21    -1     0     0   502   501  0.000000000E+00  0.000000000E+00  1.331256293E+03  1.331256293E+03  0.000000000E+00  0.00000E+00  9.000E+00
      21    -1     0     0   501   512  0.000000000E+00  0.000000000E+00 -5.823614830E+02  5.823614830E+02  0.000000000E+00  0.00000E+00  9.000E+00
      25     1     1     2     0     0  2.433655402E+02  3.174005398E+02  1.214494131E+03  1.284753239E+03  1.250000000E+02  0.00000E+00  9.000E+00
      25     1     1     2     0     0 -2.417284101E+02 -3.000386573E+02 -4.422472078E+02  5.997194452E+02  1.250000000E+02  0.00000E+00  9.000E+00
      21     1     1     2   502   512 -1.637130135E+00 -1.736188247E+01 -2.335211393E+01  2.914509192E+01  5.840038640E-07  0.00000E+00  9.000E+00
#rwgt            1           1   3.3128338757571936E-002           3      104109           0
</event>
<event>
      5   9999  3.19816E-02  3.96738E+01 -1.00000E+00  1.45061E-01
      21    -1     0     0   502   501  0.000000000E+00  0.000000000E+00  1.209954971E+02  1.209954971E+02  0.000000000E+00  0.00000E+00  9.000E+00
      21    -1     0     0   501   511  0.000000000E+00  0.000000000E+00 -6.903834412E+02  6.903834412E+02  0.000000000E+00  0.00000E+00  9.000E+00
      25     1     1     2     0     0 -6.898135078E+01 -1.102066340E+02 -1.670639844E+02  2.458440641E+02  1.250000000E+02  0.00000E+00  9.000E+00
      25     1     1     2     0     0  8.953634457E+01  7.627284161E+01 -1.076850084E+01  1.719746027E+02  1.250000000E+02  0.00000E+00  9.000E+00
      21     1     1     2   502   511 -2.055499379E+01  3.393379243E+01 -3.915554588E+02  3.935602716E+02  0.000000000E+00  0.00000E+00  9.000E+00
#rwgt            1           1   3.2437293142712632E-002           3      104319           0
</event>
<event>
      5   9999  3.19816E-02  2.69263E+01 -1.00000E+00  1.56374E-01
      21    -1     0     0   502   512  0.000000000E+00  0.000000000E+00  1.813543385E+03  1.813543385E+03  0.000000000E+00  0.00000E+00  9.000E+00
      21    -1     0     0   501   502  0.000000000E+00  0.000000000E+00 -6.950671962E+01  6.950671962E+01  0.000000000E+00  0.00000E+00  9.000E+00
      25     1     1     2     0     0  2.105762851E+02 -1.021627941E+02  2.819926522E+02  3.872008061E+02  1.250000000E+02  0.00000E+00  9.000E+00
      25     1     1     2     0     0 -2.329008626E+02  1.172173768E+02  1.324545965E+03  1.355739554E+03  1.250000000E+02  0.00000E+00  9.000E+00
      21     1     1     2   501   512  2.232457753E+01 -1.505458272E+01  1.374980489E+02  1.401097451E+02  1.907348633E-06  0.00000E+00  9.000E+00
#rwgt            1           1   3.0474544677331482E-002           3      104417           0
</event>
<event>
      5   9999  3.19816E-02  1.65547E+02 -1.00000E+00  1.14721E-01
      21    -1     0     0   502   511  0.000000000E+00  0.000000000E+00  3.988313759E+02  3.988313759E+02  0.000000000E+00  0.00000E+00  9.000E+00
      21    -1     0     0   501   502  0.000000000E+00  0.000000000E+00 -2.089440953E+02  2.089440953E+02  0.000000000E+00  0.00000E+00  9.000E+00
      25     1     1     2     0     0 -1.313716113E+01  1.391936701E+02  4.219450046E+01  1.922312115E+02  1.250000000E+02  0.00000E+00  9.000E+00
      25     1     1     2     0     0 -5.304336428E+01  1.254975929E+01 -6.081078017E+01  1.493119082E+02  1.250000000E+02  0.00000E+00  9.000E+00
      21     1     1     2   501   511  6.618052541E+01 -1.517434294E+02  2.085035603E+02  2.662323515E+02  2.697398305E-06  0.00000E+00  9.000E+00
#rwgt            1           1   4.9618756841509931E-002           3      104661           0
</event>
<event>
      5   9999  3.19816E-02  1.02409E+02 -1.00000E+00  1.23365E-01
      21    -1     0     0   512   501  0.000000000E+00  0.000000000E+00  2.046664195E+03  2.046664195E+03  0.000000000E+00  0.00000E+00  9.000E+00
      21    -1     0     0   501   502  0.000000000E+00  0.000000000E+00 -2.437566561E+02  2.437566561E+02  0.000000000E+00  0.00000E+00  9.000E+00
      25     1     1     2     0     0 -1.084441509E+02 -3.765437818E+02  3.281886699E+02  5.261921289E+02  1.250000000E+02  0.00000E+00  9.000E+00
      25     1     1     2     0     0  1.741479030E+02  2.979901279E+02  9.294879359E+01  3.786688351E+02  1.250000000E+02  0.00000E+00  9.000E+00
      21     1     1     2   512   502 -6.570375213E+01  7.855365385E+01  1.381770075E+03  1.385559887E+03  1.525878906E-05  0.00000E+00  9.000E+00
#rwgt            1           1   2.8967908267084008E-002           3      104697           0
</event>
<event>
      5   9999  3.19816E-02  4.96040E+01 -1.00000E+00  1.39273E-01
      21    -1     0     0   502   501  0.000000000E+00  0.000000000E+00  2.818956370E+02  2.818956370E+02  0.000000000E+00  0.00000E+00  9.000E+00
      21    -1     0     0   501   511  0.000000000E+00  0.000000000E+00 -4.086232639E+02  4.086232639E+02  0.000000000E+00  0.00000E+00  9.000E+00
      25     1     1     2     0     0 -2.949557840E+02 -1.026795939E+02 -5.511616800E+01  3.408882595E+02  1.250000000E+02  0.00000E+00  9.000E+00
      25     1     1     2     0     0  2.526102408E+02  7.684532339E+01 -5.461157893E+01  2.971944852E+02  1.250000000E+02  0.00000E+00  9.000E+00
      21     1     1     2   502   511  4.234554317E+01  2.583427046E+01 -1.699987996E+01  5.243615618E+01  4.129530925E-07  0.00000E+00  9.000E+00
#rwgt            1           1   3.0231495234058582E-002           3      104759           0
</event>
<event>
      5   9999  3.19816E-02  3.27573E+01 -1.00000E+00  1.50434E-01
       2    -1     0     0   502     0  0.000000000E+00  0.000000000E+00  3.465434185E+03  3.465434185E+03  0.000000000E+00  0.00000E+00  9.000E+00
      21    -1     0     0   501   502  0.000000000E+00  0.000000000E+00 -1.142910822E+02  1.142910822E+02  0.000000000E+00  0.00000E+00  9.000E+00
      25     1     1     2     0     0  5.895736836E+01 -3.535748594E+02  4.921869399E+02  6.215819627E+02  1.250000000E+02  0.00000E+00  9.000E+00
      25     1     1     2     0     0 -2.638332358E+01  3.570352019E+02  6.771991206E+02  7.761403637E+02  1.250000000E+02  0.00000E+00  9.000E+00
       2     1     1     2   501     0 -3.257404478E+01 -3.460342509E+00  2.181757042E+03  2.182002941E+03  3.051757812E-05  0.00000E+00  9.000E+00
#rwgt            1           1   2.8281149426363204E-002           3      104865           0
</event>
<event>
      5   9999  3.19816E-02  3.46714E+01 -1.00000E+00  1.48799E-01
      21    -1     0     0   502   511  0.000000000E+00  0.000000000E+00  2.654479449E+03  2.654479449E+03  0.000000000E+00  0.00000E+00  9.000E+00
      21    -1     0     0   501   502  0.000000000E+00  0.000000000E+00 -2.572774329E+02  2.572774329E+02  0.000000000E+00  0.00000E+00  9.000E+00
      25     1     1     2     0     0 -7.404999751E+02  2.104385045E+02  1.372837801E+03  1.578902532E+03  1.250000000E+02  0.00000E+00  9.000E+00
      25     1     1     2     0     0  7.723246845E+02 -2.241968217E+02  9.509939144E+02  1.251704461E+03  1.250000000E+02  0.00000E+00  9.000E+00
      21     1     1     2   501   511 -3.182470939E+01  1.375831717E+01  7.337030142E+01  8.114988940E+01  9.536743164E-07  0.00000E+00  9.000E+00
#rwgt            1           1   4.4258672545553969E-002           3      104967           0
</event>
<event>
      5   9999  3.19816E-02  3.04075E+01 -1.00000E+00  1.52634E-01
      21    -1     0     0   502   501  0.000000000E+00  0.000000000E+00  8.827713877E+01  8.827713877E+01  0.000000000E+00  0.00000E+00  9.000E+00
      21    -1     0     0   501   512  0.000000000E+00  0.000000000E+00 -1.148274239E+03  1.148274239E+03  0.000000000E+00  0.00000E+00  9.000E+00
      25     1     1     2     0     0 -2.266139826E+02  1.553170771E+02 -3.686820517E+02  4.764753370E+02  1.250000000E+02  0.00000E+00  9.000E+00
      25     1     1     2     0     0  2.123237162E+02 -1.284767722E+02 -5.582757077E+02  6.236059712E+02  1.250000000E+02  0.00000E+00  9.000E+00
      21     1     1     2   502   512  1.429026640E+01 -2.684030485E+01 -1.330393412E+02  1.364700699E+02  1.907348633E-06  0.00000E+00  9.000E+00
#rwgt            1           1   2.8764099590862915E-002           3      105184           0
</event>
<event>
      5   9999  3.19816E-02  2.63267E+01 -1.00000E+00  1.57087E-01
       1    -1     0     0   502     0  0.000000000E+00  0.000000000E+00  5.173912989E+02  5.173912989E+02  0.000000000E+00  0.00000E+00  9.000E+00
      21    -1     0     0   501   502  0.000000000E+00  0.000000000E+00 -7.247848672E+01  7.247848672E+01  0.000000000E+00  0.00000E+00  9.000E+00
      25     1     1     2     0     0 -9.519792827E-02  3.109086339E+01  2.199205311E+02  2.548660253E+02  1.250000000E+02  0.00000E+00  9.000E+00
      25     1     1     2     0     0 -1.065794155E+01 -5.512139592E+01  3.264605892E+01  1.408642083E+02  1.250000000E+02  0.00000E+00  9.000E+00
       1     1     1     2   501     0  1.075313947E+01  2.403053253E+01  1.923462221E+02  1.941395520E+02  0.000000000E+00  0.00000E+00  9.000E+00
#rwgt            1           1   4.9176641747751951E-002           3      105276           0
</event>
<event>
      5   9999  3.19816E-02  1.38631E+02 -1.00000E+00  1.17767E-01
      21    -1     0     0   502   511  0.000000000E+00  0.000000000E+00  1.105831087E+03  1.105831087E+03  0.000000000E+00  0.00000E+00  9.000E+00
      21    -1     0     0   501   502  0.000000000E+00  0.000000000E+00 -7.802719205E+02  7.802719205E+02  0.000000000E+00  0.00000E+00  9.000E+00
      25     1     1     2     0     0  5.444724211E+02 -5.613530710E+02  1.445311817E+02  8.050352477E+02  1.250000000E+02  0.00000E+00  9.000E+00
      25     1     1     2     0     0 -5.688400474E+02  6.978255551E+02  8.600317141E+01  9.129956464E+02  1.250000000E+02  0.00000E+00  9.000E+00
      21     1     1     2   501   511  2.436762633E+01 -1.364724841E+02  9.502481337E+01  1.680721134E+02  1.348699152E-06  0.00000E+00  9.000E+00
#rwgt            1           1   3.5031985738878266E-002           3      105369           0
</event>
<event>
      5   9999  3.19816E-02  9.45897E+01 -1.00000E+00  1.24924E-01
      21    -1     0     0   502   501  0.000000000E+00  0.000000000E+00  1.072878415E+03  1.072878415E+03  0.000000000E+00  0.00000E+00  9.000E+00
      21    -1     0     0   501   512  0.000000000E+00  0.000000000E+00 -7.927584877E+02  7.927584877E+02  0.000000000E+00  0.00000E+00  9.000E+00
      25     1     1     2     0     0  9.934827681E+01 -1.299568096E+02  3.424575659E+02  3.995760715E+02  1.250000000E+02  0.00000E+00  9.000E+00
      25     1     1     2     0     0 -1.711621067E+02  1.915197417E+02  6.696257582E+02  7.280109438E+02  1.250000000E+02  0.00000E+00  9.000E+00
      21     1     1     2   502   512  7.181382992E+01 -6.156293212E+01 -7.319633973E+02  7.380498870E+02  1.078959322E-05  0.00000E+00  9.000E+00
#rwgt            1           1   2.6037946447456946E-002           3      105459           0
</event>
<event>
      5   9999  3.19816E-02  2.11473E+01 -1.00000E+00  1.64395E-01
      21    -1     0     0   502   511  0.000000000E+00  0.000000000E+00  3.999950155E+02  3.999950155E+02  0.000000000E+00  0.00000E+00  9.000E+00
      21    -1     0     0   501   502  0.000000000E+00  0.000000000E+00 -4.457443142E+02  4.457443142E+02  0.000000000E+00  0.00000E+00  9.000E+00
      25     1     1     2     0     0 -1.905966685E+02 -8.649237725E+00  1.284845562E+01  2.284556459E+02  1.250000000E+02  0.00000E+00  9.000E+00
      25     1     1     2     0     0  2.055862901E+02  2.356636112E+01 -2.941694425E+02  3.807647002E+02  1.250000000E+02  0.00000E+00  9.000E+00
      21     1     1     2   501   511 -1.498962159E+01 -1.491712339E+01  2.355716882E+02  2.365189836E+02  4.672030912E-06  0.00000E+00  9.000E+00
#rwgt            1           1   2.6330470409572749E-002           3      105546           0
</event>
<event>
      5   9999  3.19816E-02  3.14383E+01 -1.00000E+00  1.51641E-01
      21    -1     0     0   512   501  0.000000000E+00  0.000000000E+00  1.430433798E+03  1.430433798E+03  0.000000000E+00  0.00000E+00  9.000E+00
      21    -1     0     0   501   502  0.000000000E+00  0.000000000E+00 -1.429868778E+02  1.429868778E+02  0.000000000E+00  0.00000E+00  9.000E+00
      25     1     1     2     0     0 -1.583852580E+02 -3.688928807E+02  3.880210234E+02  5.721478497E+02  1.250000000E+02  0.00000E+00  9.000E+00
      25     1     1     2     0     0  1.790162606E+02  3.451709485E+02  8.291879564E+02  9.243200054E+02  1.250000000E+02  0.00000E+00  9.000E+00
      21     1     1     2   512   502 -2.063100268E+01  2.372193216E+01  7.023794070E+01  7.695282094E+01  0.000000000E+00  0.00000E+00  9.000E+00
#rwgt            1           1   3.1130251266626125E-002           3      105688           0
</event>
<event>
      5   9999  3.19816E-02  6.85063E+01 -1.00000E+00  1.31697E-01
      21    -1     0     0   511   501  0.000000000E+00  0.000000000E+00  8.538633784E+02  8.538633784E+02  0.000000000E+00  0.00000E+00  9.000E+00
      21    -1     0     0   501   502  0.000000000E+00  0.000000000E+00 -1.057725204E+03  1.057725204E+03  0.000000000E+00  0.00000E+00  9.000E+00
      25     1     1     2     0     0 -6.141790207E+02  6.640514070E+01  5.213920750E+02  8.179854571E+02  1.250000000E+02  0.00000E+00  9.000E+00
      25     1     1     2     0     0  6.751013748E+02 -3.507497262E+01 -7.530634649E+02  1.019667447E+03  1.250000000E+02  0.00000E+00  9.000E+00
      21     1     1     2   511   502 -6.092235409E+01 -3.133016809E+01  2.780956441E+01  7.393567835E+01  1.545128989E-06  0.00000E+00  9.000E+00
#rwgt            1           1   3.2270749560994315E-002           3      105842           0
</event>
<event>
      5   9999  3.19816E-02  1.99404E+02 -1.00000E+00  1.11695E-01
      21    -1     0     0   502   501  0.000000000E+00  0.000000000E+00  8.445765506E+02  8.445765506E+02  0.000000000E+00  0.00000E+00  9.000E+00
      21    -1     0     0   501   512  0.000000000E+00  0.000000000E+00 -1.901278102E+02  1.901278102E+02  0.000000000E+00  0.00000E+00  9.000E+00
      25     1     1     2     0     0  1.513039621E+02 -8.437394599E+01 -4.167886735E+01  2.176556448E+02  1.250000000E+02  0.00000E+00  9.000E+00
      25     1     1     2     0     0  3.768506796E+01  2.077277135E+01  5.605297446E+02  5.759082106E+02  1.250000000E+02  0.00000E+00  9.000E+00
      21     1     1     2   502   512 -1.889890301E+02  6.360117464E+01  1.355978631E+02  2.411405055E+02  5.394796609E-06  0.00000E+00  9.000E+00
#rwgt            2          11   3.6694325558599113E-003           3      106110           0
</event>
<event>
      5   9999  3.19816E-02  7.31674E+01 -1.00000E+00  1.30255E-01
      21    -1     0     0   502   501  0.000000000E+00  0.000000000E+00  7.014791758E+02  7.014791758E+02  0.000000000E+00  0.00000E+00  9.000E+00
      21    -1     0     0   501   511  0.000000000E+00  0.000000000E+00 -3.236342021E+02  3.236342021E+02  0.000000000E+00  0.00000E+00  9.000E+00
      25     1     1     2     0     0 -3.628981160E+02 -1.408682102E+02  2.556074130E+01  4.096550338E+02  1.250000000E+02  0.00000E+00  9.000E+00
      25     1     1     2     0     0  3.806436335E+02  6.988538406E+01  3.583426288E+02  5.420405725E+02  1.250000000E+02  0.00000E+00  9.000E+00
      21     1     1     2   502   511 -1.774551757E+01  7.098282618E+01 -6.058396351E+00  7.341777150E+01  7.817075878E-07  0.00000E+00  9.000E+00
#rwgt            1           1   2.9409008853096018E-002           3      106160           0
</event>
<event>
      5   9999  3.19816E-02  1.42293E+02 -1.00000E+00  1.17309E-01
      -2    -1     0     0     0   501  0.000000000E+00  0.000000000E+00  2.467323357E+02  2.467323357E+02  0.000000000E+00  0.00000E+00  9.000E+00
      21    -1     0     0   501   502  0.000000000E+00  0.000000000E+00 -5.364291343E+02  5.364291343E+02  0.000000000E+00  0.00000E+00  9.000E+00
      25     1     1     2     0     0  3.805433848E+01  2.353505968E+02 -1.542276187E+02  3.102405429E+02  1.250000000E+02  0.00000E+00  9.000E+00
      25     1     1     2     0     0  1.009309310E+02 -2.658513597E+02 -9.913660157E+01  3.260629756E+02  1.250000000E+02  0.00000E+00  9.000E+00
      -2     1     1     2     0   502 -1.389852695E+02  3.050076298E+01 -3.633257824E+01  1.468579515E+02  2.611744678E-06  0.00000E+00  9.000E+00
#rwgt            1           1   2.9853013707401406E-002           3      106256           0
</event>
<event>
      5   9999  3.19816E-02  9.04217E+01 -1.00000E+00  1.25827E-01
      21    -1     0     0   502   501  0.000000000E+00  0.000000000E+00  4.911431949E+02  4.911431949E+02  0.000000000E+00  0.00000E+00  9.000E+00
      21    -1     0     0   501   511  0.000000000E+00  0.000000000E+00 -1.302680148E+03  1.302680148E+03  0.000000000E+00  0.00000E+00  9.000E+00
      25     1     1     2     0     0 -2.931214499E+01 -4.815790173E+02 -4.945108891E+01  5.008472441E+02  1.250000000E+02  0.00000E+00  9.000E+00
      25     1     1     2     0     0 -1.951475688E+01  5.576843024E+02 -4.874616345E+01  5.739283887E+02  1.250000000E+02  0.00000E+00  9.000E+00
      21     1     1     2   502   511  4.882690187E+01 -7.610528511E+01 -7.133397011E+02  7.190477105E+02  1.705984480E-05  0.00000E+00  9.000E+00
#rwgt            1           1   2.4963180733883938E-002           3      106313           0
</event>
<event>
      5   9999  3.19816E-02  8.82644E+01 -1.00000E+00  1.26316E-01
       2    -1     0     0   502     0  0.000000000E+00  0.000000000E+00  3.318365714E+02  3.318365714E+02  0.000000000E+00  0.00000E+00  9.000E+00
      21    -1     0     0   501   502  0.000000000E+00  0.000000000E+00 -3.663851496E+02  3.663851496E+02  0.000000000E+00  0.00000E+00  9.000E+00
      25     1     1     2     0     0 -2.730270888E+02 -2.096939010E+01  5.337389074E+01  3.057078324E+02  1.250000000E+02  0.00000E+00  9.000E+00
      25     1     1     2     0     0  2.567513981E+02 -6.578145886E+01 -5.411548376E+01  2.979965878E+02  1.250000000E+02  0.00000E+00  9.000E+00
       2     1     1     2   501     0  1.627569075E+01  8.675084896E+01 -3.380698525E+01  9.451730083E+01  0.000000000E+00  0.00000E+00  9.000E+00
#rwgt            1           1   3.0656170803124307E-002           3      106393           0
</event>
<event>
      5   9999  3.19816E-02  4.54010E+01 -1.00000E+00  1.41509E-01
      21    -1     0     0   502   501  0.000000000E+00  0.000000000E+00  6.989541805E+02  6.989541805E+02  0.000000000E+00  0.00000E+00  9.000E+00
      21    -1     0     0   501   511  0.000000000E+00  0.000000000E+00 -3.045870027E+02  3.045870027E+02  0.000000000E+00  0.00000E+00  9.000E+00
      25     1     1     2     0     0 -1.617093116E+02 -1.070990479E+02  4.529636646E+02  5.083514423E+02  1.250000000E+02  0.00000E+00  9.000E+00
      25     1     1     2     0     0  1.781975481E+02  1.494001786E+02  1.348738749E+02  2.964637274E+02  1.250000000E+02  0.00000E+00  9.000E+00
      21     1     1     2   502   511 -1.648823648E+01 -4.230113078E+01 -1.934703616E+02  1.987260135E+02  0.000000000E+00  0.00000E+00  9.000E+00
#rwgt            1           1   3.4261764084656608E-002           3      106462           0
</event>
<event>
      5   9999  3.19816E-02  4.54172E+02 -1.00000E+00  1.00053E-01
      21    -1     0     0   502   501  0.000000000E+00  0.000000000E+00  8.139790069E+02  8.139790069E+02  0.000000000E+00  0.00000E+00  9.000E+00
       1    -1     0     0   501     0  0.000000000E+00  0.000000000E+00 -4.842501560E+02  4.842501560E+02  0.000000000E+00  0.00000E+00  9.000E+00
      25     1     1     2     0     0  1.499151245E+02 -2.740523239E+02  4.619540052E+02  5.714942902E+02  1.250000000E+02  0.00000E+00  9.000E+00
      25     1     1     2     0     0  2.025450076E+02 -1.238032242E+01  3.871907813E+01  2.414579042E+02  1.250000000E+02  0.00000E+00  9.000E+00
       1     1     1     2   502     0 -3.524601321E+02  2.864326463E+02 -1.709442325E+02  4.852769685E+02  2.697398305E-06  0.00000E+00  9.000E+00
#rwgt            2          12   5.0219530422176127E-004           3      106610           0
</event>
<event>
      5   9999  3.19816E-02  5.20229E+01 -1.00000E+00  1.38100E-01
      21    -1     0     0   511   501  0.000000000E+00  0.000000000E+00  5.700093843E+02  5.700093843E+02  0.000000000E+00  0.00000E+00  9.000E+00
      21    -1     0     0   501   502  0.000000000E+00  0.000000000E+00 -1.599411940E+03  1.599411940E+03  0.000000000E+00  0.00000E+00  9.000E+00
      25     1     1     2     0     0 -8.458110346E+02 -3.930444345E+01 -8.864043066E+02  1.232184540E+03  1.250000000E+02  0.00000E+00  9.000E+00
      25     1     1     2     0     0  8.649315074E+02 -9.077219363E+00 -1.402032986E+02  8.851389006E+02  1.250000000E+02  0.00000E+00  9.000E+00
      21     1     1     2   511   502 -1.912047278E+01  4.838166282E+01 -2.794950583E+00  5.209788408E+01  8.408269870E-07  0.00000E+00  9.000E+00
#rwgt            1           1   2.4800701441607034E-002           3      106629           0
</event>
<event>
      5   9999  3.19816E-02  3.05622E+02 -1.00000E+00  1.05331E-01
      21    -1     0     0   502   501  0.000000000E+00  0.000000000E+00  6.270836488E+02  6.270836488E+02  0.000000000E+00  0.00000E+00  9.000E+00
      21    -1     0     0   501   512  0.000000000E+00  0.000000000E+00 -3.767502251E+02  3.767502251E+02  0.000000000E+00  0.00000E+00  9.000E+00
      25     1     1     2     0     0 -1.856805612E+01  1.470001104E+02  5.831384763E+01  2.024334705E+02  1.250000000E+02  0.00000E+00  9.000E+00
      25     1     1     2     0     0  3.195523480E+02 -2.000374939E+02  2.769404198E+02  4.842000602E+02  1.250000000E+02  0.00000E+00  9.000E+00
      21     1     1     2   502   512 -3.009842919E+02  5.303738357E+01 -8.492084369E+01  3.172003432E+02  5.800974398E-06  0.00000E+00  9.000E+00
#rwgt            1           1   2.6871576076292682E-002           3      106772           0
</event>
<event>
      5   9999  3.19816E-02  7.51336E+01 -1.00000E+00  1.29683E-01
      21    -1     0     0   502   511  0.000000000E+00  0.000000000E+00  1.092251052E+03  1.092251052E+03  0.000000000E+00  0.00000E+00  9.000E+00
      21    -1     0     0   501   502  0.000000000E+00  0.000000000E+00 -1.712798628E+02  1.712798628E+02  0.000000000E+00  0.00000E+00  9.000E+00
      25     1     1     2     0     0 -2.712294243E+02 -1.504191922E+02  1.579504795E+02  3.698171006E+02  1.250000000E+02  0.00000E+00  9.000E+00
      25     1     1     2     0     0  3.292711618E+02  1.027094708E+02  4.998963976E+02  6.200726907E+02  1.250000000E+02  0.00000E+00  9.000E+00
      21     1     1     2   501   511 -5.804173753E+01  4.770972133E+01  2.631243127E+02  2.736411240E+02  3.814697266E-06  0.00000E+00  9.000E+00
#rwgt            1           1   2.5894297889939012E-002           3      106804           0
</event>
<event>
      5   9999  3.19816E-02  8.65533E+01 -1.00000E+00  1.26716E-01
       1    -1     0     0   502     0  0.000000000E+00  0.000000000E+00  1.305154790E+03  1.305154790E+03  0.000000000E+00  0.00000E+00  9.000E+00
      21    -1     0     0   501   502  0.000000000E+00  0.000000000E+00 -3.182889280E+02  3.182889280E+02  0.000000000E+00  0.00000E+00  9.000E+00
      25     1     1     2     0     0 -5.549127022E+01  2.686884080E+02 -2.828405464E+01  3.028163295E+02  1.250000000E+02  0.00000E+00  9.000E+00
      25     1     1     2     0     0  8.956635327E+01 -1.891248177E+02  1.141632797E+03  1.167364884E+03  1.250000000E+02  0.00000E+00  9.000E+00
       1     1     1     2   501     0 -3.407508305E+01 -7.956359036E+01 -1.264828806E+02  1.532625045E+02  4.473129043E-06  0.00000E+00  9.000E+00
#rwgt            1           1   2.9745730260804491E-002           3      106878           0
</event>
<event>
      5   9999  3.19816E-02  2.73164E+02 -1.00000E+00  1.06931E-01
      21    -1     0     0   502   511  0.000000000E+00  0.000000000E+00  2.744969748E+02  2.744969748E+02  0.000000000E+00  0.00000E+00  9.000E+00
      21    -1     0     0   501   502  0.000000000E+00  0.000000000E+00 -1.314208897E+03  1.314208897E+03  0.000000000E+00  0.00000E+00  9.000E+00
      25     1     1     2     0     0  1.919187408E+02  3.398732933E+02 -9.136935880E+02  1.001402832E+03  1.250000000E+02  0.00000E+00  9.000E+00
      25     1     1     2     0     0 -2.528887600E+02 -7.360091697E+01 -1.343354964E+01  2.918480430E+02  1.250000000E+02  0.00000E+00  9.000E+00
      21     1     1     2   501   511  6.097001922E+01 -2.662723764E+02 -1.125847846E+02  2.954549972E+02  1.348699152E-06  0.00000E+00  9.000E+00
#rwgt            2          11   3.9758435377831918E-003           3      107007           0
</event>
<event>
      5   9999  3.19816E-02  2.41743E+02 -1.00000E+00  1.08731E-01
      21    -1     0     0   502   501  0.000000000E+00  0.000000000E+00  4.374088672E+02  4.374088672E+02  0.000000000E+00  0.00000E+00  9.000E+00
      21    -1     0     0   512   502  0.000000000E+00  0.000000000E+00 -1.714019641E+03  1.714019641E+03  0.000000000E+00  0.00000E+00  9.000E+00
      25     1     1     2     0     0  9.671543439E+01  4.869517599E+02  9.948353389E+01  5.215341458E+02  1.250000000E+02  0.00000E+00  9.000E+00
      25     1     1     2     0     0  1.341858295E+02 -5.585348576E+02 -1.181087321E+03  1.319302575E+03  1.250000000E+02  0.00000E+00  9.000E+00
      21     1     1     2   512   501 -2.309012639E+02  7.158309768E+01 -1.950069863E+02  3.105917871E+02  0.000000000E+00  0.00000E+00  9.000E+00
#rwgt            2          11   5.9897190783424559E-003           3      107042           0
</event>
<event>
      5   9999  3.19816E-02  3.77575E+01 -1.00000E+00  1.46411E-01
      21    -1     0     0   502   511  0.000000000E+00  0.000000000E+00  2.217964934E+02  2.217964934E+02  0.000000000E+00  0.00000E+00  9.000E+00
      21    -1     0     0   501   502  0.000000000E+00  0.000000000E+00 -5.420759639E+02  5.420759639E+02  0.000000000E+00  0.00000E+00  9.000E+00
      25     1     1     2     0     0 -1.153305293E+02 -2.543747191E+02 -5.806431206E+01  3.114548010E+02  1.250000000E+02  0.00000E+00  9.000E+00
      25     1     1     2     0     0  1.527696592E+02  2.592679317E+02 -2.554680393E+02  4.140620102E+02  1.250000000E+02  0.00000E+00  9.000E+00
      21     1     1     2   501   511 -3.743912991E+01 -4.893212577E+00 -6.747119197E+00  3.835564620E+01  3.371747881E-07  0.00000E+00  9.000E+00
#rwgt            1           1   3.0600786341808923E-002           3      107062           0
</event>
<event>
      5   9999  3.19816E-02  6.58493E+01 -1.00000E+00  1.32579E-01
      21    -1     0     0   512   501  0.000000000E+00  0.000000000E+00  3.267760225E+02  3.267760225E+02  0.000000000E+00  0.00000E+00  9.000E+00
      21    -1     0     0   501   502  0.000000000E+00  0.000000000E+00 -9.850222635E+02  9.850222635E+02  0.000000000E+00  0.00000E+00  9.000E+00
      25     1     1     2     0     0  4.273075747E+01 -1.669482166E+02 -5.138649655E+02  5.562192260E+02  1.250000000E+02  0.00000E+00  9.000E+00
      25     1     1     2     0     0 -2.845102361E+01  1.026658481E+02 -4.311364353E+02  4.613603396E+02  1.250000000E+02  0.00000E+00  9.000E+00
      21     1     1     2   512   502 -1.427973386E+01  6.428236853E+01  2.867551599E+02  2.942187204E+02  3.814697266E-06  0.00000E+00  9.000E+00
#rwgt            1           1   3.2565096121162471E-002           3      107180           0
</event>
<event>
      5   9999  3.19816E-02  1.53103E+01 -1.00000E+00  1.76550E-01
      21    -1     0     0   502   501  0.000000000E+00  0.000000000E+00  1.013112445E+03  1.013112445E+03  0.000000000E+00  0.00000E+00  9.000E+00
      21    -1     0     0   511   502  0.000000000E+00  0.000000000E+00 -2.056203006E+02  2.056203006E+02  0.000000000E+00  0.00000E+00  9.000E+00
      25     1     1     2     0     0 -4.124339309E+01 -2.117919656E+02  7.261231171E+02  7.677477680E+02  1.250000000E+02  0.00000E+00  9.000E+00
      25     1     1     2     0     0  4.912318106E+01  1.986650713E+02  2.116265703E+02  3.198307408E+02  1.250000000E+02  0.00000E+00  9.000E+00
      21     1     1     2   511   501 -7.879787976E+00  1.312689421E+01 -1.302575429E+02  1.311542370E+02  2.697398305E-06  0.00000E+00  9.000E+00
#rwgt            1           1   3.3123461313107047E-002           3      107256           0
</event>
<event>
      5   9999  3.19816E-02  6.49373E+01 -1.00000E+00  1.32893E-01
      21    -1     0     0   502   501  0.000000000E+00  0.000000000E+00  3.197776374E+02  3.197776374E+02  0.000000000E+00  0.00000E+00  9.000E+00
      21    -1     0     0   501   512  0.000000000E+00  0.000000000E+00 -6.689016124E+02  6.689016124E+02  0.000000000E+00  0.00000E+00  9.000E+00
      25     1     1     2     0     0  2.186045050E+01  6.856014243E+00  2.839375307E+02  3.110794201E+02  1.250000000E+02  0.00000E+00  9.000E+00
      25     1     1     2     0     0 -6.597456035E+01 -5.450894256E+01 -2.774970175E+02  3.161541746E+02  1.250000000E+02  0.00000E+00  9.000E+00
      21     1     1     2   502   512  4.411410985E+01  4.765292832E+01 -3.555644883E+02  3.614456551E+02  3.814697266E-06  0.00000E+00  9.000E+00
#rwgt            1           1   2.7349445321957769E-002           3      107408           0
</event>
<event>
      5   9999  3.19816E-02  9.48042E+01 -1.00000E+00  1.24879E-01
      21    -1     0     0   502   501  0.000000000E+00  0.000000000E+00  2.415081233E+03  2.415081233E+03  0.000000000E+00  0.00000E+00  9.000E+00
      21    -1     0     0   511   502  0.000000000E+00  0.000000000E+00 -5.046720320E+01  5.046720320E+01  0.000000000E+00  0.00000E+00  9.000E+00
      25     1     1     2     0     0  8.267544806E+01  1.688888412E+01  5.443895259E+02  5.648941671E+02  1.250000000E+02  0.00000E+00  9.000E+00
      25     1     1     2     0     0  7.885231052E+00 -4.493526026E+01  1.798470278E+03  1.803386175E+03  1.250000000E+02  0.00000E+00  9.000E+00
      21     1     1     2   511   501 -9.056067911E+01  2.804637614E+01  2.175422581E+01  9.726809423E+01  1.327458468E-06  0.00000E+00  9.000E+00
#rwgt            1           1   5.9117806475872163E-002           3      107516           0
</event>
<event>
      5   9999  3.19816E-02  3.41367E+02 -1.00000E+00  1.03801E-01
      -3    -1     0     0     0   501  0.000000000E+00  0.000000000E+00  1.154459488E+03  1.154459488E+03  0.000000000E+00  0.00000E+00  9.000E+00
      21    -1     0     0   501   502  0.000000000E+00  0.000000000E+00 -3.485749534E+02  3.485749534E+02  0.000000000E+00  0.00000E+00  9.000E+00
      25     1     1     2     0     0  2.458379824E+02  3.065544801E+02  1.700937539E+02  4.460592426E+02  1.250000000E+02  0.00000E+00  9.000E+00
      25     1     1     2     0     0  8.283582689E+01 -3.987760099E+02  1.275298309E+02  4.447166941E+02  1.250000000E+02  0.00000E+00  9.000E+00
      -3     1     1     2     0   502 -3.286738093E+02  9.222152981E+01  5.082609503E+02  6.122585051E+02  1.078959322E-05  0.00000E+00  9.000E+00
#rwgt            2           3   4.1897127345936946E-005           3      107591           0
</event>
<event>
      5   9999  3.19816E-02  2.82431E+01 -1.00000E+00  1.54883E-01
      21    -1     0     0   511   501  0.000000000E+00  0.000000000E+00  4.628512809E+02  4.628512809E+02  0.000000000E+00  0.00000E+00  9.000E+00
      21    -1     0     0   501   502  0.000000000E+00  0.000000000E+00 -7.409480295E+01  7.409480295E+01  0.000000000E+00  0.00000E+00  9.000E+00
      25     1     1     2     0     0 -9.481428298E+01 -3.930287679E+01  2.596132891E+02  3.058733795E+02  1.250000000E+02  0.00000E+00  9.000E+00
      25     1     1     2     0     0  7.584915880E+01  6.023125984E+01  8.741653939E+01  1.806863329E+02  1.250000000E+02  0.00000E+00  9.000E+00
      21     1     1     2   511   502  1.896512419E+01 -2.092838305E+01  4.172664945E+01  5.038637144E+01  6.743495762E-07  0.00000E+00  9.000E+00
#rwgt            1           1   3.4018646758457734E-002           3      107640           0
</event>
<event>
      5   9999  3.19816E-02  4.61293E+01 -1.00000E+00  1.41102E-01
      21    -1     0     0   502   501  0.000000000E+00  0.000000000E+00  6.883339068E+01  6.883339068E+01  0.000000000E+00  0.00000E+00  9.000E+00
      21    -1     0     0   501   512  0.000000000E+00  0.000000000E+00 -2.004537526E+03  2.004537526E+03  0.000000000E+00  0.00000E+00  9.000E+00
      25     1     1     2     0     0 -1.775406660E+01  3.183263952E+02 -9.250129854E+02  9.863675400E+02  1.250000000E+02  0.00000E+00  9.000E+00
      25     1     1     2     0     0  5.679020804E+01 -2.937480586E+02 -6.827571085E+02  7.558408026E+02  1.250000000E+02  0.00000E+00  9.000E+00
      21     1     1     2   502   512 -3.903614144E+01 -2.457833658E+01 -3.279340409E+02  3.311625736E+02  6.607249480E-06  0.00000E+00  9.000E+00
#rwgt            1           1   3.2474954036188677E-002           3      107730           0
</event>
<event>
      5   9999  3.19816E-02  1.25115E+03 -1.00000E+00  8.87147E-02
      21    -1     0     0   502   511  0.000000000E+00  0.000000000E+00  8.275961589E+02  8.275961589E+02  0.000000000E+00  0.00000E+00  9.000E+00
      21    -1     0     0   501   502  0.000000000E+00  0.000000000E+00 -2.367030910E+03  2.367030910E+03  0.000000000E+00  0.00000E+00  9.000E+00
      25     1     1     2     0     0  2.404051711E+02  2.224544309E+02 -7.025343403E+02  7.851497433E+02  1.250000000E+02  0.00000E+00  9.000E+00
      25     1     1     2     0     0  4.745763357E+01  9.951265899E+02 -4.461799100E+02  1.098740492E+03  1.250000000E+02  0.00000E+00  9.000E+00
      21     1     1     2   501   511 -2.878628047E+02 -1.217581021E+03 -3.907205004E+02  1.310736833E+03  2.224331625E-05  0.00000E+00  9.000E+00
#rwgt            2          11   6.4410273878495088E-004           3      107854           0
</event>
<event>
      5   9999  3.19816E-02  1.33904E+02 -1.00000E+00  1.18382E-01
      21    -1     0     0   502   501  0.000000000E+00  0.000000000E+00  3.643073488E+02  3.643073488E+02  0.000000000E+00  0.00000E+00  9.000E+00
       3    -1     0     0   501     0  0.000000000E+00  0.000000000E+00 -3.088499956E+03  3.088499956E+03  0.000000000E+00  0.00000E+00  9.000E+00
      25     1     1     2     0     0 -1.669998985E+02  2.113897603E+02  3.052047435E+01  2.985483147E+02  1.250000000E+02  0.00000E+00  9.000E+00
      25     1     1     2     0     0  5.993998145E+01 -2.918156431E+02  6.652243538E+01  3.298475487E+02  1.250000000E+02  0.00000E+00  9.000E+00
       3     1     1     2   502     0  1.070599170E+02  8.042588287E+01 -2.821235517E+03  2.824411442E+03  4.315837288E-05  0.00000E+00  9.000E+00
#rwgt            2          14   1.6464743428346628E-004           3      108009           0
</event>
<event>
      5   9999  3.19816E-02  8.57012E+01 -1.00000E+00  1.26919E-01
      21    -1     0     0   511   501  0.000000000E+00  0.000000000E+00  1.673870894E+03  1.673870894E+03  0.000000000E+00  0.00000E+00  9.000E+00
      21    -1     0     0   501   502  0.000000000E+00  0.000000000E+00 -9.885898744E+02  9.885898744E+02  0.000000000E+00  0.00000E+00  9.000E+00
      25     1     1     2     0     0 -3.484037951E+02 -1.094779898E+03 -7.636196429E+01  1.158181497E+03  1.250000000E+02  0.00000E+00  9.000E+00
      25     1     1     2     0     0  3.015750444E+02  1.166555642E+03  7.058227534E+02  1.402002258E+03  1.250000000E+02  0.00000E+00  9.000E+00
      21     1     1     2   511   502  4.682875068E+01 -7.177574394E+01  5.582023041E+01  1.022770132E+02  1.907348633E-06  0.00000E+00  9.000E+00
#rwgt            1           1   7.2262175462230363E-002           3      108043           0
</event>
<event>
      5   9999  3.19816E-02  2.76218E+01 -1.00000E+00  1.55574E-01
      21    -1     0     0   502   501  0.000000000E+00  0.000000000E+00  2.219282622E+02  2.219282622E+02  0.000000000E+00  0.00000E+00  9.000E+00
       1    -1     0     0   501     0  0.000000000E+00  0.000000000E+00 -4.927616978E+03  4.927616978E+03  0.000000000E+00  0.00000E+00  9.000E+00
      25     1     1     2     0     0  4.275770340E+02  1.269635606E+01 -4.861189950E+02  6.594846434E+02  1.250000000E+02  0.00000E+00  9.000E+00
      25     1     1     2     0     0 -4.380195587E+02 -3.826813830E+01 -2.511832538E+02  5.215780010E+02  1.250000000E+02  0.00000E+00  9.000E+00
       1     1     1     2   502     0  1.044252465E+01  2.557178223E+01 -3.968386467E+03  3.968482595E+03  4.315837288E-05  0.00000E+00  9.000E+00
#rwgt            1           1   2.6079430818784558E-002           3      108185           0
</event>
<event>
      5   9999  3.19816E-02  3.79732E+02 -1.00000E+00  1.02370E-01
       2    -1     0     0   502     0  0.000000000E+00  0.000000000E+00  2.049309002E+03  2.049309002E+03  0.000000000E+00  0.00000E+00  9.000E+00
      21    -1     0     0   501   502  0.000000000E+00  0.000000000E+00 -6.405183563E+02  6.405183563E+02  0.000000000E+00  0.00000E+00  9.000E+00
      25     1     1     2     0     0 -4.898112383E+02  2.482834528E+02  5.387656154E+02  7.793927831E+02  1.250000000E+02  0.00000E+00  9.000E+00
      25     1     1     2     0     0  5.151774034E+02  1.305999243E+02 -3.393509578E+02  6.428438145E+02  1.250000000E+02  0.00000E+00  9.000E+00
       2     1     1     2   501     0 -2.536616510E+01 -3.788833771E+02  1.209375989E+03  1.267590761E+03  0.000000000E+00  0.00000E+00  9.000E+00
#rwgt            1           1   3.3172391448526843E-002           3      108328           0
</event>
<event>
      5   9999  3.19816E-02  5.57769E+01 -1.00000E+00  1.36419E-01
      21    -1     0     0   502   501  0.000000000E+00  0.000000000E+00  1.572453707E+03  1.572453707E+03  0.000000000E+00  0.00000E+00  9.000E+00
      21    -1     0     0   511   502  0.000000000E+00  0.000000000E+00 -7.848622133E+01  7.848622133E+01  0.000000000E+00  0.00000E+00  9.000E+00
      25     1     1     2     0     0 -2.660606058E+02 -7.942921144E+01  7.853204283E+02  8.422887989E+02  1.250000000E+02  0.00000E+00  9.000E+00
      25     1     1     2     0     0  2.310029663E+02  1.228115549E+02  6.922407476E+02  7.505113597E+02  1.250000000E+02  0.00000E+00  9.000E+00
      21     1     1     2   511   501  3.505763942E+01 -4.338234344E+01  1.640630954E+01  5.813976950E+01  1.831327855E-06  0.00000E+00  9.000E+00
#rwgt            1           1   3.0110037469442647E-002           3      108388           0
</event>
<event>
      5   9999  3.19816E-02  6.16127E+01 -1.00000E+00  1.34091E-01
      21    -1     0     0   502   512  0.000000000E+00  0.000000000E+00  1.197136993E+03  1.197136993E+03  0.000000000E+00  0.00000E+00  9.000E+00
      21    -1     0     0   501   502  0.000000000E+00  0.000000000E+00 -7.080442191E+01  7.080442191E+01  0.000000000E+00  0.00000E+00  9.000E+00
      25     1     1     2     0     0 -3.855726572E+01 -1.943908004E+02  3.285450730E+02  4.035360095E+02  1.250000000E+02  0.00000E+00  9.000E+00
      25     1     1     2     0     0  1.037954869E+01  1.395989595E+02  2.471338898E+02  3.103155877E+02  1.250000000E+02  0.00000E+00  9.000E+00
      21     1     1     2   501   512  2.817771703E+01  5.479184090E+01  5.506536086E+02  5.540898178E+02  7.629394531E-06  0.00000E+00  9.000E+00
#rwgt            1           1   2.5064126803519899E-002           3      108468           0
</event>
<event>
      5   9999  3.19816E-02  2.36540E+02 -1.00000E+00  1.09058E-01
      21    -1     0     0   502   501  0.000000000E+00  0.000000000E+00  2.549702755E+02  2.549702755E+02  0.000000000E+00  0.00000E+00  9.000E+00
       2    -1     0     0   501     0  0.000000000E+00  0.000000000E+00 -1.573477366E+03  1.573477366E+03  0.000000000E+00  0.00000E+00  9.000E+00
      25     1     1     2     0     0 -7.840592246E+01  2.125635989E+01 -5.254606452E+01  1.580677399E+02  1.250000000E+02  0.00000E+00  9.000E+00
      25     1     1     2     0     0  1.671792980E+02  1.979935651E+02  8.410545402E+01  2.997483893E+02  1.250000000E+02  0.00000E+00  9.000E+00
       2     1     1     2   502     0 -8.877337555E+01 -2.192499250E+02 -1.350066480E+03  1.370631512E+03  1.525878906E-05  0.00000E+00  9.000E+00
#rwgt            2          13   4.1006236919019319E-003           3      108547           0
</event>
<event>
      5   9999  3.19816E-02  2.69848E+01 -1.00000E+00  1.56305E-01
      21    -1     0     0   502   501  0.000000000E+00  0.000000000E+00  9.870840752E+02  9.870840752E+02  0.000000000E+00  0.00000E+00  9.000E+00
      21    -1     0     0   501   511  0.000000000E+00  0.000000000E+00 -1.021132412E+02  1.021132412E+02  0.000000000E+00  0.00000E+00  9.000E+00
      25     1     1     2     0     0  5.643882376E+01 -1.492982288E+02  8.122877222E+02  8.372046617E+02  1.250000000E+02  0.00000E+00  9.000E+00
      25     1     1     2     0     0 -8.340346749E+01  1.482561511E+02  7.692971885E+01  2.246757806E+02  1.250000000E+02  0.00000E+00  9.000E+00
      21     1     1     2   502   511  2.696464372E+01  1.042077658E+00 -4.246607057E+00  2.731687406E+01  9.233911863E-07  0.00000E+00  9.000E+00
#rwgt            1           1   3.1116666691475676E-002           3      108611           0
</event>
<event>
      5   9999  3.19816E-02  6.14080E+01 -1.00000E+00  1.34167E-01
      21    -1     0     0   502   512  0.000000000E+00  0.000000000E+00  1.211584301E+03  1.211584301E+03  0.000000000E+00  0.00000E+00  9.000E+00
      21    -1     0     0   501   502  0.000000000E+00  0.000000000E+00 -1.696688393E+02  1.696688393E+02  0.000000000E+00  0.00000E+00  9.000E+00
      25     1     1     2     0     0 -8.475818278E+01  9.248451740E+01 -1.119606818E+02  2.095173734E+02  1.250000000E+02  0.00000E+00  9.000E+00
      25     1     1     2     0     0  5.573582156E+01 -3.836750783E+01  7.783973907E+02  7.912686303E+02  1.250000000E+02  0.00000E+00  9.000E+00
      21     1     1     2   501   512  2.902236122E+01 -5.411700958E+01  3.754787532E+02  3.804671370E+02  0.000000000E+00  0.00000E+00  9.000E+00
#rwgt            1           1   2.8662379354019014E-002           3      108747           0
</event>
<event>
      5   9999  3.19816E-02  8.44039E+01 -1.00000E+00  1.27233E-01
      21    -1     0     0   502   501  0.000000000E+00  0.000000000E+00  7.960935729E+01  7.960935729E+01  0.000000000E+00  0.00000E+00  9.000E+00
      21    -1     0     0   511   502  0.000000000E+00  0.000000000E+00 -1.462323514E+03  1.462323514E+03  0.000000000E+00  0.00000E+00  9.000E+00
      25     1     1     2     0     0  6.055995000E+01 -1.183617345E+02 -9.631325553E+02  9.802684973E+02  1.250000000E+02  0.00000E+00  9.000E+00
      25     1     1     2     0     0 -1.226244114E+02  6.116015538E+01 -6.401120030E+01  1.962135180E+02  1.250000000E+02  0.00000E+00  9.000E+00
      21     1     1     2   511   501  6.206446135E+01  5.720157912E+01 -3.555704013E+02  3.654508562E+02  5.394796609E-06  0.00000E+00  9.000E+00
#rwgt            1           1   2.9466256251613789E-002           3      108811           0
</event>
<event>
      5   9999  3.19816E-02  3.06568E+01 -1.00000E+00  1.52389E-01
      21    -1     0     0   502   512  0.000000000E+00  0.000000000E+00  1.389297731E+02  1.389297731E+02  0.000000000E+00  0.00000E+00  9.000E+00
      21    -1     0     0   501   502  0.000000000E+00  0.000000000E+00 -3.062023769E+02  3.062023769E+02  0.000000000E+00  0.00000E+00  9.000E+00
      25     1     1     2     0     0  2.286819367E+01  1.272524891E+02 -7.597106020E+01  1.952248761E+02  1.250000000E+02  0.00000E+00  9.000E+00
      25     1     1     2     0     0 -3.766574530E+01 -1.541015177E+02 -7.994570939E+01  2.172148765E+02  1.250000000E+02  0.00000E+00  9.000E+00
      21     1     1     2   501   512  1.479755163E+01  2.684902865E+01 -1.135583423E+01  3.269239735E+01  5.840038640E-07  0.00000E+00  9.000E+00
#rwgt            1           1   3.0900207876231326E-002           3      108878           0
</event>
<event>
      5   9999  3.19816E-02  1.79182E+01 -1.00000E+00  1.70406E-01
      21    -1     0     0   502   501  0.000000000E+00  0.000000000E+00  2.686042634E+03  2.686042634E+03  0.000000000E+00  0.00000E+00  9.000E+00
      21    -1     0     0   501   511  0.000000000E+00  0.000000000E+00 -3.027490086E+02  3.027490086E+02  0.000000000E+00  0.00000E+00  9.000E+00
      25     1     1     2     0     0  2.940711331E+02 -5.048808820E+02  1.321418471E+03  1.450225608E+03  1.250000000E+02  0.00000E+00  9.000E+00
      25     1     1     2     0     0 -2.907883396E+02  4.872659457E+02  1.234820436E+03  1.364695010E+03  1.250000000E+02  0.00000E+00  9.000E+00
      21     1     1     2   502   511 -3.282793548E+00  1.761493635E+01 -1.729452822E+02  1.738710251E+02  1.907348633E-06  0.00000E+00  9.000E+00
#rwgt            1           1   6.7181071724758998E-002           3      108966           0
</event>
<event>
      5   9999  3.19816E-02  4.23561E+01 -1.00000E+00  1.43315E-01
      21    -1     0     0   502   512  0.000000000E+00  0.000000000E+00  2.511146480E+02  2.511146480E+02  0.000000000E+00  0.00000E+00  9.000E+00
      21    -1     0     0   501   502  0.000000000E+00  0.000000000E+00 -7.584682788E+02  7.584682788E+02  0.000000000E+00  0.00000E+00  9.000E+00
      25     1     1     2     0     0  1.834015511E+02 -1.098349591E+02 -6.606722083E+02  7.055583704E+02  1.250000000E+02  0.00000E+00  9.000E+00
      25     1     1     2     0     0 -1.505210859E+02  8.313453272E+01  9.729942121E+01  2.337950496E+02  1.250000000E+02  0.00000E+00  9.000E+00
      21     1     1     2   501   512 -3.288046511E+01  2.670042641E+01  5.601915629E+01  7.022950682E+01  6.743495762E-07  0.00000E+00  9.000E+00
#rwgt            1           1   2.8317229447546194E-002           3      109122           0
</event>
<event>
      5   9999  3.19816E-02  2.10002E+02 -1.00000E+00  1.10882E-01
      21    -1     0     0   502   511  0.000000000E+00  0.000000000E+00  2.549430413E+03  2.549430413E+03  0.000000000E+00  0.00000E+00  9.000E+00
      21    -1     0     0   501   502  0.000000000E+00  0.000000000E+00 -1.188546508E+02  1.188546508E+02  0.000000000E+00  0.00000E+00  9.000E+00
      25     1     1     2     0     0  2.772493275E+02 -4.156231573E+01  3.439900534E+02  4.610301211E+02  1.250000000E+02  0.00000E+00  9.000E+00
      25     1     1     2     0     0 -4.722921954E+02  1.194039409E+02  1.602849308E+03  1.679901225E+03  1.250000000E+02  0.00000E+00  9.000E+00
      21     1     1     2   501   511  1.950428679E+02 -7.784162521E+01  4.837364008E+02  5.273537185E+02  7.629394531E-06  0.00000E+00  9.000E+00
#rwgt            1           1   4.0109440505731155E-002           3      109200           0
</event>
<event>
      5   9999  3.19816E-02  1.13423E+02 -1.00000E+00  1.21417E-01
      21    -1     0     0   502   501  0.000000000E+00  0.000000000E+00  5.036374972E+02  5.036374972E+02  0.000000000E+00  0.00000E+00  9.000E+00
      21    -1     0     0   512   502  0.000000000E+00  0.000000000E+00 -1.105368728E+03  1.105368728E+03  0.000000000E+00  0.00000E+00  9.000E+00
      25     1     1     2     0     0  8.653329964E+01  3.997384734E+02 -7.043902720E+02  8.240567422E+02  1.250000000E+02  0.00000E+00  9.000E+00
      25     1     1     2     0     0 -1.347751622E+02 -2.970864180E+02  3.612699477E+02  5.025591102E+02  1.250000000E+02  0.00000E+00  9.000E+00
      21     1     1     2   512   501  4.824186259E+01 -1.026520553E+02 -2.586109063E+02  2.823903727E+02  5.394796609E-06  0.00000E+00  9.000E+00
#rwgt            1           1   2.4490920649326904E-002           3      109259           0
</event>
<event>
      5   9999  3.19816E-02  1.00168E+01 -1.00000E+00  1.95673E-01
      21    -1     0     0   502   501  0.000000000E+00  0.000000000E+00  9.136513588E+01  9.136513588E+01  0.000000000E+00  0.00000E+00  9.000E+00
      21    -1     0     0   511   502  0.000000000E+00  0.000000000E+00 -4.999182865E+02  4.999182865E+02  0.000000000E+00  0.00000E+00  9.000E+00
      25     1     1     2     0     0  2.621925378E+01 -3.153961221E+01  1.390629437E+01  1.322897631E+02  1.250000000E+02  0.00000E+00  9.000E+00
      25     1     1     2     0     0 -3.560349663E+01  2.803654742E+01 -2.255043476E+02  2.617840098E+02  1.250000000E+02  0.00000E+00  9.000E+00
      21     1     1     2   511   501  9.384242857E+00  3.503064785E+00 -1.969550974E+02  1.972096495E+02  2.697398305E-06  0.00000E+00  9.000E+00
#rwgt            1           1   2.9048311757023534E-002           3      109368           0
</event>
<event>
      5   9999  3.19816E-02  1.06587E+01 -1.00000E+00  1.92608E-01
      21    -1     0     0   502   512  0.000000000E+00  0.000000000E+00  1.311463952E+03  1.311463952E+03  0.000000000E+00  0.00000E+00  9.000E+00
      21    -1     0     0   501   502  0.000000000E+00  0.000000000E+00 -5.167039926E+01  5.167039926E+01  0.000000000E+00  0.00000E+00  9.000E+00
      25     1     1     2     0     0 -1.000652793E+02 -1.952961188E+02  5.841838730E+02  6.364349390E+02  1.250000000E+02  0.00000E+00  9.000E+00
      25     1     1     2     0     0  9.551390920E+01  1.856580245E+02  5.598453405E+02  6.104454228E+02  1.250000000E+02  0.00000E+00  9.000E+00
      21     1     1     2   501   512  4.551370061E+00  9.638094233E+00  1.157643397E+02  1.162539899E+02  1.348699152E-06  0.00000E+00  9.000E+00
#rwgt            1           1   3.1870044039506364E-002           3      109550           0
</event>
<event>
      5   9999  3.19816E-02  1.23776E+02 -1.00000E+00  1.19800E-01
      21    -1     0     0   502   501  0.000000000E+00  0.000000000E+00  6.541362935E+02  6.541362935E+02  0.000000000E+00  0.00000E+00  9.000E+00
      21    -1     0     0   501   511  0.000000000E+00  0.000000000E+00 -1.214887163E+03  1.214887163E+03  0.000000000E+00  0.00000E+00  9.000E+00
      25     1     1     2     0     0  6.907248120E+02 -4.677652009E+02 -6.388122171E+01  8.459378580E+02  1.250000000E+02  0.00000E+00  9.000E+00
      25     1     1     2     0     0 -6.593128990E+02  3.480412891E+02 -3.560404225E+02  8.355932145E+02  1.250000000E+02  0.00000E+00  9.000E+00
      21     1     1     2   502   511 -3.141191292E+01  1.197239118E+02 -1.408292253E+02  1.874923839E+02  1.907348633E-06  0.00000E+00  9.000E+00
#rwgt            1           1   3.5870559204065400E-002           3      109760           0
</event>
<event>
      5   9999  3.19816E-02  1.51305E+02 -1.00000E+00  1.16245E-01
      21    -1     0     0   502   501  0.000000000E+00  0.000000000E+00  1.227987367E+03  1.227987367E+03  0.000000000E+00  0.00000E+00  9.000E+00
      21    -1     0     0   512   502  0.000000000E+00  0.000000000E+00 -1.896723393E+02  1.896723393E+02  0.000000000E+00  0.00000E+00  9.000E+00
      25     1     1     2     0     0  2.936294258E+02  2.110600445E+02  1.393889751E+02  4.072086301E+02  1.250000000E+02  0.00000E+00  9.000E+00
      25     1     1     2     0     0 -1.754063141E+02 -1.166336209E+02  7.813234425E+02  8.188175000E+02  1.250000000E+02  0.00000E+00  9.000E+00
      21     1     1     2   512   501 -1.182231117E+02 -9.442642364E+01  1.176026105E+02  1.916335764E+02  3.303624740E-06  0.00000E+00  9.000E+00
#rwgt            2          11   4.3241514987573367E-003           3      109883           0
</event>
<event>
      5   9999  3.19816E-02  1.32680E+02 -1.00000E+00  1.18545E-01
       2    -1     0     0   502     0  0.000000000E+00  0.000000000E+00  7.887396524E+02  7.887396524E+02  0.000000000E+00  0.00000E+00  9.000E+00
      21    -1     0     0   501   502  0.000000000E+00  0.000000000E+00 -8.068772425E+02  8.068772425E+02  0.000000000E+00  0.00000E+00  9.000E+00
      25     1     1     2     0     0  3.759204150E+02  4.075535327E+02 -1.705584963E+02  5.934064721E+02  1.250000000E+02  0.00000E+00  9.000E+00
      25     1     1     2     0     0 -3.359186124E+02 -5.340597162E+02 -1.599971361E+02  6.627859218E+02  1.250000000E+02  0.00000E+00  9.000E+00
       2     1     1     2   501     0 -4.000180264E+01  1.265061835E+02  3.124180423E+02  3.394245010E+02  0.000000000E+00  0.00000E+00  9.000E+00
#rwgt            1           1   3.2050099684182966E-002           3      109903           0
</event>
<event>
      5   9999  3.19816E-02  1.78711E+01 -1.00000E+00  1.70506E-01
      21    -1     0     0   502   501  0.000000000E+00  0.000000000E+00  4.390578782E+01  4.390578782E+01  0.000000000E+00  0.00000E+00  9.000E+00
      21    -1     0     0   501   511  0.000000000E+00  0.000000000E+00 -9.102160511E+02  9.102160511E+02  0.000000000E+00  0.00000E+00  9.000E+00
      25     1     1     2     0     0  9.569894449E+01  5.180926548E+01 -5.920869947E+02  6.148451003E+02  1.250000000E+02  0.00000E+00  9.000E+00
      25     1     1     2     0     0 -1.100941780E+02 -6.239946855E+01 -2.244125141E+02  2.863571165E+02  1.250000000E+02  0.00000E+00  9.000E+00
      21     1     1     2   502   511  1.439523352E+01  1.059020308E+01 -4.981075448E+01  5.291962217E+01  9.536743164E-07  0.00000E+00  9.000E+00
#rwgt            1           1   2.7585924522869298E-002           3      109967           0
</event>
<event>
      5   9999  3.19816E-02  7.33729E+00 -1.00000E+00  2.12705E-01
      21    -1     0     0   512   501  0.000000000E+00  0.000000000E+00  2.315865465E+02  2.315865465E+02  0.000000000E+00  0.00000E+00  9.000E+00
      21    -1     0     0   501   502  0.000000000E+00  0.000000000E+00 -1.396594883E+02  1.396594883E+02  0.000000000E+00  0.00000E+00  9.000E+00
      25     1     1     2     0     0  6.060647424E+01  9.764760471E+01  5.760399946E+01  1.793081710E+02  1.250000000E+02  0.00000E+00  9.000E+00
      25     1     1     2     0     0 -6.778871962E+01 -9.614723491E+01  1.623537839E+01  1.724186440E+02  1.250000000E+02  0.00000E+00  9.000E+00
      21     1     1     2   512   502  7.182245375E+00 -1.500369804E+00  1.808768040E+01  1.951921977E+01  3.371747881E-07  0.00000E+00  9.000E+00
#rwgt            1           1   2.5633608706923883E-002           3      110149           0
</event>
<event>
      5   9999  3.19816E-02  1.08753E+01 -1.00000E+00  1.91637E-01
      21    -1     0     0   511   501  0.000000000E+00  0.000000000E+00  1.046731194E+02  1.046731194E+02  0.000000000E+00  0.00000E+00  9.000E+00
      21    -1     0     0   501   502  0.000000000E+00  0.000000000E+00 -4.638108717E+02  4.638108717E+02  0.000000000E+00  0.00000E+00  9.000E+00
      25     1     1     2     0     0  2.876542289E+01 -1.655025577E+02 -1.890826812E+02  2.821272878E+02  1.250000000E+02  0.00000E+00  9.000E+00
      25     1     1     2     0     0 -2.868284963E+01  1.763775340E+02 -1.680139402E+02  2.752915263E+02  1.250000000E+02  0.00000E+00  9.000E+00
      21     1     1     2   511   502 -8.257325169E-02 -1.087497627E+01 -2.041130971E+00  1.106517704E+01  2.021291847E-07  0.00000E+00  9.000E+00
#rwgt            1           1   3.0924640988184784E-002           3      110379           0
</event>
<event>
      5   9999  3.19816E-02  7.39955E+02 -1.00000E+00  9.42450E-02
      -1    -1     0     0     0   501  0.000000000E+00  0.000000000E+00  1.024789001E+03  1.024789001E+03  0.000000000E+00  0.00000E+00  9.000E+00
      21    -1     0     0   501   502  0.000000000E+00  0.000000000E+00 -1.313919201E+03  1.313919201E+03  0.000000000E+00  0.00000E+00  9.000E+00
      25     1     1     2     0     0 -3.383502706E+02 -6.866820481E+02 -1.600608635E+02  7.919959728E+02  1.250000000E+02  0.00000E+00  9.000E+00
      25     1     1     2     0     0  2.560715563E+02 -4.868377437E+01  4.986400638E+02  5.763763224E+02  1.250000000E+02  0.00000E+00  9.000E+00
      -1     1     1     2     0   502  8.227871433E+01  7.353658225E+02 -6.277094003E+02  9.703359063E+02  1.705984480E-05  0.00000E+00  9.000E+00
#rwgt            2           5   1.4165302894810491E-005           3      110545           0
</event>
<event>
      5   9999  3.19816E-02  7.01210E+01 -1.00000E+00  1.31183E-01
      21    -1     0     0   502   511  0.000000000E+00  0.000000000E+00  2.548017766E+03  2.548017766E+03  0.000000000E+00  0.00000E+00  9.000E+00
      21    -1     0     0   501   502  0.000000000E+00  0.000000000E+00 -4.896365065E+01  4.896365065E+01  0.000000000E+00  0.00000E+00  9.000E+00
      25     1     1     2     0     0  8.705478294E+01  3.375452495E+01  9.113253210E+01  1.806876908E+02  1.250000000E+02  0.00000E+00  9.000E+00
      25     1     1     2     0     0 -1.704925005E+01 -2.973217350E+01  1.430404456E+03  1.436264804E+03  1.250000000E+02  0.00000E+00  9.000E+00
      21     1     1     2   501   511 -7.000553290E+01 -4.022351445E+00  9.775171277E+02  9.800289224E+02  1.868812365E-05  0.00000E+00  9.000E+00
#rwgt            1           1   4.1064491562259289E-002           3      110564           0
</event>
<event>
      5   9999  3.19816E-02  9.02152E+01 -1.00000E+00  1.25873E-01
      21    -1     0     0   512   501  0.000000000E+00  0.000000000E+00  4.847519778E+02  4.847519778E+02  0.000000000E+00  0.00000E+00  9.000E+00
      21    -1     0     0   501   502  0.000000000E+00  0.000000000E+00 -7.670866102E+02  7.670866102E+02  0.000000000E+00  0.00000E+00  9.000E+00
      25     1     1     2     0     0  1.732751230E+02  1.433756898E+02  1.850558396E+02  3.169408785E+02  1.250000000E+02  0.00000E+00  9.000E+00
      25     1     1     2     0     0 -2.498816757E+02 -1.910224286E+02 -6.490904662E+02  7.320340520E+02  1.250000000E+02  0.00000E+00  9.000E+00
      21     1     1     2   512   502  7.660655268E+01  4.764673876E+01  1.816999942E+02  2.028636574E+02  4.672030912E-06  0.00000E+00  9.000E+00
#rwgt            1           1   3.1190319761103032E-002           3      110607           0
</event>
<event>
      5   9999  3.19816E-02  8.80458E+01 -1.00000E+00  1.26367E-01
      21    -1     0     0   502   501  0.000000000E+00  0.000000000E+00  7.845648378E+02  7.845648378E+02  0.000000000E+00  0.00000E+00  9.000E+00
      21    -1     0     0   511   502  0.000000000E+00  0.000000000E+00 -5.292028277E+02  5.292028277E+02  0.000000000E+00  0.00000E+00  9.000E+00
      25     1     1     2     0     0  7.907234622E+01  4.783130841E+02  3.762067543E+02  6.262526362E+02  1.250000000E+02  0.00000E+00  9.000E+00
      25     1     1     2     0     0 -1.102454922E+02 -5.606555994E+02 -1.294221059E+02  5.990524611E+02  1.250000000E+02  0.00000E+00  9.000E+00
      21     1     1     2   511   501  3.117314593E+01  8.234251528E+01  8.577361659E+00  8.846256826E+01  2.064765462E-07  0.00000E+00  9.000E+00
#rwgt            1           1   3.0818605957616225E-002           3      110679           0
</event>
<event>
      5   9999  3.19816E-02  1.51297E+03 -1.00000E+00  8.68728E-02
      21    -1     0     0   502   512  0.000000000E+00  0.000000000E+00  2.912548191E+03  2.912548191E+03  0.000000000E+00  0.00000E+00  9.000E+00
      21    -1     0     0   501   502  0.000000000E+00  0.000000000E+00 -9.417089955E+02  9.417089955E+02  0.000000000E+00  0.00000E+00  9.000E+00
      25     1     1     2     0     0 -4.528563031E+02  3.072913787E+02  1.153636085E+01  5.614845593E+02  1.250000000E+02  0.00000E+00  9.000E+00
      25     1     1     2     0     0 -3.470718435E+01  1.124968847E+03  7.937706406E+02  1.382915878E+03  1.250000000E+02  0.00000E+00  9.000E+00
      21     1     1     2   501   512  4.875634875E+02 -1.432260225E+03  1.165532194E+03  1.909856749E+03  3.051757812E-05  0.00000E+00  9.000E+00
#rwgt            2          11   3.1874193133862850E-004           3      110936           0
</event>
<event>
      5   9999  3.19816E-02  6.24677E+01 -1.00000E+00  1.33775E-01
      21    -1     0     0   502   501  0.000000000E+00  0.000000000E+00  2.602085394E+02  2.602085394E+02  0.000000000E+00  0.00000E+00  9.000E+00
      21    -1     0     0   511   502  0.000000000E+00  0.000000000E+00 -1.172468888E+03  1.172468888E+03  0.000000000E+00  0.00000E+00  9.000E+00
      25     1     1     2     0     0  2.482584148E+02 -4.276621705E+02 -6.338465390E+02  8.135807321E+02  1.250000000E+02  0.00000E+00  9.000E+00
      25     1     1     2     0     0 -2.439105554E+02  3.653459960E+02 -1.577071282E+02  4.831838099E+02  1.250000000E+02  0.00000E+00  9.000E+00
      21     1     1     2   511   501 -4.347859475E+00  6.231617448E+01 -1.207066818E+02  1.359128857E+02  3.015782986E-06  0.00000E+00  9.000E+00
#rwgt            1           1   3.3129876397004696E-002           3      110956           0
</event>
<event>
      5   9999  3.19816E-02  2.85005E+01 -1.00000E+00  1.54603E-01
       2    -1     0     0   502     0  0.000000000E+00  0.000000000E+00  1.872574285E+03  1.872574285E+03  0.000000000E+00  0.00000E+00  9.000E+00
      21    -1     0     0   501   502  0.000000000E+00  0.000000000E+00 -2.923171153E+02  2.923171153E+02  0.000000000E+00  0.00000E+00  9.000E+00
      25     1     1     2     0     0  1.617577747E+02  1.316955120E+02 -1.928870130E+02  3.103863485E+02  1.250000000E+02  0.00000E+00  9.000E+00
      25     1     1     2     0     0 -1.826287183E+02 -1.511037905E+02  4.023897155E+02  4.834543281E+02  1.250000000E+02  0.00000E+00  9.000E+00
       2     1     1     2   501     0  2.087094361E+01  1.940827848E+01  1.370754467E+03  1.371050724E+03  0.000000000E+00  0.00000E+00  9.000E+00
#rwgt            1           1   2.8367171533288632E-002           3      111064           0
</event>
<event>
      5   9999  3.19816E-02  1.72032E+02 -1.00000E+00  1.14083E-01
       2    -1     0     0   502     0  0.000000000E+00  0.000000000E+00  5.405235341E+02  5.405235341E+02  0.000000000E+00  0.00000E+00  9.000E+00
      21    -1     0     0   501   502  0.000000000E+00  0.000000000E+00 -1.911465942E+02  1.911465942E+02  0.000000000E+00  0.00000E+00  9.000E+00
      25     1     1     2     0     0  8.734945458E+01 -1.897232752E+02  7.674777790E+01  2.552255273E+02  1.250000000E+02  0.00000E+00  9.000E+00
      25     1     1     2     0     0  7.677670894E+01  1.381701590E+02  7.648605613E+01  2.155476111E+02  1.250000000E+02  0.00000E+00  9.000E+00
       2     1     1     2   501     0 -1.641261635E+02  5.155311627E+01  1.961431059E+02  2.608969899E+02  5.394796609E-06  0.00000E+00  9.000E+00
#rwgt            2          18   3.1699071549620841E-004           3      111307           0
</event>
<event>
      5   9999  3.19816E-02  4.43401E+01 -1.00000E+00  1.42119E-01
      21    -1     0     0   502   501  0.000000000E+00  0.000000000E+00  1.584651958E+03  1.584651958E+03  0.000000000E+00  0.00000E+00  9.000E+00
      21    -1     0     0   501   511  0.000000000E+00  0.000000000E+00 -7.534763338E+01  7.534763338E+01  0.000000000E+00  0.00000E+00  9.000E+00
      25     1     1     2     0     0 -1.592586162E+02  1.692353804E+02  1.070910729E+03  1.102940937E+03  1.250000000E+02  0.00000E+00  9.000E+00
      25     1     1     2     0     0  2.015165509E+02 -1.826634799E+02  3.838898437E+02  4.867969590E+02  1.250000000E+02  0.00000E+00  9.000E+00
      21     1     1     2   502   511 -4.225793466E+01  1.342809941E+01  5.450375245E+01  7.026169602E+01  1.507891493E-06  0.00000E+00  9.000E+00
#rwgt            1           1   2.9635092515203579E-002           3      111326           0
</event>
<event>
      5   9999  3.19816E-02  7.27782E+01 -1.00000E+00  1.30370E-01
      21    -1     0     0   512   501  0.000000000E+00  0.000000000E+00  2.257499539E+02  2.257499539E+02  0.000000000E+00  0.00000E+00  9.000E+00
      21    -1     0     0   501   502  0.000000000E+00  0.000000000E+00 -4.150180606E+02  4.150180606E+02  0.000000000E+00  0.00000E+00  9.000E+00
      25     1     1     2     0     0  6.369293712E+01 -2.224173092E+02 -2.418925657E+02  3.572999623E+02  1.250000000E+02  0.00000E+00  9.000E+00
      25     1     1     2     0     0 -2.514601613E+01  1.606856253E+02  4.720250651E+01  2.104881681E+02  1.250000000E+02  0.00000E+00  9.000E+00
      21     1     1     2   512   502 -3.854692099E+01  6.173168399E+01  5.421952552E+00  7.297988418E+01  1.486535539E-06  0.00000E+00  9.000E+00
#rwgt            1           1   3.1016153847343214E-002           3      111470           0
</event>
<event>
      5   9999  3.19816E-02  1.75657E+01 -1.00000E+00  1.71158E-01
      21    -1     0     0   502   501  0.000000000E+00  0.000000000E+00  1.756908879E+02  1.756908879E+02  0.000000000E+00  0.00000E+00  9.000E+00
      21    -1     0     0   501   511  0.000000000E+00  0.000000000E+00 -5.277075569E+02  5.277075569E+02  0.000000000E+00  0.00000E+00  9.000E+00
      25     1     1     2     0     0  1.492730846E+02 -2.133837682E+02 -9.200342731E+01  3.031579077E+02  1.250000000E+02  0.00000E+00  9.000E+00
      25     1     1     2     0     0 -1.616630559E+02  2.009321315E+02 -2.422411391E+02  3.752524944E+02  1.250000000E+02  0.00000E+00  9.000E+00
      21     1     1     2   502   511  1.238997124E+01  1.245163678E+01 -1.777210258E+01  2.498804266E+01  2.384185791E-07  0.00000E+00  9.000E+00
#rwgt            1           1   2.8580799252321664E-002           3      111563           0
</event>
<event>
      5   9999  3.27403E-02  7.87994E+01 -1.00000E+00  1.28668E-01
       2    -1     0     0   502     0  0.000000000E+00  0.000000000E+00  9.229165477E+01  9.229165477E+01  0.000000000E+00  0.00000E+00  9.000E+00
      21    -1     0     0   501   502  0.000000000E+00  0.000000000E+00 -8.495401490E+02  8.495401490E+02  0.000000000E+00  0.00000E+00  9.000E+00
      25     1     1     2     0     0  1.730385762E+01  1.004285886E+02 -6.152236522E+02  6.360113734E+02  1.250000000E+02  0.00000E+00  9.000E+00
      25     1     1     2     0     0  1.004686162E+01 -2.652810493E+01 -1.778768949E+02  2.192484196E+02  1.250000000E+02  0.00000E+00  9.000E+00
       2     1     1     2   501     0 -2.735071923E+01 -7.390048372E+01  3.585205289E+01  8.657201068E+01  1.907348633E-06  0.00000E+00  9.000E+00
#rwgt            1           1   8.7838326107605780E-002           3      111768           0
</event>
<event>
      5   9999  3.20977E-02  1.44663E+02 -1.00000E+00  1.17021E-01
      21    -1     0     0   502   501  0.000000000E+00  0.000000000E+00  1.710670937E+03  1.710670937E+03  0.000000000E+00  0.00000E+00  9.000E+00
      21    -1     0     0   511   502  0.000000000E+00  0.000000000E+00 -7.631294292E+02  7.631294292E+02  0.000000000E+00  0.00000E+00  9.000E+00
      25     1     1     2     0     0 -1.820290491E+02  8.423555737E+02  8.099121734E+01  8.745753624E+02  1.250000000E+02  0.00000E+00  9.000E+00
      25     1     1     2     0     0  5.848050323E+01 -7.671019542E+02  1.085780871E+03  1.336566675E+03  1.250000000E+02  0.00000E+00  9.000E+00
      21     1     1     2   511   501  1.235485459E+02 -7.525361946E+01 -2.192305802E+02  2.626583289E+02  3.814697266E-06  0.00000E+00  9.000E+00
#rwgt            1           1   3.0770944270652439E-002           3      111838           0
</event>
<event>
      5   9999  3.19816E-02  4.71700E+01 -1.00000E+00  1.40535E-01
      21    -1     0     0   502   501  0.000000000E+00  0.000000000E+00  1.251839968E+02  1.251839968E+02  0.000000000E+00  0.00000E+00  9.000E+00
      21    -1     0     0   501   512  0.000000000E+00  0.000000000E+00 -7.786407708E+02  7.786407708E+02  0.000000000E+00  0.00000E+00  9.000E+00
      25     1     1     2     0     0 -2.853567791E+01 -1.384082844E+02 -4.337673364E+02  4.730224522E+02  1.250000000E+02  0.00000E+00  9.000E+00
      25     1     1     2     0     0  5.152530493E+01  9.721982922E+01  3.635420994E+01  1.704499364E+02  1.250000000E+02  0.00000E+00  9.000E+00
      21     1     1     2   502   512 -2.298962702E+01  4.118845522E+01 -2.560436475E+02  2.603523790E+02  3.814697266E-06  0.00000E+00  9.000E+00
#rwgt            1           1   2.7318775097282658E-002           3      111919           0
</event>
<event>
      5   9999  3.19816E-02  3.05598E+01 -1.00000E+00  1.52484E-01
      21    -1     0     0   502   501  0.000000000E+00  0.000000000E+00  3.463211910E+01  3.463211910E+01  0.000000000E+00  0.00000E+00  9.000E+00
       2    -1     0     0   501     0  0.000000000E+00  0.000000000E+00 -1.188603351E+03  1.188603351E+03  0.000000000E+00  0.00000E+00  9.000E+00
      25     1     1     2     0     0  9.322910043E+01  2.456946086E+01 -2.589968434E+02  3.033145042E+02  1.250000000E+02  0.00000E+00  9.000E+00
      25     1     1     2     0     0 -1.205033255E+02 -3.835405326E+01 -6.835123848E+02  7.062621787E+02  1.250000000E+02  0.00000E+00  9.000E+00
       2     1     1     2   502     0  2.727422505E+01  1.378459240E+01 -2.114620034E+02  2.136587869E+02  2.697398305E-06  0.00000E+00  9.000E+00
#rwgt            1           1   9.3903222596153323E-003           3      112001           0
</event>
<event>
      5   9999  3.19816E-02  7.64367E+01 -1.00000E+00  1.29315E-01
      21    -1     0     0   502   511  0.000000000E+00  0.000000000E+00  2.593722058E+03  2.593722058E+03  0.000000000E+00  0.00000E+00  9.000E+00
      21    -1     0     0   501   502  0.000000000E+00  0.000000000E+00 -5.205153075E+01  5.205153075E+01  0.000000000E+00  0.00000E+00  9.000E+00
      25     1     1     2     0     0 -4.503869403E+01  2.790370667E+02  6.827467641E+02  7.494386649E+02  1.250000000E+02  0.00000E+00  9.000E+00
      25     1     1     2     0     0  8.999417551E+01 -2.172182136E+02  1.028917718E+03  1.062816718E+03  1.250000000E+02  0.00000E+00  9.000E+00
      21     1     1     2   501   511 -4.495548148E+01 -6.181885303E+01  8.300060448E+02  8.335182063E+02  0.000000000E+00  0.00000E+00  9.000E+00
#rwgt            1           1   3.4847704484940227E-002           3      112096           0
</event>
<event>
      5   9999  3.19816E-02  1.79652E+02 -1.00000E+00  1.13371E-01
      21    -1     0     0   502   501  0.000000000E+00  0.000000000E+00  5.385305483E+02  5.385305483E+02  0.000000000E+00  0.00000E+00  9.000E+00
      21    -1     0     0   501   512  0.000000000E+00  0.000000000E+00 -1.427676283E+03  1.427676283E+03  0.000000000E+00  0.00000E+00  9.000E+00
      25     1     1     2     0     0 -4.353872198E+02 -3.799461016E+02  1.623954539E+02  6.131218107E+02  1.250000000E+02  0.00000E+00  9.000E+00
      25     1     1     2     0     0  3.332594430E+02  5.277455556E+02 -6.334581260E+02  8.980375411E+02  1.250000000E+02  0.00000E+00  9.000E+00
      21     1     1     2   502   512  1.021277768E+02 -1.477994540E+02 -4.180830628E+02  4.550474797E+02  5.394796609E-06  0.00000E+00  9.000E+00
#rwgt            2          11   3.4287822728496439E-003           3      112192           0
</event>
<event>
      5   9999  3.19816E-02  3.99402E+02 -1.00000E+00  1.01705E-01
      21    -1     0     0   502   501  0.000000000E+00  0.000000000E+00  3.099081164E+02  3.099081164E+02  0.000000000E+00  0.00000E+00  9.000E+00
      21    -1     0     0   511   502  0.000000000E+00  0.000000000E+00 -1.204498479E+03  1.204498479E+03  0.000000000E+00  0.00000E+00  9.000E+00
      25     1     1     2     0     0  1.866800015E+02 -2.781803440E+01 -1.903026172E+02  2.957420364E+02  1.250000000E+02  0.00000E+00  9.000E+00
      25     1     1     2     0     0  3.612356616E+01 -3.036640923E+02  7.877291297E+01  3.396276855E+02  1.250000000E+02  0.00000E+00  9.000E+00
      21     1     1     2   511   501 -2.228035677E+02  3.314821266E+02 -7.830606582E+02  8.790368732E+02  1.078959322E-05  0.00000E+00  9.000E+00
#rwgt            2          11   2.5271957940320956E-003           3      112482           0
</event>
<event>
      5   9999  3.19816E-02  4.77531E+00 -1.00000E+00  2.46567E-01
      21    -1     0     0   502   501  0.000000000E+00  0.000000000E+00  3.063122713E+02  3.063122713E+02  0.000000000E+00  0.00000E+00  9.000E+00
      21    -1     0     0   512   502  0.000000000E+00  0.000000000E+00 -4.743634990E+02  4.743634990E+02  0.000000000E+00  0.00000E+00  9.000E+00
      25     1     1     2     0     0  3.151512253E+02  1.564719887E+02 -3.725588713E+01  3.752556185E+02  1.250000000E+02  0.00000E+00  9.000E+00
      25     1     1     2     0     0 -3.108711430E+02 -1.585896405E+02 -1.138076790E+02  3.877740701E+02  1.250000000E+02  0.00000E+00  9.000E+00
      21     1     1     2   512   501 -4.280082231E+00  2.117651706E+00 -1.698766159E+01  1.764608169E+01  0.000000000E+00  0.00000E+00  9.000E+00
#rwgt            1           1   2.7617369070622087E-002           3      112502           0
</event>
<event>
      5   9999  3.19816E-02  2.44221E+01 -1.00000E+00  1.59515E-01
      21    -1     0     0   502   501  0.000000000E+00  0.000000000E+00  2.528889645E+02  2.528889645E+02  0.000000000E+00  0.00000E+00  9.000E+00
      21    -1     0     0   501   511  0.000000000E+00  0.000000000E+00 -1.319917224E+03  1.319917224E+03  0.000000000E+00  0.00000E+00  9.000E+00
      25     1     1     2     0     0 -1.231733190E+02  2.598558972E+02 -1.174079797E+03  1.215230482E+03  1.250000000E+02  0.00000E+00  9.000E+00
      25     1     1     2     0     0  1.115475923E+02 -2.383783999E+02  1.344370471E+02  3.208822939E+02  1.250000000E+02  0.00000E+00  9.000E+00
      21     1     1     2   502   511  1.162572671E+01 -2.147749727E+01 -2.738550923E+01  3.669341257E+01  3.371747881E-07  0.00000E+00  9.000E+00
#rwgt            1           1   3.0382569756280717E-002           3      112941           0
</event>
<event>
      5   9999  3.19816E-02  6.96876E+01 -1.00000E+00  1.31319E-01
      21    -1     0     0   502   501  0.000000000E+00  0.000000000E+00  1.973703016E+02  1.973703016E+02  0.000000000E+00  0.00000E+00  9.000E+00
       1    -1     0     0   501     0  0.000000000E+00  0.000000000E+00 -1.611504029E+03  1.611504029E+03  0.000000000E+00  0.00000E+00  9.000E+00
      25     1     1     2     0     0  4.817876867E+01 -9.935299239E+01 -1.213604161E+03  1.225011131E+03  1.250000000E+02  0.00000E+00  9.000E+00
      25     1     1     2     0     0 -1.794891034E+01  3.656347590E+01  1.654410168E+02  2.113167793E+02  1.250000000E+02  0.00000E+00  9.000E+00
       1     1     1     2   502     0 -3.022985833E+01  6.278951649E+01 -3.659705835E+02  3.725464208E+02  0.000000000E+00  0.00000E+00  9.000E+00
#rwgt            1           1   2.9023421399216952E-002           3      113151           0
</event>
<event>
      5   9999  3.19816E-02  4.98028E+00 -1.00000E+00  2.42886E-01
       2    -1     0     0   502     0  0.000000000E+00  0.000000000E+00  3.068258507E+03  3.068258507E+03  0.000000000E+00  0.00000E+00  9.000E+00
      21    -1     0     0   501   502  0.000000000E+00  0.000000000E+00 -6.394708455E+02  6.394708455E+02  0.000000000E+00  0.00000E+00  9.000E+00
      25     1     1     2     0     0 -2.916630443E+01 -1.593921990E+02 -2.934281070E+02  3.577451613E+02  1.250000000E+02  0.00000E+00  9.000E+00
      25     1     1     2     0     0  2.828267552E+01  1.642934642E+02 -2.793012902E+02  3.484630007E+02  1.250000000E+02  0.00000E+00  9.000E+00
       2     1     1     2   501     0  8.836289080E-01 -4.901265125E+00  3.001517059E+03  3.001521191E+03  6.103515625E-05  0.00000E+00  9.000E+00
#rwgt            1           1   2.7589458991881925E-002           3      113261           0
</event>
<event>
      5   9999  3.19816E-02  5.14127E+01 -1.00000E+00  1.38389E-01
      21    -1     0     0   511   501  0.000000000E+00  0.000000000E+00  1.335012748E+02  1.335012748E+02  0.000000000E+00  0.00000E+00  9.000E+00
      21    -1     0     0   501   502  0.000000000E+00  0.000000000E+00 -1.485731490E+03  1.485731490E+03  0.000000000E+00  0.00000E+00  9.000E+00
      25     1     1     2     0     0  2.844604591E+02  2.077096494E+02 -6.010372489E+02  7.077653749E+02  1.250000000E+02  0.00000E+00  9.000E+00
      25     1     1     2     0     0 -3.084896067E+02 -1.622578113E+02 -7.718352453E+02  8.560654652E+02  1.250000000E+02  0.00000E+00  9.000E+00
      21     1     1     2   511   502  2.402914755E+01 -4.545183807E+01  2.064227944E+01  5.540192430E+01  8.596304120E-07  0.00000E+00  9.000E+00
#rwgt            2          11   2.6200202439252071E-003           3      113732           0
</event>
<event>
      5   9999  3.19816E-02  5.53395E+01 -1.00000E+00  1.36607E-01
      21    -1     0     0   502   501  0.000000000E+00  0.000000000E+00  1.998482303E+02  1.998482303E+02  0.000000000E+00  0.00000E+00  9.000E+00
      -3    -1     0     0     0   502  0.000000000E+00  0.000000000E+00 -8.979407779E+02  8.979407779E+02  0.000000000E+00  0.00000E+00  9.000E+00
      25     1     1     2     0     0 -2.576120348E+02 -3.771896180E+00 -4.848669304E+02  5.631155546E+02  1.250000000E+02  0.00000E+00  9.000E+00
      25     1     1     2     0     0  2.233219515E+02  4.720748336E+01  5.059158737E+01  2.651145964E+02  1.250000000E+02  0.00000E+00  9.000E+00
      -3     1     1     2     0   501  3.429008337E+01 -4.343558718E+01 -2.638172046E+02  2.695588572E+02  3.814697266E-06  0.00000E+00  9.000E+00
#rwgt            1           1   3.0605282721017125E-002           3      113767           0
</event>
<event>
      5   9999  3.19816E-02  2.33398E+02 -1.00000E+00  1.09260E-01
      21    -1     0     0   502   501  0.000000000E+00  0.000000000E+00  3.295729678E+02  3.295729678E+02  0.000000000E+00  0.00000E+00  9.000E+00
       2    -1     0     0   501     0  0.000000000E+00  0.000000000E+00 -5.912256622E+02  5.912256622E+02  0.000000000E+00  0.00000E+00  9.000E+00
      25     1     1     2     0     0  9.584147118E+01  1.317271611E+02 -1.466897565E+02  2.523499896E+02  1.250000000E+02  0.00000E+00  9.000E+00
      25     1     1     2     0     0 -1.738351712E+02  8.825407851E+01 -2.940238609E+02  3.742759409E+02  1.250000000E+02  0.00000E+00  9.000E+00
       2     1     1     2   502     0  7.799370007E+01 -2.199812396E+02  1.790609230E+02  2.941726996E+02  1.907348633E-06  0.00000E+00  9.000E+00
#rwgt            1           1   2.4241947581619697E-002           3      113843           0
</event>
<event>
      5   9999  3.19816E-02  5.39107E+02 -1.00000E+00  9.79317E-02
      21    -1     0     0   511   501  0.000000000E+00  0.000000000E+00  3.510291642E+02  3.510291642E+02  0.000000000E+00  0.00000E+00  9.000E+00
      21    -1     0     0   501   502  0.000000000E+00  0.000000000E+00 -2.015490739E+03  2.015490739E+03  0.000000000E+00  0.00000E+00  9.000E+00
      25     1     1     2     0     0  6.658193747E+01 -1.708452645E+02 -2.068914734E+02  3.033979903E+02  1.250000000E+02  0.00000E+00  9.000E+00
      25     1     1     2     0     0 -2.310861024E+01  7.081961318E+02 -1.325311451E+03  1.508028916E+03  1.250000000E+02  0.00000E+00  9.000E+00
      21     1     1     2   511   502 -4.347332723E+01 -5.373508673E+02 -1.322586505E+02  5.550929971E+02  3.814697266E-06  0.00000E+00  9.000E+00
#rwgt            1           1   2.6882665886499613E-002           3      113874           0
</event>
<event>
      5   9999  3.19816E-02  2.51188E+01 -1.00000E+00  1.58597E-01
      21    -1     0     0   502   501  0.000000000E+00  0.000000000E+00  6.023470020E+01  6.023470020E+01  0.000000000E+00  0.00000E+00  9.000E+00
       1    -1     0     0   501     0  0.000000000E+00  0.000000000E+00 -1.924253341E+03  1.924253341E+03  0.000000000E+00  0.00000E+00  9.000E+00
      25     1     1     2     0     0 -2.264760664E+01 -6.831640061E+01 -3.908518628E+01  1.494412810E+02  1.250000000E+02  0.00000E+00  9.000E+00
      25     1     1     2     0     0  1.116390603E-01  7.941072269E+01 -1.130411077E+03  1.140070295E+03  1.250000000E+02  0.00000E+00  9.000E+00
       1     1     1     2   502     0  2.253596758E+01 -1.109432208E+01 -6.945223783E+02  6.949764656E+02  7.629394531E-06  0.00000E+00  9.000E+00
#rwgt            1           1   3.0030600245078493E-002           3      113924           0
</event>
<event>
      5   9999  3.19816E-02  1.58826E+02 -1.00000E+00  1.15418E-01
       3    -1     0     0   502     0  0.000000000E+00  0.000000000E+00  2.011184321E+02  2.011184321E+02  0.000000000E+00  0.00000E+00  9.000E+00
      21    -1     0     0   501   502  0.000000000E+00  0.000000000E+00 -4.803157284E+02  4.803157284E+02  0.000000000E+00  0.00000E+00  9.000E+00
      25     1     1     2     0     0 -7.596709348E+01  7.337443385E+01 -5.965619621E+01  1.741799890E+02  1.250000000E+02  0.00000E+00  9.000E+00
      25     1     1     2     0     0  2.340348967E+02 -8.887269344E+01 -2.067584236E+02  3.479148377E+02  1.250000000E+02  0.00000E+00  9.000E+00
       3     1     1     2   501     0 -1.580678033E+02  1.549825959E+01 -1.278267642E+01  1.593393338E+02  5.591411304E-07  0.00000E+00  9.000E+00
#rwgt            2          19   3.4326414793669989E-005           3      114148           0
</event>
<event>
      5   9999  3.19816E-02  2.38556E+01 -1.00000E+00  1.60290E-01
      21    -1     0     0   502   501  0.000000000E+00  0.000000000E+00  3.121632811E+03  3.121632811E+03  0.000000000E+00  0.00000E+00  9.000E+00
      21    -1     0     0   501   511  0.000000000E+00  0.000000000E+00 -1.057553761E+03  1.057553761E+03  0.000000000E+00  0.00000E+00  9.000E+00
      25     1     1     2     0     0 -2.013990020E+02 -2.083239146E+01 -9.829390450E+02  1.011330664E+03  1.250000000E+02  0.00000E+00  9.000E+00
      25     1     1     2     0     0  1.776976580E+02  1.812383158E+01  3.101096013E+03  3.108749976E+03  1.250000000E+02  0.00000E+00  9.000E+00
      21     1     1     2   502   511  2.370134395E+01  2.708559884E+00 -5.407791768E+01  5.910593187E+01  0.000000000E+00  0.00000E+00  9.000E+00
#rwgt            1           1   2.0189538006021048E-002           3      114167           0
</event>
<event>
      5   9999  3.19816E-02  4.06992E+01 -1.00000E+00  1.44375E-01
      21    -1     0     0   502   512  0.000000000E+00  0.000000000E+00  1.206044591E+02  1.206044591E+02  0.000000000E+00  0.00000E+00  9.000E+00
      21    -1     0     0   501   502  0.000000000E+00  0.000000000E+00 -5.908382602E+02  5.908382602E+02  0.000000000E+00  0.00000E+00  9.000E+00
      25     1     1     2     0     0  8.448979482E+01 -1.731581847E+02 -3.045200090E+02  3.814180361E+02  1.250000000E+02  0.00000E+00  9.000E+00
      25     1     1     2     0     0 -7.920902324E+01  1.328030519E+02 -1.960730293E+02  2.792496245E+02  1.250000000E+02  0.00000E+00  9.000E+00
      21     1     1     2   501   512 -5.280771586E+00  4.035513283E+01  3.035923725E+01  5.077505865E+01  3.371747881E-07  0.00000E+00  9.000E+00
#rwgt            1           1   3.5285106704505409E-002           3      114476           0
</event>
<event>
      5   9999  3.24022E-02  9.04485E+01 -1.00000E+00  1.25821E-01
      21    -1     0     0   502   501  0.000000000E+00  0.000000000E+00  3.681925781E+02  3.681925781E+02  0.000000000E+00  0.00000E+00  9.000E+00
      21    -1     0     0   511   502  0.000000000E+00  0.000000000E+00 -2.993889616E+03  2.993889616E+03  0.000000000E+00  0.00000E+00  9.000E+00
      25     1     1     2     0     0  4.235117027E+02 -8.313674483E+02 -7.293333213E+02  1.190834199E+03  1.250000000E+02  0.00000E+00  9.000E+00
      25     1     1     2     0     0 -4.731525421E+02  7.557584229E+02 -1.384929818E+03  1.651877635E+03  1.250000000E+02  0.00000E+00  9.000E+00
      21     1     1     2   511   501  4.964083937E+01  7.560902544E+01 -5.114338987E+02  5.193703596E+02  9.344061824E-06  0.00000E+00  9.000E+00
#rwgt            1           1   3.1709437073874067E-002           3      114572           0
</event>
<event>
      5   9999  3.19816E-02  9.76192E+01 -1.00000E+00  1.24300E-01
      21    -1     0     0   502   501  0.000000000E+00  0.000000000E+00  1.048955542E+02  1.048955542E+02  0.000000000E+00  0.00000E+00  9.000E+00
      21    -1     0     0   501   512  0.000000000E+00  0.000000000E+00 -7.192305298E+02  7.192305298E+02  0.000000000E+00  0.00000E+00  9.000E+00
      25     1     1     2     0     0 -7.093400915E+01  3.503040872E+01 -3.312034039E+02  3.627388288E+02  1.250000000E+02  0.00000E+00  9.000E+00
      25     1     1     2     0     0  1.684984246E+02 -3.175942588E+01 -6.422134950E+01  2.216974559E+02  1.250000000E+02  0.00000E+00  9.000E+00
      21     1     1     2   502   512 -9.756441543E+01 -3.270982843E+00 -2.189102223E+02  2.396897993E+02  2.697398305E-06  0.00000E+00  9.000E+00
#rwgt            1           1   2.7183753771293798E-002           3      114689           0
</event>
<event>
      5   9999  3.19816E-02  5.93111E+01 -1.00000E+00  1.34972E-01
      21    -1     0     0   502   501  0.000000000E+00  0.000000000E+00  4.409303641E+02  4.409303641E+02  0.000000000E+00  0.00000E+00  9.000E+00
       1    -1     0     0   501     0  0.000000000E+00  0.000000000E+00 -2.478296984E+02  2.478296984E+02  0.000000000E+00  0.00000E+00  9.000E+00
      25     1     1     2     0     0 -2.205831561E+01 -1.950822445E+02  1.676315301E+02  2.868256984E+02  1.250000000E+02  0.00000E+00  9.000E+00
      25     1     1     2     0     0  4.761364084E+01  1.415590326E+02  1.618388661E+02  2.532248745E+02  1.250000000E+02  0.00000E+00  9.000E+00
       1     1     1     2   502     0 -2.555532523E+01  5.352321190E+01 -1.363697306E+02  1.487094895E+02  3.303624740E-06  0.00000E+00  9.000E+00
#rwgt            1           1   2.4080670712089337E-002           3      114752           0
</event>
<event>
      5   9999  3.19816E-02  1.23565E+02 -1.00000E+00  1.19831E-01
      21    -1     0     0   502   511  0.000000000E+00  0.000000000E+00  7.784071484E+02  7.784071484E+02  0.000000000E+00  0.00000E+00  9.000E+00
      21    -1     0     0   501   502  0.000000000E+00  0.000000000E+00 -6.908394823E+02  6.908394823E+02  0.000000000E+00  0.00000E+00  9.000E+00
      25     1     1     2     0     0  1.160247566E+02 -2.549476666E+02  3.417867704E+01  3.086312344E+02  1.250000000E+02  0.00000E+00  9.000E+00
      25     1     1     2     0     0 -2.379522975E+02  2.749950251E+02 -4.788972824E+02  6.141751923E+02  1.250000000E+02  0.00000E+00  9.000E+00
      21     1     1     2   501   511  1.219275408E+02 -2.004735853E+01  5.322862714E+02  5.464402040E+02  7.629394531E-06  0.00000E+00  9.000E+00
#rwgt            1           1   2.7048749143661750E-002           3      114882           0
</event>
<event>
      5   9999  3.19816E-02  4.54034E+02 -1.00000E+00  1.00057E-01
       1    -1     0     0   502     0  0.000000000E+00  0.000000000E+00  2.503083606E+03  2.503083606E+03  0.000000000E+00  0.00000E+00  9.000E+00
      21    -1     0     0   501   502  0.000000000E+00  0.000000000E+00 -5.210695226E+02  5.210695226E+02  0.000000000E+00  0.00000E+00  9.000E+00
      25     1     1     2     0     0 -1.956908683E+02  8.937015277E+01  1.268392358E+02  2.792760854E+02  1.250000000E+02  0.00000E+00  9.000E+00
      25     1     1     2     0     0 -2.580068487E+02 -1.068323575E+02 -3.664223780E+02  4.773584038E+02  1.250000000E+02  0.00000E+00  9.000E+00
       1     1     1     2   501     0  4.536977170E+02  1.746220470E+01  2.221597226E+03  2.267518639E+03  4.315837288E-05  0.00000E+00  9.000E+00
#rwgt            2          17   1.7280620438729435E-003           3      115065           0
</event>
<event>
      5   9999  3.19816E-02  6.70594E+01 -1.00000E+00  1.32172E-01
      21    -1     0     0   511   501  0.000000000E+00  0.000000000E+00  1.443313986E+02  1.443313986E+02  0.000000000E+00  0.00000E+00  9.000E+00
      21    -1     0     0   501   502  0.000000000E+00  0.000000000E+00 -6.874777552E+02  6.874777552E+02  0.000000000E+00  0.00000E+00  9.000E+00
      25     1     1     2     0     0 -8.224530842E+01  1.573636580E+02 -8.300847683E+01  2.324715442E+02  1.250000000E+02  0.00000E+00  9.000E+00
      25     1     1     2     0     0  1.466166809E+02 -1.761594847E+02 -4.637489718E+02  5.321811008E+02  1.250000000E+02  0.00000E+00  9.000E+00
      21     1     1     2   511   502 -6.437137246E+01  1.879582667E+01  3.611092107E+00  6.715650884E+01  1.360501314E-06  0.00000E+00  9.000E+00
#rwgt            1           1   3.5512469987428609E-002           3      115084           0
</event>
<event>
      5   9999  3.19816E-02  3.43035E+01 -1.00000E+00  1.49103E-01
      21    -1     0     0   502   501  0.000000000E+00  0.000000000E+00  3.226749331E+02  3.226749331E+02  0.000000000E+00  0.00000E+00  9.000E+00
      21    -1     0     0   512   502  0.000000000E+00  0.000000000E+00 -4.595644831E+02  4.595644831E+02  0.000000000E+00  0.00000E+00  9.000E+00
      25     1     1     2     0     0  1.784719603E+02  2.315030637E+02  1.116807264E+02  3.369621548E+02  1.250000000E+02  0.00000E+00  9.000E+00
      25     1     1     2     0     0 -1.475833888E+02 -2.464238128E+02 -1.630879500E+02  3.531688429E+02  1.250000000E+02  0.00000E+00  9.000E+00
      21     1     1     2   512   501 -3.088857156E+01  1.492074911E+01 -8.548232650E+01  9.210841846E+01  1.348699152E-06  0.00000E+00  9.000E+00
#rwgt            1           1   2.6298436647872007E-002           3      115154           0
</event>
<event>
      5   9999  3.19816E-02  1.41557E+02 -1.00000E+00  1.17400E-01
       1    -1     0     0   502     0  0.000000000E+00  0.000000000E+00  3.406662140E+03  3.406662140E+03  0.000000000E+00  0.00000E+00  9.000E+00
      21    -1     0     0   501   502  0.000000000E+00  0.000000000E+00 -1.482015287E+02  1.482015287E+02  0.000000000E+00  0.00000E+00  9.000E+00
      25     1     1     2     0     0  2.567016596E+02  1.806448980E+02  9.383615931E+02  9.973343475E+02  1.250000000E+02  0.00000E+00  9.000E+00
      25     1     1     2     0     0 -1.733848686E+02 -2.950851534E+02  1.687806838E+02  4.015588121E+02  1.250000000E+02  0.00000E+00  9.000E+00
       1     1     1     2   501     0 -8.331679107E+01  1.144402554E+02  2.151318334E+03  2.155970509E+03  0.000000000E+00  0.00000E+00  9.000E+00
#rwgt            1           1   3.1130916163854837E-002           3      115258           0
</event>
<event>
      5   9999  3.19816E-02  1.51647E+02 -1.00000E+00  1.16206E-01
      21    -1     0     0   511   501  0.000000000E+00  0.000000000E+00  1.205038424E+02  1.205038424E+02  0.000000000E+00  0.00000E+00  9.000E+00
      21    -1     0     0   501   502  0.000000000E+00  0.000000000E+00 -1.073973918E+03  1.073973918E+03  0.000000000E+00  0.00000E+00  9.000E+00
      25     1     1     2     0     0  8.122593311E+01 -2.164309787E+02 -7.320495593E+02  7.777927604E+02  1.250000000E+02  0.00000E+00  9.000E+00
      25     1     1     2     0     0  5.323353248E+01  1.463071370E+02 -1.055929072E+02  2.258637849E+02  1.250000000E+02  0.00000E+00  9.000E+00
      21     1     1     2   511   502 -1.344594656E+02  7.012384179E+01 -1.158276089E+02  1.908212149E+02  1.348699152E-06  0.00000E+00  9.000E+00
#rwgt            1           1   2.8708120892460706E-002           3      115310           0
</event>
<event>
      5   9999  3.19816E-02  2.56103E+01 -1.00000E+00  1.57970E-01
      21    -1     0     0   502   501  0.000000000E+00  0.000000000E+00  2.041943092E+02  2.041943092E+02  0.000000000E+00  0.00000E+00  9.000E+00
      21    -1     0     0   512   502  0.000000000E+00  0.000000000E+00 -1.464066246E+03  1.464066246E+03  0.000000000E+00  0.00000E+00  9.000E+00
      25     1     1     2     0     0  1.275966826E+02 -1.848878592E+02  4.689908882E+00  2.571214288E+02  1.250000000E+02  0.00000E+00  9.000E+00
      25     1     1     2     0     0 -1.476332885E+02  2.008383920E+02 -1.926601468E+02  3.389315267E+02  1.250000000E+02  0.00000E+00  9.000E+00
      21     1     1     2   512   501  2.003660594E+01 -1.595053282E+01 -1.071901699E+03  1.072207599E+03  1.525878906E-05  0.00000E+00  9.000E+00
#rwgt            1           1   3.0917155251509794E-002           3      115350           0
</event>
<event>
      5   9999  3.19816E-02  5.62273E+01 -1.00000E+00  1.36228E-01
      21    -1     0     0   502   501  0.000000000E+00  0.000000000E+00  2.060230536E+03  2.060230536E+03  0.000000000E+00  0.00000E+00  9.000E+00
      21    -1     0     0   501   511  0.000000000E+00  0.000000000E+00 -9.629745105E+01  9.629745105E+01  0.000000000E+00  0.00000E+00  9.000E+00
      25     1     1     2     0     0 -1.276335085E+02 -3.616267056E+02  9.621951630E+02  1.043316212E+03  1.250000000E+02  0.00000E+00  9.000E+00
      25     1     1     2     0     0  7.181952511E+01  3.548217327E+02  9.812913245E+02  1.053382252E+03  1.250000000E+02  0.00000E+00  9.000E+00
      21     1     1     2   502   511  5.581398342E+01  6.804972873E+00  2.044659720E+01  5.982952229E+01  1.450243599E-06  0.00000E+00  9.000E+00
#rwgt            1           1   2.9232090582046105E-002           3      115433           0
</event>
<event>
      5   9999  3.19816E-02  2.09696E+02 -1.00000E+00  1.10905E-01
      21    -1     0     0   502   501  0.000000000E+00  0.000000000E+00  1.139553325E+03  1.139553325E+03  0.000000000E+00  0.00000E+00  9.000E+00
      21    -1     0     0   501   512  0.000000000E+00  0.000000000E+00 -4.668364986E+02  4.668364986E+02  0.000000000E+00  0.00000E+00  9.000E+00
      25     1     1     2     0     0 -3.240778654E+01 -1.357822967E+00  8.760594708E+02  8.855265691E+02  1.250000000E+02  0.00000E+00  9.000E+00
      25     1     1     2     0     0 -1.535525109E+02 -9.554976558E+01  1.798537700E+02  2.840431479E+02  1.250000000E+02  0.00000E+00  9.000E+00
      21     1     1     2   502   512  1.859602974E+02  9.690758854E+01 -3.831964147E+02  4.368201062E+02  7.629394531E-06  0.00000E+00  9.000E+00
#rwgt            2          11   1.3981515027112998E-002           3      115573           0
</event>
<event>
      5   9999  3.19816E-02  7.62834E+01 -1.00000E+00  1.29358E-01
      21    -1     0     0   502   511  0.000000000E+00  0.000000000E+00  2.132936226E+03  2.132936226E+03  0.000000000E+00  0.00000E+00  9.000E+00
      21    -1     0     0   501   502  0.000000000E+00  0.000000000E+00 -4.945839174E+02  4.945839174E+02  0.000000000E+00  0.00000E+00  9.000E+00
      25     1     1     2     0     0  7.140976912E+02 -1.799959888E+02  2.353456649E+02  7.831645106E+02  1.250000000E+02  0.00000E+00  9.000E+00
      25     1     1     2     0     0 -7.857742001E+02  2.061040383E+02  5.523156878E+02  9.902512747E+02  1.250000000E+02  0.00000E+00  9.000E+00
      21     1     1     2   501   511  7.167650883E+01 -2.610804945E+01  8.506909563E+02  8.541043585E+02  1.525878906E-05  0.00000E+00  9.000E+00
#rwgt            1           1   2.3130104165337336E-002           3      115608           0
</event>
<event>
      5   9999  3.19816E-02  2.49627E+01 -1.00000E+00  1.58799E-01
       2    -1     0     0   502     0  0.000000000E+00  0.000000000E+00  3.390038032E+03  3.390038032E+03  0.000000000E+00  0.00000E+00  9.000E+00
      21    -1     0     0   501   502  0.000000000E+00  0.000000000E+00 -1.437947435E+02  1.437947435E+02  0.000000000E+00  0.00000E+00  9.000E+00
      25     1     1     2     0     0 -2.888954173E+02  1.115146585E+01  2.874034162E+02  4.263925902E+02  1.250000000E+02  0.00000E+00  9.000E+00
      25     1     1     2     0     0  2.639552528E+02 -1.009071807E+01  2.133214692E+02  3.618083018E+02  1.250000000E+02  0.00000E+00  9.000E+00
       2     1     1     2   501     0  2.494016447E+01 -1.060747782E+00  2.745518404E+03  2.745631884E+03  0.000000000E+00  0.00000E+00  9.000E+00
#rwgt            1           1   3.1177206026014440E-002           3      115702           0
</event>
<event>
      5   9999  3.19816E-02  5.01622E+02 -1.00000E+00  9.88121E-02
      21    -1     0     0   502   501  0.000000000E+00  0.000000000E+00  1.796566809E+03  1.796566809E+03  0.000000000E+00  0.00000E+00  9.000E+00
      21    -1     0     0   511   502  0.000000000E+00  0.000000000E+00 -7.057891759E+02  7.057891759E+02  0.000000000E+00  0.00000E+00  9.000E+00
      25     1     1     2     0     0  1.639990900E+02  4.105241269E+02  8.977362317E+02  1.008454809E+03  1.250000000E+02  0.00000E+00  9.000E+00
      25     1     1     2     0     0 -2.640143964E+02 -9.020739419E+02 -2.123854747E+01  9.484287396E+02  1.250000000E+02  0.00000E+00  9.000E+00
      21     1     1     2   511   501  1.000153063E+02  4.915498150E+02  2.142799488E+02  5.454724361E+02  4.672030912E-06  0.00000E+00  9.000E+00
#rwgt            2          11   2.9280502436608300E-003           3      115942           0
</event>
<event>
      5   9999  3.19816E-02  1.14385E+02 -1.00000E+00  1.21258E-01
       2    -1     0     0   502     0  0.000000000E+00  0.000000000E+00  2.247679997E+03  2.247679997E+03  0.000000000E+00  0.00000E+00  9.000E+00
      21    -1     0     0   501   502  0.000000000E+00  0.000000000E+00 -8.225795730E+02  8.225795730E+02  0.000000000E+00  0.00000E+00  9.000E+00
      25     1     1     2     0     0  7.127886377E+01 -2.305650394E+02 -4.698403185E+02  5.427852602E+02  1.250000000E+02  0.00000E+00  9.000E+00
      25     1     1     2     0     0 -1.804554173E+02  1.964428675E+02 -2.458108236E+02  3.836690225E+02  1.250000000E+02  0.00000E+00  9.000E+00
       2     1     1     2   501     0  1.091765536E+02  3.412217198E+01  2.140751566E+03  2.143805288E+03  0.000000000E+00  0.00000E+00  9.000E+00
#rwgt            1           1   2.7880492317073544E-002           3      115962           0
</event>
<event>
      5   9999  3.19816E-02  3.62629E+01 -1.00000E+00  1.47532E-01
      21    -1     0     0   511   501  0.000000000E+00  0.000000000E+00  1.050321258E+03  1.050321258E+03  0.000000000E+00  0.00000E+00  9.000E+00
      21    -1     0     0   501   502  0.000000000E+00  0.000000000E+00 -4.018851922E+02  4.018851922E+02  0.000000000E+00  0.00000E+00  9.000E+00
      25     1     1     2     0     0 -4.712782256E+02  3.116776282E+01 -1.458455420E+02  5.098730405E+02  1.250000000E+02  0.00000E+00  9.000E+00
      25     1     1     2     0     0  4.407871485E+02 -5.079654237E+01  6.729313936E+02  8.156808564E+02  1.250000000E+02  0.00000E+00  9.000E+00
      21     1     1     2   511   502  3.049107711E+01  1.962877955E+01  1.213502141E+02  1.266525532E+02  1.907348633E-06  0.00000E+00  9.000E+00
#rwgt            1           1   3.0140319431530317E-002           3      116028           0
</event>
<event>
      5   9999  3.19816E-02  9.05403E+01 -1.00000E+00  1.25801E-01
      21    -1     0     0   502   501  0.000000000E+00  0.000000000E+00  9.658909020E+02  9.658909020E+02  0.000000000E+00  0.00000E+00  9.000E+00
       2    -1     0     0   501     0  0.000000000E+00  0.000000000E+00 -4.964040282E+02  4.964040282E+02  0.000000000E+00  0.00000E+00  9.000E+00
      25     1     1     2     0     0 -7.335118021E+01 -3.499219386E+02  4.266908175E+02  5.705399307E+02  1.250000000E+02  0.00000E+00  9.000E+00
      25     1     1     2     0     0  5.545317405E+01  2.611683396E+02  4.148013983E+02  5.088901219E+02  1.250000000E+02  0.00000E+00  9.000E+00
       2     1     1     2   502     0  1.789800616E+01  8.875359906E+01 -3.720053421E+02  3.828648776E+02  0.000000000E+00  0.00000E+00  9.000E+00
#rwgt            1           1   2.7929389359751491E-002           3      116151           0
</event>
<event>
      5   9999  3.19816E-02  5.36682E+01 -1.00000E+00  1.37344E-01
      21    -1     0     0   502   501  0.000000000E+00  0.000000000E+00  2.416001304E+02  2.416001304E+02  0.000000000E+00  0.00000E+00  9.000E+00
       2    -1     0     0   501     0  0.000000000E+00  0.000000000E+00 -7.673312353E+02  7.673312353E+02  0.000000000E+00  0.00000E+00  9.000E+00
      25     1     1     2     0     0 -5.241863255E+01 -3.436798717E+02 -3.599236805E+02  5.157844734E+02  1.250000000E+02  0.00000E+00  9.000E+00
      25     1     1     2     0     0  9.351759269E+01  3.781929163E+02 -1.593901625E+02  4.390963972E+02  1.250000000E+02  0.00000E+00  9.000E+00
       2     1     1     2   502     0 -4.109896014E+01 -3.451304464E+01 -6.417261903E+00  5.405049515E+01  8.429369702E-07  0.00000E+00  9.000E+00
#rwgt            1           1   3.3040855711936414E-002           3      116204           0
</event>
<event>
      5   9999  3.19816E-02  4.15987E+01 -1.00000E+00  1.43792E-01
      21    -1     0     0   511   501  0.000000000E+00  0.000000000E+00  2.797895902E+03  2.797895902E+03  0.000000000E+00  0.00000E+00  9.000E+00
      21    -1     0     0   501   502  0.000000000E+00  0.000000000E+00 -1.669155077E+03  1.669155077E+03  0.000000000E+00  0.00000E+00  9.000E+00
      25     1     1     2     0     0 -2.953999690E+01  1.868615295E+02  2.254519979E+03  2.265893903E+03  1.250000000E+02  0.00000E+00  9.000E+00
      25     1     1     2     0     0  2.848495568E+01 -2.284468895E+02 -1.652329256E+03  1.672966330E+03  1.250000000E+02  0.00000E+00  9.000E+00
      21     1     1     2   511   502  1.055041216E+00  4.158535998E+01  5.265501009E+02  5.281907459E+02  1.078959322E-05  0.00000E+00  9.000E+00
#rwgt            1           1   1.6675088777055643E-002           3      116290           0
</event>
<event>
      5   9999  3.19816E-02  3.04945E+01 -1.00000E+00  1.52548E-01
      21    -1     0     0   502   501  0.000000000E+00  0.000000000E+00  4.068063883E+02  4.068063883E+02  0.000000000E+00  0.00000E+00  9.000E+00
       2    -1     0     0   501     0  0.000000000E+00  0.000000000E+00 -2.245980465E+03  2.245980465E+03  0.000000000E+00  0.00000E+00  9.000E+00
      25     1     1     2     0     0  4.035473895E+02 -6.913026755E+01  2.599189794E+02  5.008117064E+02  1.250000000E+02  0.00000E+00  9.000E+00
      25     1     1     2     0     0 -3.966351734E+02  3.942947609E+01 -1.657446262E+03  1.709276822E+03  1.250000000E+02  0.00000E+00  9.000E+00
       2     1     1     2   502     0 -6.912216094E+00  2.970079145E+01 -4.416467945E+02  4.426983248E+02  0.000000000E+00  0.00000E+00  9.000E+00
#rwgt            1           1   3.8164091551223724E-002           3      116483           0
</event>
<event>
      5   9999  3.19816E-02  2.16135E+01 -1.00000E+00  1.63636E-01
      21    -1     0     0   502   511  0.000000000E+00  0.000000000E+00  8.362988868E+02  8.362988868E+02  0.000000000E+00  0.00000E+00  9.000E+00
      21    -1     0     0   501   502  0.000000000E+00  0.000000000E+00 -5.677021533E+02  5.677021533E+02  0.000000000E+00  0.00000E+00  9.000E+00
      25     1     1     2     0     0  5.085843096E+02  3.801836518E+02 -4.454833329E+01  6.486965108E+02  1.250000000E+02  0.00000E+00  9.000E+00
      25     1     1     2     0     0 -5.172367302E+02 -3.999896426E+02  3.043635881E+02  7.319752339E+02  1.250000000E+02  0.00000E+00  9.000E+00
      21     1     1     2   501   511  8.652420609E+00  1.980599080E+01  8.781478813E+00  2.332929541E+01  2.064765462E-07  0.00000E+00  9.000E+00
#rwgt            1           1   3.0817630853340144E-002           3      116646           0
</event>
<event>
      5   9999  3.19816E-02  7.94147E+01 -1.00000E+00  1.28504E-01
      21    -1     0     0   502   501  0.000000000E+00  0.000000000E+00  9.791449301E+02  9.791449301E+02  0.000000000E+00  0.00000E+00  9.000E+00
      21    -1     0     0   512   502  0.000000000E+00  0.000000000E+00 -4.967724431E+02  4.967724431E+02  0.000000000E+00  0.00000E+00  9.000E+00
      25     1     1     2     0     0 -6.284648402E+02 -6.356869411E+01  3.285749186E+02  7.229076783E+02  1.250000000E+02  0.00000E+00  9.000E+00
      25     1     1     2     0     0  5.838219908E+02 -2.110182975E+00  2.329435188E+02  6.408902034E+02  1.250000000E+02  0.00000E+00  9.000E+00
      21     1     1     2   512   501  4.464284939E+01  6.567887709E+01 -7.914595038E+01  1.121194914E+02  2.132480600E-06  0.00000E+00  9.000E+00
#rwgt            2          11   4.3156191177710860E-003           3      116867           0
</event>
<event>
      5   9999  3.19816E-02  7.55103E+01 -1.00000E+00  1.29575E-01
      21    -1     0     0   502   511  0.000000000E+00  0.000000000E+00  9.736357239E+02  9.736357239E+02  0.000000000E+00  0.00000E+00  9.000E+00
      21    -1     0     0   501   502  0.000000000E+00  0.000000000E+00 -8.512154553E+02  8.512154553E+02  0.000000000E+00  0.00000E+00  9.000E+00
      25     1     1     2     0     0  2.054354353E+02 -3.653826280E+02 -3.578770711E+02  5.651629685E+02  1.250000000E+02  0.00000E+00  9.000E+00
      25     1     1     2     0     0 -1.591971621E+02  3.056847810E+02 -3.012424111E+02  4.745091274E+02  1.250000000E+02  0.00000E+00  9.000E+00
      21     1     1     2   501   511 -4.623827327E+01  5.969784707E+01  7.815397507E+02  7.851790833E+02  1.078959322E-05  0.00000E+00  9.000E+00
#rwgt            1           1   2.7106943165093822E-002           3      116887           0
</event>
<event>
      5   9999  3.19816E-02  3.11165E+01 -1.00000E+00  1.51946E-01
      21    -1     0     0   512   501  0.000000000E+00  0.000000000E+00  1.508210993E+02  1.508210993E+02  0.000000000E+00  0.00000E+00  9.000E+00
      21    -1     0     0   501   502  0.000000000E+00  0.000000000E+00 -5.667775862E+02  5.667775862E+02  0.000000000E+00  0.00000E+00  9.000E+00
      25     1     1     2     0     0 -7.467754476E+01 -9.403757239E+01 -1.301009439E+02  2.167280700E+02  1.250000000E+02  0.00000E+00  9.000E+00
      25     1     1     2     0     0  1.054704464E+02  8.956180452E+01 -3.682648496E+02  4.127824262E+02  1.250000000E+02  0.00000E+00  9.000E+00
      21     1     1     2   512   502 -3.079290169E+01  4.475767867E+00  8.240930655E+01  8.808818932E+01  1.348699152E-06  0.00000E+00  9.000E+00
#rwgt            1           1   3.3022971252183085E-002           3      117023           0
</event>
<event>
      5   9999  3.19816E-02  5.34068E+01 -1.00000E+00  1.37462E-01
      21    -1     0     0   502   511  0.000000000E+00  0.000000000E+00  5.996607287E+01  5.996607287E+01  0.000000000E+00  0.00000E+00  9.000E+00
      21    -1     0     0   501   502  0.000000000E+00  0.000000000E+00 -3.704636613E+03  3.704636613E+03  0.000000000E+00  0.00000E+00  9.000E+00
      25     1     1     2     0     0  1.407721036E+02  1.738465081E+02 -8.029107675E+02  8.428108293E+02  1.250000000E+02  0.00000E+00  9.000E+00
      25     1     1     2     0     0 -8.817132850E+01 -1.646026151E+02 -2.857337447E+03  2.866159537E+03  1.250000000E+02  0.00000E+00  9.000E+00
      21     1     1     2   501   511 -5.260077508E+01 -9.243892985E+00  1.557767411E+01  5.563231999E+01  2.692124794E-06  0.00000E+00  9.000E+00
#rwgt            1           1   1.0894052097441738E-002           3      117149           0
</event>
<event>
      5   9999  3.19816E-02  3.38604E+01 -1.00000E+00  1.49476E-01
      21    -1     0     0   512   501  0.000000000E+00  0.000000000E+00  2.178632702E+02  2.178632702E+02  0.000000000E+00  0.00000E+00  9.000E+00
      21    -1     0     0   501   502  0.000000000E+00  0.000000000E+00 -2.899871643E+02  2.899871643E+02  0.000000000E+00  0.00000E+00  9.000E+00
      25     1     1     2     0     0 -8.446084066E+01 -1.236372424E+02  1.021179862E+02  2.201655841E+02  1.250000000E+02  0.00000E+00  9.000E+00
      25     1     1     2     0     0  1.018996442E+02  9.461286410E+01 -1.714941084E+02  2.537131466E+02  1.250000000E+02  0.00000E+00  9.000E+00
      21     1     1     2   512   502 -1.743880352E+01  2.902437835E+01 -2.747771933E+00  3.397170377E+01  5.422057330E-07  0.00000E+00  9.000E+00
#rwgt            1           1   2.8176571808662541E-002           3      117256           0
</event>
<event>
      5   9999  3.19816E-02  1.25615E+02 -1.00000E+00  1.19531E-01
      21    -1     0     0   502   501  0.000000000E+00  0.000000000E+00  1.623938579E+02  1.623938579E+02  0.000000000E+00  0.00000E+00  9.000E+00
      21    -1     0     0   511   502  0.000000000E+00  0.000000000E+00 -1.608809147E+03  1.608809147E+03  0.000000000E+00  0.00000E+00  9.000E+00
      25     1     1     2     0     0  1.022982148E+01  2.787521409E+02 -5.569222335E+02  6.352910982E+02  1.250000000E+02  0.00000E+00  9.000E+00
      25     1     1     2     0     0  7.491867711E+01 -3.711042169E+02 -2.212582326E+02  4.559729745E+02  1.250000000E+02  0.00000E+00  9.000E+00
      21     1     1     2   511   501 -8.514849859E+01  9.235207607E+01 -6.682348226E+02  6.799389317E+02  0.000000000E+00  0.00000E+00  9.000E+00
#rwgt            1           1   3.1402559697468801E-002           3      117429           0
</event>
<event>
      5   9999  3.19816E-02  2.29277E+01 -1.00000E+00  1.61618E-01
      21    -1     0     0   502   501  0.000000000E+00  0.000000000E+00  1.022008287E+03  1.022008287E+03  0.000000000E+00  0.00000E+00  9.000E+00
      21    -1     0     0   512   502  0.000000000E+00  0.000000000E+00 -1.422638951E+02  1.422638951E+02  0.000000000E+00  0.00000E+00  9.000E+00
      25     1     1     2     0     0 -1.621161867E+02 -2.699792194E+02  6.238255515E+02  7.098970035E+02  1.250000000E+02  0.00000E+00  9.000E+00
      25     1     1     2     0     0  1.539143518E+02  2.913897047E+02  2.423422749E+02  4.277293138E+02  1.250000000E+02  0.00000E+00  9.000E+00
      21     1     1     2   512   501  8.201834948E+00 -2.141048532E+01  1.357656561E+01  2.664586482E+01  3.371747881E-07  0.00000E+00  9.000E+00
#rwgt            1           1   3.6040477684478739E-002           3      117493           0
</event>
<event>
      5   9999  3.19816E-02  2.07543E+01 -1.00000E+00  1.65053E-01
      21    -1     0     0   502   501  0.000000000E+00  0.000000000E+00  8.667108968E+02  8.667108968E+02  0.000000000E+00  0.00000E+00  9.000E+00
      21    -1     0     0   501   511  0.000000000E+00  0.000000000E+00 -2.602409461E+02  2.602409461E+02  0.000000000E+00  0.00000E+00  9.000E+00
      25     1     1     2     0     0 -2.850810143E+02  2.401584162E+02  9.040380824E+01  4.034167797E+02  1.250000000E+02  0.00000E+00  9.000E+00
      25     1     1     2     0     0  3.020140894E+02 -2.281579142E+02  5.526899234E+02  6.814394290E+02  1.250000000E+02  0.00000E+00  9.000E+00
      21     1     1     2   502   511 -1.693307513E+01 -1.200050205E+01 -3.662378101E+01  4.209563420E+01  9.536743164E-07  0.00000E+00  9.000E+00
#rwgt            1           1   2.9205933365966913E-002           3      117650           0
</event>
<event>
      5   9999  3.19816E-02  8.17674E+01 -1.00000E+00  1.27892E-01
      21    -1     0     0   502   501  0.000000000E+00  0.000000000E+00  9.025303442E+02  9.025303442E+02  0.000000000E+00  0.00000E+00  9.000E+00
      21    -1     0     0   501   512  0.000000000E+00  0.000000000E+00 -8.815011063E+02  8.815011063E+02  0.000000000E+00  0.00000E+00  9.000E+00
      25     1     1     2     0     0 -8.900921791E+01  4.322975418E+02  3.832956302E+02  5.977828583E+02  1.250000000E+02  0.00000E+00  9.000E+00
      25     1     1     2     0     0  7.841272446E+01 -5.133753806E+02  2.348866395E+02  5.835234102E+02  1.250000000E+02  0.00000E+00  9.000E+00
      21     1     1     2   502   512  1.059649346E+01  8.107783884E+01 -5.971530318E+02  6.027251820E+02  1.321449896E-05  0.00000E+00  9.000E+00
#rwgt            1           1   2.9833489929606570E-002           3      117847           0
</event>
<event>
      5   9999  3.19816E-02  5.95203E+01 -1.00000E+00  1.34890E-01
      21    -1     0     0   502   501  0.000000000E+00  0.000000000E+00  9.012370566E+01  9.012370566E+01  0.000000000E+00  0.00000E+00  9.000E+00
       1    -1     0     0   501     0  0.000000000E+00  0.000000000E+00 -1.411425217E+03  1.411425217E+03  0.000000000E+00  0.00000E+00  9.000E+00
      25     1     1     2     0     0 -1.114768987E+02 -1.476667174E+02 -3.539445868E+02  4.184905362E+02  1.250000000E+02  0.00000E+00  9.000E+00
      25     1     1     2     0     0  1.608243842E+02  1.809456927E+02 -2.714075256E+02  3.845684220E+02  1.250000000E+02  0.00000E+00  9.000E+00
       1     1     1     2   502     0 -4.934748547E+01 -3.327897533E+01 -6.959493992E+02  6.984899647E+02  1.078959322E-05  0.00000E+00  9.000E+00
#rwgt            1           1   3.0938971074230298E-002           3      117953           0
</event>
<event>
      5   9999  3.19816E-02  1.68767E+01 -1.00000E+00  1.72693E-01
      21    -1     0     0   502   511  0.000000000E+00  0.000000000E+00  1.247739222E+03  1.247739222E+03  0.000000000E+00  0.00000E+00  9.000E+00
      21    -1     0     0   501   502  0.000000000E+00  0.000000000E+00 -8.287036282E+01  8.287036282E+01  0.000000000E+00  0.00000E+00  9.000E+00
      25     1     1     2     0     0  6.043819505E+01  5.630160620E+01  3.349745544E+01  1.535243492E+02  1.250000000E+02  0.00000E+00  9.000E+00
      25     1     1     2     0     0 -7.731407085E+01 -5.613925714E+01  2.489333526E+02  2.944858159E+02  1.250000000E+02  0.00000E+00  9.000E+00
      21     1     1     2   501   511  1.687587580E+01 -1.623490622E-01  8.824380510E+02  8.825994196E+02  1.078959322E-05  0.00000E+00  9.000E+00
#rwgt            1           1   2.9545102571335274E-002           3      118025           0
</event>
<event>
      5   9999  3.19816E-02  1.03996E+02 -1.00000E+00  1.23067E-01
      21    -1     0     0   502   501  0.000000000E+00  0.000000000E+00  8.504175927E+02  8.504175927E+02  0.000000000E+00  0.00000E+00  9.000E+00
      21    -1     0     0   512   502  0.000000000E+00  0.000000000E+00 -5.252988448E+02  5.252988448E+02  0.000000000E+00  0.00000E+00  9.000E+00
      25     1     1     2     0     0 -4.339165495E+01  2.077233756E+02 -2.932296057E+02  3.829365981E+02  1.250000000E+02  0.00000E+00  9.000E+00
      25     1     1     2     0     0  1.466411800E+02 -2.201628054E+02  7.615396957E+02  8.158081911E+02  1.250000000E+02  0.00000E+00  9.000E+00
      21     1     1     2   512   501 -1.032495250E+02  1.243942975E+01 -1.431913421E+02  1.769716482E+02  1.907348633E-06  0.00000E+00  9.000E+00
#rwgt            1           1   3.3743675162391851E-002           3      118191           0
</event>
<event>
      5   9999  3.19816E-02  3.48511E+01 -1.00000E+00  1.48652E-01
      21    -1     0     0   502   501  0.000000000E+00  0.000000000E+00  3.193775479E+02  3.193775479E+02  0.000000000E+00  0.00000E+00  9.000E+00
      21    -1     0     0   501   511  0.000000000E+00  0.000000000E+00 -3.229674937E+02  3.229674937E+02  0.000000000E+00  0.00000E+00  9.000E+00
      25     1     1     2     0     0  2.474893390E+02 -5.124782137E+00  7.490159427E+01  2.872498653E+02  1.250000000E+02  0.00000E+00  9.000E+00
      25     1     1     2     0     0 -2.792103580E+02  1.956010752E+01 -5.110169952E+01  3.107690549E+02  1.250000000E+02  0.00000E+00  9.000E+00
      21     1     1     2   502   511  3.172101898E+01 -1.443532538E+01 -2.738984057E+01  4.432612131E+01  4.768371582E-07  0.00000E+00  9.000E+00
#rwgt            1           1   2.8311358509074683E-002           3      118261           0
</event>
<event>
      5   9999  3.19816E-02  1.18499E+02 -1.00000E+00  1.20601E-01
      21    -1     0     0   502   501  0.000000000E+00  0.000000000E+00  6.929952370E+02  6.929952370E+02  0.000000000E+00  0.00000E+00  9.000E+00
      21    -1     0     0   512   502  0.000000000E+00  0.000000000E+00 -1.759490810E+02  1.759490810E+02  0.000000000E+00  0.00000E+00  9.000E+00
      25     1     1     2     0     0  1.739510965E+01  1.628780551E+02  4.050844977E+02  4.544780534E+02  1.250000000E+02  0.00000E+00  9.000E+00
      25     1     1     2     0     0  7.313624965E+01 -2.393379519E+02  6.644846944E+01  2.875273297E+02  1.250000000E+02  0.00000E+00  9.000E+00
      21     1     1     2   512   501 -9.053135930E+01  7.645989682E+01  4.551318884E+01  1.269389349E+02  6.743495762E-07  0.00000E+00  9.000E+00
#rwgt            1           1   2.4541873404478998E-002           3      118309           0
</event>
<event>
      5   9999  3.19816E-02  2.77049E+02 -1.00000E+00  1.06727E-01
      -1    -1     0     0     0   501  0.000000000E+00  0.000000000E+00  8.608595375E+02  8.608595375E+02  0.000000000E+00  0.00000E+00  9.000E+00
      21    -1     0     0   501   502  0.000000000E+00  0.000000000E+00 -2.661001162E+03  2.661001162E+03  0.000000000E+00  0.00000E+00  9.000E+00
      25     1     1     2     0     0 -1.163659391E+02  3.583206818E+02 -6.534046940E+02  7.645243206E+02  1.250000000E+02  0.00000E+00  9.000E+00
      25     1     1     2     0     0  3.872530306E+02 -3.002126920E+02 -1.894011989E+03  1.960356852E+03  1.250000000E+02  0.00000E+00  9.000E+00
      -1     1     1     2     0   502 -2.708870915E+02 -5.810798976E+01  7.472750583E+02  7.969795277E+02  1.078959322E-05  0.00000E+00  9.000E+00
#rwgt            1           1   8.1030151049305624E-002           3      118353           0
</event>
<event>
      5   9999  3.19816E-02  1.48037E+01 -1.00000E+00  1.77924E-01
      21    -1     0     0   502   501  0.000000000E+00  0.000000000E+00  1.537629829E+02  1.537629829E+02  0.000000000E+00  0.00000E+00  9.000E+00
      21    -1     0     0   501   511  0.000000000E+00  0.000000000E+00 -1.561207172E+02  1.561207172E+02  0.000000000E+00  0.00000E+00  9.000E+00
      25     1     1     2     0     0  3.985769020E+00 -4.575648771E+01 -5.923411799E+01  1.457505515E+02  1.250000000E+02  0.00000E+00  9.000E+00
      25     1     1     2     0     0  1.079307263E+01  4.489906593E+01  6.385583698E+01  1.477666554E+02  1.250000000E+02  0.00000E+00  9.000E+00
      21     1     1     2   502   511 -1.477884165E+01  8.574217764E-01 -6.979453281E+00  1.636649324E+01  1.192092896E-07  0.00000E+00  9.000E+00
#rwgt            1           1   3.1883763191806976E-002           3      118390           0
</event>
<event>
      5   9999  3.19816E-02  3.46010E+01 -1.00000E+00  1.48857E-01
       2    -1     0     0   502     0  0.000000000E+00  0.000000000E+00  1.206817632E+03  1.206817632E+03  0.000000000E+00  0.00000E+00  9.000E+00
      21    -1     0     0   501   502  0.000000000E+00  0.000000000E+00 -7.991956428E+01  7.991956428E+01  0.000000000E+00  0.00000E+00  9.000E+00
      25     1     1     2     0     0  1.272930640E+02 -2.453182070E+01  7.417465439E+01  1.947619411E+02  1.250000000E+02  0.00000E+00  9.000E+00
      25     1     1     2     0     0 -1.000470732E+02  3.203796001E+00  3.143331108E+02  3.527746954E+02  1.250000000E+02  0.00000E+00  9.000E+00
       2     1     1     2   501     0 -2.724599072E+01  2.132802470E+01  7.383903021E+02  7.392005593E+02  1.078959322E-05  0.00000E+00  9.000E+00
#rwgt            1           1   2.6512862625249174E-002           3      118552           0
</event>
<event>
      5   9999  3.19816E-02  4.71941E+02 -1.00000E+00  9.95698E-02
       1    -1     0     0   502     0  0.000000000E+00  0.000000000E+00  1.970811589E+03  1.970811589E+03  0.000000000E+00  0.00000E+00  9.000E+00
      21    -1     0     0   501   502  0.000000000E+00  0.000000000E+00 -1.875223822E+03  1.875223822E+03  0.000000000E+00  0.00000E+00  9.000E+00
      25     1     1     2     0     0  1.590163497E+03  6.165137685E+02 -7.772029660E+01  1.711833701E+03  1.250000000E+02  0.00000E+00  9.000E+00
      25     1     1     2     0     0 -1.367650201E+03 -2.003217891E+02 -3.481566529E+02  1.430885721E+03  1.250000000E+02  0.00000E+00  9.000E+00
       1     1     1     2   501     0 -2.225132968E+02 -4.161919794E+02  5.214647163E+02  7.033159896E+02  1.078959322E-05  0.00000E+00  9.000E+00
#rwgt            2          17   1.2456568422955668E-003           3      118738           0
</event>
<event>
      5   9999  3.19816E-02  1.18120E+02 -1.00000E+00  1.20660E-01
      21    -1     0     0   511   501  0.000000000E+00  0.000000000E+00  1.917102495E+02  1.917102495E+02  0.000000000E+00  0.00000E+00  9.000E+00
      21    -1     0     0   501   502  0.000000000E+00  0.000000000E+00 -9.516409448E+02  9.516409448E+02  0.000000000E+00  0.00000E+00  9.000E+00
      25     1     1     2     0     0  7.444671000E+01 -1.848737901E+01 -4.067480942E+02  4.323807442E+02  1.250000000E+02  0.00000E+00  9.000E+00
      25     1     1     2     0     0 -1.421351062E+02  1.152895306E+02 -4.854432191E+02  5.336423739E+02  1.250000000E+02  0.00000E+00  9.000E+00
      21     1     1     2   511   502  6.768839620E+01 -9.680215159E+01  1.322606180E+02  1.773280762E+02  2.697398305E-06  0.00000E+00  9.000E+00
#rwgt            1           1   3.7810945802117975E-002           3      118772           0
</event>
<event>
      5   9999  3.19816E-02  2.77674E+01 -1.00000E+00  1.55410E-01
      21    -1     0     0   502   501  0.000000000E+00  0.000000000E+00  5.810134344E+02  5.810134344E+02  0.000000000E+00  0.00000E+00  9.000E+00
      21    -1     0     0   512   502  0.000000000E+00  0.000000000E+00 -1.198614786E+03  1.198614786E+03  0.000000000E+00  0.00000E+00  9.000E+00
      25     1     1     2     0     0 -7.291539263E+02 -4.782271607E+01 -6.754111805E+02  1.002874729E+03  1.250000000E+02  0.00000E+00  9.000E+00
      25     1     1     2     0     0  7.288657451E+02  2.005680544E+01  7.582428719E+01  7.436544038E+02  1.250000000E+02  0.00000E+00  9.000E+00
      21     1     1     2   512   501  2.881811505E-01  2.776591063E+01 -1.801445796E+01  3.309908665E+01  5.331201500E-07  0.00000E+00  9.000E+00
#rwgt            1           1   3.4958389059083363E-002           3      118805           0
</event>
<event>
      5   9999  3.19816E-02  7.84800E+01 -1.00000E+00  1.28754E-01
      21    -1     0     0   502   501  0.000000000E+00  0.000000000E+00  2.627425605E+02  2.627425605E+02  0.000000000E+00  0.00000E+00  9.000E+00
      21    -1     0     0   511   502  0.000000000E+00  0.000000000E+00 -2.847135191E+02  2.847135191E+02  0.000000000E+00  0.00000E+00  9.000E+00
      25     1     1     2     0     0 -4.149963555E+01 -1.844249911E+02 -1.428871271E+01  2.270770011E+02  1.250000000E+02  0.00000E+00  9.000E+00
      25     1     1     2     0     0 -3.528919468E+01  2.006294295E+02  1.255228815E+01  2.393325201E+02  1.250000000E+02  0.00000E+00  9.000E+00
      21     1     1     2   511   501  7.678883023E+01 -1.620443834E+01 -2.023453410E+01  8.104655848E+01  9.536743164E-07  0.00000E+00  9.000E+00
#rwgt            1           1   2.5344910330240854E-002           3      118925           0
</event>
<event>
      5   9999  3.19816E-02  6.32475E+02 -1.00000E+00  9.60362E-02
      21    -1     0     0   502   512  0.000000000E+00  0.000000000E+00  2.742669145E+03  2.742669145E+03  0.000000000E+00  0.00000E+00  9.000E+00
      21    -1     0     0   501   502  0.000000000E+00  0.000000000E+00 -4.287139757E+02  4.287139757E+02  0.000000000E+00  0.00000E+00  9.000E+00
      25     1     1     2     0     0  4.039984499E+02 -1.229001274E+02  5.066676612E+02  6.713093979E+02  1.250000000E+02  0.00000E+00  9.000E+00
      25     1     1     2     0     0 -7.678689945E+01  6.641553349E+02  1.102941553E+02  6.890488644E+02  1.250000000E+02  0.00000E+00  9.000E+00
      21     1     1     2   501   512 -3.272115504E+02 -5.412552075E+02  1.696993352E+03  1.811024858E+03  2.157918644E-05  0.00000E+00  9.000E+00
#rwgt            2          11   4.9702597294373394E-004           3      119173           0
</event>
<event>
      5   9999  3.19816E-02  5.93183E+01 -1.00000E+00  1.34969E-01
      21    -1     0     0   502   501  0.000000000E+00  0.000000000E+00  2.182918249E+02  2.182918249E+02  0.000000000E+00  0.00000E+00  9.000E+00
      21    -1     0     0   511   502  0.000000000E+00  0.000000000E+00 -3.993633203E+02  3.993633203E+02  0.000000000E+00  0.00000E+00  9.000E+00
      25     1     1     2     0     0  9.964284107E+01 -9.115869111E+01 -1.363650161E+02  2.290393424E+02  1.250000000E+02  0.00000E+00  9.000E+00
      25     1     1     2     0     0 -1.384367256E+02  1.360328967E+02  8.498520864E+01  2.460023611E+02  1.250000000E+02  0.00000E+00  9.000E+00
      21     1     1     2   511   501  3.879388455E+01 -4.487420560E+01 -1.296916880E+02  1.426134417E+02  1.907348633E-06  0.00000E+00  9.000E+00
#rwgt            2          11   1.5246308972141044E-003           3      119238           0
</event>
<event>
      5   9999  3.19816E-02  6.73545E+01 -1.00000E+00  1.32074E-01
       3    -1     0     0   502     0  0.000000000E+00  0.000000000E+00  5.868615301E+02  5.868615301E+02  0.000000000E+00  0.00000E+00  9.000E+00
      21    -1     0     0   501   502  0.000000000E+00  0.000000000E+00 -2.511624252E+03  2.511624252E+03  0.000000000E+00  0.00000E+00  9.000E+00
      25     1     1     2     0     0 -3.401499327E+02 -7.147184504E+02 -1.356379767E+03  1.575409633E+03  1.250000000E+02  0.00000E+00  9.000E+00
      25     1     1     2     0     0  2.727961426E+02  7.150240026E+02 -8.981036041E+02  1.186546309E+03  1.250000000E+02  0.00000E+00  9.000E+00
       3     1     1     2   501     0  6.735379005E+01 -3.055522191E-01  3.297206494E+02  3.365298397E+02  8.529922400E-06  0.00000E+00  9.000E+00
#rwgt            1           1   2.2866689264103249E-002           3      119258           0
</event>
<event>
      5   9999  3.19816E-02  3.26942E+01 -1.00000E+00  1.50490E-01
      21    -1     0     0   502   501  0.000000000E+00  0.000000000E+00  5.592138881E+02  5.592138881E+02  0.000000000E+00  0.00000E+00  9.000E+00
      -3    -1     0     0     0   502  0.000000000E+00  0.000000000E+00 -3.974088469E+02  3.974088469E+02  0.000000000E+00  0.00000E+00  9.000E+00
      25     1     1     2     0     0  2.167825061E+02 -5.470778164E+01  3.958903553E+02  4.715313031E+02  1.250000000E+02  0.00000E+00  9.000E+00
      25     1     1     2     0     0 -2.472943009E+02  6.645267095E+01 -3.937548406E+01  2.876557969E+02  1.250000000E+02  0.00000E+00  9.000E+00
      -3     1     1     2     0   501  3.051179475E+01 -1.174488930E+01 -1.947098301E+02  1.974356350E+02  2.697398305E-06  0.00000E+00  9.000E+00
#rwgt            1           1   2.4871286449012969E-002           3      119380           0
</event>
<event>
      5   9999  3.19816E-02  2.05303E+01 -1.00000E+00  1.65437E-01
      21    -1     0     0   502   501  0.000000000E+00  0.000000000E+00  1.004173549E+03  1.004173549E+03  0.000000000E+00  0.00000E+00  9.000E+00
      21    -1     0     0   511   502  0.000000000E+00  0.000000000E+00 -1.587124396E+02  1.587124396E+02  0.000000000E+00  0.00000E+00  9.000E+00
      25     1     1     2     0     0  3.338874956E+02 -9.385887733E+01  4.696570102E+02  5.970703943E+02  1.250000000E+02  0.00000E+00  9.000E+00
      25     1     1     2     0     0 -3.518342178E+02  8.388856522E+01  3.854267108E+02  5.431421154E+02  1.250000000E+02  0.00000E+00  9.000E+00
      21     1     1     2   511   501  1.794672219E+01  9.970312111E+00 -9.622612039E+00  2.267347842E+01  4.460403188E-07  0.00000E+00  9.000E+00
#rwgt            1           1   3.0629880989480000E-002           3      119615           0
</event>
<event>
      5   9999  3.19816E-02  7.47358E+01 -1.00000E+00  1.29797E-01
      21    -1     0     0   512   501  0.000000000E+00  0.000000000E+00  8.145259908E+02  8.145259908E+02  0.000000000E+00  0.00000E+00  9.000E+00
      21    -1     0     0   501   502  0.000000000E+00  0.000000000E+00 -1.027587438E+02  1.027587438E+02  0.000000000E+00  0.00000E+00  9.000E+00
      25     1     1     2     0     0 -1.958972556E+02  4.321685706E+01  3.264788316E+02  4.030593740E+02  1.250000000E+02  0.00000E+00  9.000E+00
      25     1     1     2     0     0  2.237937991E+02  2.611728379E+01  2.464539768E+02  3.565534178E+02  1.250000000E+02  0.00000E+00  9.000E+00
      21     1     1     2   512   502 -2.789654350E+01 -6.933414085E+01  1.388344385E+02  1.576719428E+02  0.000000000E+00  0.00000E+00  9.000E+00
#rwgt            1           1   2.7917008503377666E-002           3      119769           0
</event>
<event>
      5   9999  3.19816E-02  6.86251E+01 -1.00000E+00  1.31658E-01
      21    -1     0     0   502   501  0.000000000E+00  0.000000000E+00  1.432830809E+02  1.432830809E+02  0.000000000E+00  0.00000E+00  9.000E+00
      21    -1     0     0   511   502  0.000000000E+00  0.000000000E+00 -1.603609963E+03  1.603609963E+03  0.000000000E+00  0.00000E+00  9.000E+00
      25     1     1     2     0     0 -2.983969173E+02  7.380888976E+01 -1.120676674E+03  1.168772724E+03  1.250000000E+02  0.00000E+00  9.000E+00
      25     1     1     2     0     0  2.733930322E+02 -1.377167379E+02 -1.262213758E+02  3.539300576E+02  1.250000000E+02  0.00000E+00  9.000E+00
      21     1     1     2   511   501  2.500388513E+01  6.390784818E+01 -2.134288322E+02  2.241902623E+02  2.697398305E-06  0.00000E+00  9.000E+00
#rwgt            1           1   3.2201344396174558E-002           3      119862           0
</event>
<event>
      5   9999  3.19816E-02  2.42059E+02 -1.00000E+00  1.08711E-01
      21    -1     0     0   502   501  0.000000000E+00  0.000000000E+00  1.499015385E+03  1.499015385E+03  0.000000000E+00  0.00000E+00  9.000E+00
      21    -1     0     0   501   512  0.000000000E+00  0.000000000E+00 -6.226711614E+02  6.226711614E+02  0.000000000E+00  0.00000E+00  9.000E+00
      25     1     1     2     0     0 -2.131222608E+02  2.871507561E+02  1.075888569E+03  1.140630470E+03  1.250000000E+02  0.00000E+00  9.000E+00
      25     1     1     2     0     0 -1.736197689E+01 -3.611080998E+02  2.594039077E+02  4.621859857E+02  1.250000000E+02  0.00000E+00  9.000E+00
      21     1     1     2   502   512  2.304842377E+02  7.395734368E+01 -4.589482532E+02  5.188700913E+02  5.394796609E-06  0.00000E+00  9.000E+00
#rwgt            2          11   7.1193697522587782E-003           3      119963           0
</event>
<event>
      5   9999  3.19816E-02  2.77270E+01 -1.00000E+00  1.55455E-01
      21    -1     0     0   502   501  0.000000000E+00  0.000000000E+00  7.399161358E+02  7.399161358E+02  0.000000000E+00  0.00000E+00  9.000E+00
      21    -1     0     0   511   502  0.000000000E+00  0.000000000E+00 -3.377856945E+02  3.377856945E+02  0.000000000E+00  0.00000E+00  9.000E+00
      25     1     1     2     0     0  1.239685364E+02 -2.223281775E+02 -1.821472140E+02  3.370469168E+02  1.250000000E+02  0.00000E+00  9.000E+00
      25     1     1     2     0     0 -1.099720705E+02  1.983932041E+02  6.333676435E+02  6.842757423E+02  1.250000000E+02  0.00000E+00  9.000E+00
      21     1     1     2   511   501 -1.399646595E+01  2.393497340E+01 -4.908998815E+01  5.637917122E+01  6.743495762E-07  0.00000E+00  9.000E+00
#rwgt            1           1   2.9256046734060525E-002           3      119998           0
</event>
<event>
      5   9999  3.19816E-02  1.02274E+02 -1.00000E+00  1.23390E-01
      21    -1     0     0   512   501  0.000000000E+00  0.000000000E+00  1.112862466E+02  1.112862466E+02  0.000000000E+00  0.00000E+00  9.000E+00
      21    -1     0     0   501   502  0.000000000E+00  0.000000000E+00 -9.654270635E+02  9.654270635E+02  0.000000000E+00  0.00000E+00  9.000E+00
      25     1     1     2     0     0  7.218109942E+01 -2.820084317E+02 -4.670701428E+02  5.643743306E+02  1.250000000E+02  0.00000E+00  9.000E+00
      25     1     1     2     0     0 -7.963939074E+01  1.800068498E+02 -2.605715355E+02  3.496675902E+02  1.250000000E+02  0.00000E+00  9.000E+00
      21     1     1     2   512   502  7.458291323E+00  1.020015819E+02 -1.264991386E+02  1.626713893E+02  4.046097457E-06  0.00000E+00  9.000E+00
#rwgt            1           1   3.5206927246106350E-002           3      120247           0
</event>
<event>
      5   9999  3.19816E-02  7.61833E+01 -1.00000E+00  1.29386E-01
      21    -1     0     0   511   501  0.000000000E+00  0.000000000E+00  3.781802729E+02  3.781802729E+02  0.000000000E+00  0.00000E+00  9.000E+00
      21    -1     0     0   501   502  0.000000000E+00  0.000000000E+00 -3.972956757E+02  3.972956757E+02  0.000000000E+00  0.00000E+00  9.000E+00
      25     1     1     2     0     0  1.647598451E+02  2.344673343E+02  1.638007707E+02  3.529538637E+02  1.250000000E+02  0.00000E+00  9.000E+00
      25     1     1     2     0     0 -2.055732503E+02 -1.701387792E+02 -1.819723344E+02  3.463329264E+02  1.250000000E+02  0.00000E+00  9.000E+00
      21     1     1     2   511   502  4.081340516E+01 -6.432855506E+01 -9.438390953E-01  7.618915847E+01  1.704213435E-06  0.00000E+00  9.000E+00
#rwgt            1           1   2.9661439807057807E-002           3      120356           0
</event>
<event>
      5   9999  3.19816E-02  2.69675E+01 -1.00000E+00  1.56325E-01
      21    -1     0     0   502   512  0.000000000E+00  0.000000000E+00  1.205808283E+03  1.205808283E+03  0.000000000E+00  0.00000E+00  9.000E+00
      21    -1     0     0   501   502  0.000000000E+00  0.000000000E+00 -1.249663993E+03  1.249663993E+03  0.000000000E+00  0.00000E+00  9.000E+00
      25     1     1     2     0     0 -1.116487863E+03 -2.358846726E+02 -4.221222991E+02  1.223110364E+03  1.250000000E+02  0.00000E+00  9.000E+00
      25     1     1     2     0     0  1.097588613E+03  2.166475724E+02  3.234542654E+02  1.171274774E+03  1.250000000E+02  0.00000E+00  9.000E+00
      21     1     1     2   501   512  1.889924979E+01  1.923710019E+01  5.481232306E+01  6.108713797E+01  0.000000000E+00  0.00000E+00  9.000E+00
#rwgt            1           1   7.1422251768712877E-002           3      120446           0
</event>
<event>
      5   9999  3.19816E-02  2.84148E+01 -1.00000E+00  1.54696E-01
      21    -1     0     0   502   511  0.000000000E+00  0.000000000E+00  2.008108436E+02  2.008108436E+02  0.000000000E+00  0.00000E+00  9.000E+00
      21    -1     0     0   501   502  0.000000000E+00  0.000000000E+00 -9.572309653E+02  9.572309653E+02  0.000000000E+00  0.00000E+00  9.000E+00
      25     1     1     2     0     0  1.572797867E+02 -2.301891596E+02  1.015545443E+01  3.056993847E+02  1.250000000E+02  0.00000E+00  9.000E+00
      25     1     1     2     0     0 -1.728626479E+02  2.064284193E+02 -7.685231086E+02  8.238610051E+02  1.250000000E+02  0.00000E+00  9.000E+00
      21     1     1     2   501   511  1.558286121E+01  2.376074038E+01  1.947532460E+00  2.848141902E+01  6.329047853E-07  0.00000E+00  9.000E+00
#rwgt            1           1   2.9667704662352013E-002           3      120673           0
</event>
<event>
      5   9999  3.19816E-02  5.92799E+01 -1.00000E+00  1.34984E-01
      21    -1     0     0   502   512  0.000000000E+00  0.000000000E+00  8.225128729E+01  8.225128729E+01  0.000000000E+00  0.00000E+00  9.000E+00
      21    -1     0     0   501   502  0.000000000E+00  0.000000000E+00 -5.117256374E+02  5.117256374E+02  0.000000000E+00  0.00000E+00  9.000E+00
      25     1     1     2     0     0  5.190295452E+01  3.041601870E+01 -7.044778133E+01  1.555857988E+02  1.250000000E+02  0.00000E+00  9.000E+00
      25     1     1     2     0     0 -1.094575074E+02 -1.621798236E+01 -3.352607111E+02  3.745246497E+02  1.250000000E+02  0.00000E+00  9.000E+00
      21     1     1     2   501   512  5.755455285E+01 -1.419803634E+01 -2.376585771E+01  6.386647620E+01  1.261592536E-06  0.00000E+00  9.000E+00
#rwgt            1           1   2.7525756034524201E-002           3      120889           0
</event>
<event>
      5   9999  3.19816E-02  1.18020E+02 -1.00000E+00  1.20676E-01
      21    -1     0     0   502   511  0.000000000E+00  0.000000000E+00  4.936614372E+02  4.936614372E+02  0.000000000E+00  0.00000E+00  9.000E+00
      21    -1     0     0   501   502  0.000000000E+00  0.000000000E+00 -7.435569944E+02  7.435569944E+02  0.000000000E+00  0.00000E+00  9.000E+00
      25     1     1     2     0     0 -2.814710782E+02  6.637889189E+01 -5.389065281E+02  6.242414366E+02  1.250000000E+02  0.00000E+00  9.000E+00
      25     1     1     2     0     0  3.863578500E+02 -1.227205912E+01  2.824025402E+02  4.947718529E+02  1.250000000E+02  0.00000E+00  9.000E+00
      21     1     1     2   501   511 -1.048867718E+02 -5.410683277E+01  6.608430693E+00  1.182051421E+02  1.327458468E-06  0.00000E+00  9.000E+00
#rwgt            2          11   5.9670630703273211E-003           3      120963           0
</event>
<event>
      5   9999  3.19816E-02  4.30137E+01 -1.00000E+00  1.42910E-01
      21    -1     0     0   502   501  0.000000000E+00  0.000000000E+00  1.630241544E+02  1.630241544E+02  0.000000000E+00  0.00000E+00  9.000E+00
      21    -1     0     0   501   512  0.000000000E+00  0.000000000E+00 -4.367048728E+02  4.367048728E+02  0.000000000E+00  0.00000E+00  9.000E+00
      25     1     1     2     0     0  6.008761021E+00  5.142666523E+00  1.134977983E+02  1.690245616E+02  1.250000000E+02  0.00000E+00  9.000E+00
      25     1     1     2     0     0 -3.710527141E+01  2.457577096E+01 -2.102138496E+02  2.485872729E+02  1.250000000E+02  0.00000E+00  9.000E+00
      21     1     1     2   502   512  3.109651039E+01 -2.971843748E+01 -1.769646670E+02  1.821171926E+02  3.303624740E-06  0.00000E+00  9.000E+00
#rwgt            1           1   2.6263717995364672E-002           3      120983           0
</event>
<event>
      5   9999  3.19816E-02  6.72207E+00 -1.00000E+00  2.18071E-01
      21    -1     0     0   502   501  0.000000000E+00  0.000000000E+00  1.769834197E+03  1.769834197E+03  0.000000000E+00  0.00000E+00  9.000E+00
      21    -1     0     0   511   502  0.000000000E+00  0.000000000E+00 -3.574477288E+01  3.574477288E+01  0.000000000E+00  0.00000E+00  9.000E+00
      25     1     1     2     0     0 -1.178996281E+02  6.201310645E+01  1.451188313E+03  1.462640922E+03  1.250000000E+02  0.00000E+00  9.000E+00
      25     1     1     2     0     0  1.240561793E+02 -5.931439072E+01  2.788244206E+02  3.350763944E+02  1.250000000E+02  0.00000E+00  9.000E+00
      21     1     1     2   511   501 -6.156551276E+00 -2.698715736E+00  4.076691157E+00  7.861653835E+00  5.960464478E-08  0.00000E+00  9.000E+00
#rwgt            1           1   3.7252032108886557E-002           3      121101           0
</event>
<event>
      5   9999  3.19816E-02  8.82397E+01 -1.00000E+00  1.26322E-01
      21    -1     0     0   502   501  0.000000000E+00  0.000000000E+00  3.749338204E+02  3.749338204E+02  0.000000000E+00  0.00000E+00  9.000E+00
      21    -1     0     0   501   512  0.000000000E+00  0.000000000E+00 -2.219043859E+02  2.219043859E+02  0.000000000E+00  0.00000E+00  9.000E+00
      25     1     1     2     0     0 -1.197056180E+02  1.074669430E+01 -1.049594519E+02  2.026978366E+02  1.250000000E+02  0.00000E+00  9.000E+00
      25     1     1     2     0     0  7.341281973E+01 -8.586807503E+01  2.552680841E+02  3.058587307E+02  1.250000000E+02  0.00000E+00  9.000E+00
      21     1     1     2   502   512  4.629279828E+01  7.512138073E+01  2.720802171E+00  8.828163897E+01  1.343089859E-06  0.00000E+00  9.000E+00
#rwgt            1           1   2.7446520061747113E-002           3      121326           0
</event>
<event>
      5   9999  3.19816E-02  2.31733E+01 -1.00000E+00  1.61259E-01
      21    -1     0     0   502   511  0.000000000E+00  0.000000000E+00  3.029095693E+02  3.029095693E+02  0.000000000E+00  0.00000E+00  9.000E+00
      21    -1     0     0   501   502  0.000000000E+00  0.000000000E+00 -2.665774918E+02  2.665774918E+02  0.000000000E+00  0.00000E+00  9.000E+00
      25     1     1     2     0     0 -1.843061750E+02  2.809277241E+01  7.388286161E+01  2.363083732E+02  1.250000000E+02  0.00000E+00  9.000E+00
      25     1     1     2     0     0  1.795642704E+02 -5.077572043E+01 -1.150034296E+02  2.523336874E+02  1.250000000E+02  0.00000E+00  9.000E+00
      21     1     1     2   501   511  4.741904618E+00  2.268294802E+01  7.745264554E+01  8.084500041E+01  1.348699152E-06  0.00000E+00  9.000E+00
#rwgt            1           1   2.9826332839643567E-002           3      121411           0
</event>
<event>
      5   9999  3.19816E-02  5.45977E+01 -1.00000E+00  1.36930E-01
      21    -1     0     0   502   501  0.000000000E+00  0.000000000E+00  1.137749149E+03  1.137749149E+03  0.000000000E+00  0.00000E+00  9.000E+00
      21    -1     0     0   501   512  0.000000000E+00  0.000000000E+00 -5.716247739E+02  5.716247739E+02  0.000000000E+00  0.00000E+00  9.000E+00
      25     1     1     2     0     0  1.748540492E+02 -5.406112429E+02 -9.633219391E+01  5.896942818E+02  1.250000000E+02  0.00000E+00  9.000E+00
      25     1     1     2     0     0 -1.536185764E+02  5.909099730E+02  7.750568525E+02  9.945407924E+02  1.250000000E+02  0.00000E+00  9.000E+00
      21     1     1     2   502   512 -2.123547274E+01 -5.029873012E+01 -1.126002836E+02  1.251388486E+02  1.348699152E-06  0.00000E+00  9.000E+00
#rwgt            1           1   3.3082580590664705E-002           3      121587           0
</event>
<event>
      5   9999  3.19816E-02  4.65438E+01 -1.00000E+00  1.40874E-01
      21    -1     0     0   502   501  0.000000000E+00  0.000000000E+00  9.191719331E+02  9.191719331E+02  0.000000000E+00  0.00000E+00  9.000E+00
      21    -1     0     0   511   502  0.000000000E+00  0.000000000E+00 -2.285186478E+02  2.285186478E+02  0.000000000E+00  0.00000E+00  9.000E+00
      25     1     1     2     0     0  3.139376228E+02 -1.147618791E+02  4.696184851E+01  3.599410161E+02  1.250000000E+02  0.00000E+00  9.000E+00
      25     1     1     2     0     0 -3.556642973E+02  1.353825226E+02  6.120278595E+02  7.314565063E+02  1.250000000E+02  0.00000E+00  9.000E+00
      21     1     1     2   511   501  4.172667450E+01 -2.062064351E+01  3.166357731E+01  5.629305847E+01  7.539457465E-07  0.00000E+00  9.000E+00
#rwgt            1           1   2.7000402773615272E-002           3      121815           0
</event>
<event>
      5   9999  3.19816E-02  2.04991E+02 -1.00000E+00  1.11260E-01
      21    -1     0     0   502   501  0.000000000E+00  0.000000000E+00  2.037909149E+02  2.037909149E+02  0.000000000E+00  0.00000E+00  9.000E+00
       2    -1     0     0   501     0  0.000000000E+00  0.000000000E+00 -2.763932099E+03  2.763932099E+03  0.000000000E+00  0.00000E+00  9.000E+00
      25     1     1     2     0     0  3.794679534E+02  1.751874647E+02 -2.154110358E+02  4.865321056E+02  1.250000000E+02  0.00000E+00  9.000E+00
      25     1     1     2     0     0 -4.294758295E+02  2.360973194E+01 -7.517625999E+02  8.750879465E+02  1.250000000E+02  0.00000E+00  9.000E+00
       2     1     1     2   502     0  5.000787607E+01 -1.987971967E+02 -1.592967548E+03  1.606102961E+03  3.051757812E-05  0.00000E+00  9.000E+00
#rwgt            1           1   3.1881006249373879E-002           3      121933           0
</event>
<event>
      5   9999  3.19816E-02  5.37662E+01 -1.00000E+00  1.37300E-01
      21    -1     0     0   502   511  0.000000000E+00  0.000000000E+00  4.800229673E+02  4.800229673E+02  0.000000000E+00  0.00000E+00  9.000E+00
      21    -1     0     0   501   502  0.000000000E+00  0.000000000E+00 -2.974875652E+02  2.974875652E+02  0.000000000E+00  0.00000E+00  9.000E+00
      25     1     1     2     0     0 -2.242593628E+02  1.263005363E+02 -1.489358124E+02  3.225693158E+02  1.250000000E+02  0.00000E+00  9.000E+00
      25     1     1     2     0     0  1.707823104E+02 -1.318693734E+02  2.259118403E+02  3.364777686E+02  1.250000000E+02  0.00000E+00  9.000E+00
      21     1     1     2   501   511  5.347705242E+01  5.568837083E+00  1.055593741E+02  1.184634482E+02  1.907348633E-06  0.00000E+00  9.000E+00
#rwgt            1           1   2.9684581249526436E-002           3      121970           0
</event>
<event>
      5   9999  3.19816E-02  4.86723E+01 -1.00000E+00  1.39746E-01
      21    -1     0     0   512   501  0.000000000E+00  0.000000000E+00  2.675493659E+02  2.675493659E+02  0.000000000E+00  0.00000E+00  9.000E+00
      21    -1     0     0   501   502  0.000000000E+00  0.000000000E+00 -1.006377217E+03  1.006377217E+03  0.000000000E+00  0.00000E+00  9.000E+00
      25     1     1     2     0     0 -4.162458603E+02 -1.523097772E+02 -1.606317434E+02  4.877360366E+02  1.250000000E+02  0.00000E+00  9.000E+00
      25     1     1     2     0     0  3.703844248E+02  1.686107665E+02 -5.976501176E+02  7.337744039E+02  1.250000000E+02  0.00000E+00  9.000E+00
      21     1     1     2   512   502  4.586143548E+01 -1.630098937E+01  1.945400953E+01  5.241614260E+01  9.233911863E-07  0.00000E+00  9.000E+00
#rwgt            1           1   3.0734938316621593E-002           3      122052           0
</event>
<event>
      5   9999  3.19816E-02  6.86523E+00 -1.00000E+00  2.16754E-01
      21    -1     0     0   511   501  0.000000000E+00  0.000000000E+00  1.413220607E+02  1.413220607E+02  0.000000000E+00  0.00000E+00  9.000E+00
      21    -1     0     0   501   502  0.000000000E+00  0.000000000E+00 -1.312600042E+03  1.312600042E+03  0.000000000E+00  0.00000E+00  9.000E+00
      25     1     1     2     0     0  5.766781499E+01  2.989814078E+02 -9.046666538E+02  9.626848984E+02  1.250000000E+02  0.00000E+00  9.000E+00
      25     1     1     2     0     0 -6.264483951E+01 -3.037101110E+02 -3.048042700E+02  4.524321502E+02  1.250000000E+02  0.00000E+00  9.000E+00
      21     1     1     2   511   502  4.977024519E+00  4.728703214E+00  3.819294227E+01  3.880505439E+01  6.743495762E-07  0.00000E+00  9.000E+00
#rwgt            1           1   2.7143421150404957E-002           3      122153           0
</event>
<event>
      5   9999  3.19816E-02  6.48852E+02 -1.00000E+00  9.57397E-02
       2    -1     0     0   502     0  0.000000000E+00  0.000000000E+00  1.287494999E+03  1.287494999E+03  0.000000000E+00  0.00000E+00  9.000E+00
      21    -1     0     0   501   502  0.000000000E+00  0.000000000E+00 -8.246567163E+02  8.246567163E+02  0.000000000E+00  0.00000E+00  9.000E+00
      25     1     1     2     0     0 -7.848007150E+01 -2.663738856E+02 -3.998596546E+02  5.026200473E+02  1.250000000E+02  0.00000E+00  9.000E+00
      25     1     1     2     0     0 -3.176399611E+02 -2.475311532E+02  8.631989463E+02  9.606790502E+02  1.250000000E+02  0.00000E+00  9.000E+00
       2     1     1     2   501     0  3.961200326E+02  5.139050388E+02 -5.010086562E-01  6.488526182E+02  6.933689000E-06  0.00000E+00  9.000E+00
#rwgt            2          18   3.9081853755036557E-004           3      122538           0
</event>
<event>
      5   9999  3.19816E-02  1.20765E+02 -1.00000E+00  1.20251E-01
      21    -1     0     0   511   501  0.000000000E+00  0.000000000E+00  6.943272576E+02  6.943272576E+02  0.000000000E+00  0.00000E+00  9.000E+00
      21    -1     0     0   501   502  0.000000000E+00  0.000000000E+00 -2.764846328E+02  2.764846328E+02  0.000000000E+00  0.00000E+00  9.000E+00
      25     1     1     2     0     0 -2.337843297E+02 -2.930529459E+01  2.261066582E+02  3.496614563E+02  1.250000000E+02  0.00000E+00  9.000E+00
      25     1     1     2     0     0  2.978894023E+02 -7.304077774E+01 -6.491312298E+01  3.375081699E+02  1.250000000E+02  0.00000E+00  9.000E+00
      21     1     1     2   511   502 -6.410507251E+01  1.023460723E+02  2.566490896E+02  2.836422642E+02  3.814697266E-06  0.00000E+00  9.000E+00
#rwgt            1           1   2.8520523428674525E-002           3      122572           0
</event>
<event>
      5   9999  3.19816E-02  3.94255E+01 -1.00000E+00  1.45231E-01
      21    -1     0     0   502   501  0.000000000E+00  0.000000000E+00  7.188167724E+02  7.188167724E+02  0.000000000E+00  0.00000E+00  9.000E+00
      21    -1     0     0   501   512  0.000000000E+00  0.000000000E+00 -6.982280052E+02  6.982280052E+02  0.000000000E+00  0.00000E+00  9.000E+00
      25     1     1     2     0     0 -1.704103806E+02  4.599224104E+02 -3.656082346E+02  6.243898643E+02  1.250000000E+02  0.00000E+00  9.000E+00
      25     1     1     2     0     0  1.853556321E+02 -4.964054088E+02  4.575314187E+02  7.111505040E+02  1.250000000E+02  0.00000E+00  9.000E+00
      21     1     1     2   502   512 -1.494525146E+01  3.648299840E+01 -7.133441689E+01  8.150440937E+01  1.651812370E-06  0.00000E+00  9.000E+00
#rwgt            1           1   2.7148733992803792E-002           3      122725           0
</event>
<event>
      5   9999  3.19816E-02  7.81202E+00 -1.00000E+00  2.09030E-01
      21    -1     0     0   502   511  0.000000000E+00  0.000000000E+00  5.893969110E+02  5.893969110E+02  0.000000000E+00  0.00000E+00  9.000E+00
      21    -1     0     0   501   502  0.000000000E+00  0.000000000E+00 -1.241183064E+02  1.241183064E+02  0.000000000E+00  0.00000E+00  9.000E+00
      25     1     1     2     0     0 -1.647818615E+01  6.696644852E+01 -3.401909605E+01  1.467594452E+02  1.250000000E+02  0.00000E+00  9.000E+00
      25     1     1     2     0     0  2.213812858E+01 -6.158195999E+01  1.140381256E+02  1.814170020E+02  1.250000000E+02  0.00000E+00  9.000E+00
      21     1     1     2   501   511 -5.659942430E+00 -5.384488530E+00  3.852595751E+02  3.853387703E+02  7.629394531E-06  0.00000E+00  9.000E+00
#rwgt            1           1   7.1783754182489001E-002           3      122856           0
</event>
<event>
      5   9999  3.19816E-02  1.58869E+02 -1.00000E+00  1.15413E-01
      21    -1     0     0   512   501  0.000000000E+00  0.000000000E+00  6.267804109E+02  6.267804109E+02  0.000000000E+00  0.00000E+00  9.000E+00
      21    -1     0     0   501   502  0.000000000E+00  0.000000000E+00 -2.834164027E+02  2.834164027E+02  0.000000000E+00  0.00000E+00  9.000E+00
      25     1     1     2     0     0 -9.422572822E+01 -1.452748238E+02 -1.616982439E+02  2.678704619E+02  1.250000000E+02  0.00000E+00  9.000E+00
      25     1     1     2     0     0  1.162920588E+02 -1.205453734E+01  4.373147520E+02  4.696151053E+02  1.250000000E+02  0.00000E+00  9.000E+00
      21     1     1     2   512   502 -2.206633061E+01  1.573293612E+02  6.774750008E+01  1.727112463E+02  2.132480600E-06  0.00000E+00  9.000E+00
#rwgt            1           1   2.8490072480702976E-002           3      123105           0
</event>
<event>
      5   9999  3.19816E-02  9.08162E+01 -1.00000E+00  1.25739E-01
      21    -1     0     0   511   501  0.000000000E+00  0.000000000E+00  7.122260058E+01  7.122260058E+01  0.000000000E+00  0.00000E+00  9.000E+00
      21    -1     0     0   501   502  0.000000000E+00  0.000000000E+00 -3.488971975E+03  3.488971975E+03  0.000000000E+00  0.00000E+00  9.000E+00
      25     1     1     2     0     0 -9.537838012E+01  3.004869967E+02 -2.927397669E+03  2.946976685E+03  1.250000000E+02  0.00000E+00  9.000E+00
      25     1     1     2     0     0  3.816371092E+01 -2.299599316E+02 -4.277189496E+02  5.028981396E+02  1.250000000E+02  0.00000E+00  9.000E+00
      21     1     1     2   511   502  5.721466920E+01 -7.052706509E+01 -6.263275546E+01  1.103197504E+02  3.303624740E-06  0.00000E+00  9.000E+00
#rwgt            2          11   2.4714013568369066E-003           3      123332           0
</event>
<event>
      5   9999  3.19816E-02  1.28100E+02 -1.00000E+00  1.19176E-01
      21    -1     0     0   502   501  0.000000000E+00  0.000000000E+00  2.777169750E+02  2.777169750E+02  0.000000000E+00  0.00000E+00  9.000E+00
      21    -1     0     0   512   502  0.000000000E+00  0.000000000E+00 -7.118893154E+02  7.118893154E+02  0.000000000E+00  0.00000E+00  9.000E+00
      25     1     1     2     0     0  2.841205822E+02 -1.151833261E+02 -1.938029495E+02  3.836356175E+02  1.250000000E+02  0.00000E+00  9.000E+00
      25     1     1     2     0     0 -3.332075821E+02  2.335054832E+02 -1.598972828E+02  4.546913728E+02  1.250000000E+02  0.00000E+00  9.000E+00
      21     1     1     2   512   501  4.908699996E+01 -1.183221571E+02 -8.047210821E+01  1.512793001E+02  1.907348633E-06  0.00000E+00  9.000E+00
#rwgt            1           1   3.1745609652942965E-002           3      123382           0
</event>
<event>
      5   9999  3.19816E-02  1.59159E+02 -1.00000E+00  1.15383E-01
      21    -1     0     0   502   501  0.000000000E+00  0.000000000E+00  4.308836772E+02  4.308836772E+02  0.000000000E+00  0.00000E+00  9.000E+00
       2    -1     0     0   501     0  0.000000000E+00  0.000000000E+00 -1.500416382E+03  1.500416382E+03  0.000000000E+00  0.00000E+00  9.000E+00
      25     1     1     2     0     0 -1.383145281E+02  1.649435050E+02  7.782356771E+01  2.608040955E+02  1.250000000E+02  0.00000E+00  9.000E+00
      25     1     1     2     0     0 -2.017178426E+01 -1.503248535E+02  2.193674653E+02  2.945361562E+02  1.250000000E+02  0.00000E+00  9.000E+00
       2     1     1     2   502     0  1.584863124E+02 -1.461865151E+01 -1.366723738E+03  1.375959807E+03  2.642899792E-05  0.00000E+00  9.000E+00
#rwgt            1           1   2.3834487401634501E-002           3      123426           0
</event>
<event>
      5   9999  3.19816E-02  1.13474E+01 -1.00000E+00  1.89618E-01
      21    -1     0     0   502   501  0.000000000E+00  0.000000000E+00  2.755109194E+02  2.755109194E+02  0.000000000E+00  0.00000E+00  9.000E+00
      21    -1     0     0   511   502  0.000000000E+00  0.000000000E+00 -4.131397010E+02  4.131397010E+02  0.000000000E+00  0.00000E+00  9.000E+00
      25     1     1     2     0     0  1.173789113E+02  2.553725511E+02 -5.163861877E+01  3.119046258E+02  1.250000000E+02  0.00000E+00  9.000E+00
      25     1     1     2     0     0 -1.160704136E+02 -2.666442978E+02 -2.813246219E+01  3.177860253E+02  1.250000000E+02  0.00000E+00  9.000E+00
      21     1     1     2   511   501 -1.308497680E+00  1.127174674E+01 -5.785770066E+01  5.895996919E+01  6.743495762E-07  0.00000E+00  9.000E+00
#rwgt            1           1   2.7486707385955156E-002           3      123541           0
</event>
<event>
      5   9999  3.19816E-02  2.51767E+02 -1.00000E+00  1.08126E-01
      21    -1     0     0   502   512  0.000000000E+00  0.000000000E+00  1.249866798E+03  1.249866798E+03  0.000000000E+00  0.00000E+00  9.000E+00
      21    -1     0     0   501   502  0.000000000E+00  0.000000000E+00 -8.459087678E+02  8.459087678E+02  0.000000000E+00  0.00000E+00  9.000E+00
      25     1     1     2     0     0 -6.231329223E+02  4.420179338E+02 -4.838063460E+02  9.128899567E+02  1.250000000E+02  0.00000E+00  9.000E+00
      25     1     1     2     0     0  4.022021159E+02 -3.212855826E+02  6.149356539E+02  8.116414394E+02  1.250000000E+02  0.00000E+00  9.000E+00
      21     1     1     2   501   512  2.209308064E+02 -1.207323512E+02  2.728287222E+02  3.712441696E+02  5.394796609E-06  0.00000E+00  9.000E+00
#rwgt            1           1   3.7758230134137101E-002           3      123740           0
</event>
<event>
      5   9999  3.19816E-02  1.58301E+02 -1.00000E+00  1.15474E-01
      21    -1     0     0   511   501  0.000000000E+00  0.000000000E+00  1.703823044E+03  1.703823044E+03  0.000000000E+00  0.00000E+00  9.000E+00
      21    -1     0     0   501   502  0.000000000E+00  0.000000000E+00 -4.240596708E+02  4.240596708E+02  0.000000000E+00  0.00000E+00  9.000E+00
      25     1     1     2     0     0  8.919440245E+01  2.893193005E+02  1.034519566E+03  1.085134568E+03  1.250000000E+02  0.00000E+00  9.000E+00
      25     1     1     2     0     0  3.944993364E+01 -3.815681079E+02 -2.820087591E+02  4.922443077E+02  1.250000000E+02  0.00000E+00  9.000E+00
      21     1     1     2   511   502 -1.286443361E+02  9.224880741E+01  5.272525665E+02  5.505038388E+02  0.000000000E+00  0.00000E+00  9.000E+00
#rwgt            1           1   2.6825613842604203E-002           3      123842           0
</event>
<event>
      5   9999  3.19816E-02  4.24584E+01 -1.00000E+00  1.43252E-01
      21    -1     0     0   502   501  0.000000000E+00  0.000000000E+00  2.355757366E+02  2.355757366E+02  0.000000000E+00  0.00000E+00  9.000E+00
      21    -1     0     0   501   512  0.000000000E+00  0.000000000E+00 -2.704575015E+02  2.704575015E+02  0.000000000E+00  0.00000E+00  9.000E+00
      25     1     1     2     0     0 -2.565180202E+01 -1.722882908E+02 -2.476358683E+01  2.158228563E+02  1.250000000E+02  0.00000E+00  9.000E+00
      25     1     1     2     0     0  6.373897207E+01  1.910521805E+02  2.040666759E+01  2.379181042E+02  1.250000000E+02  0.00000E+00  9.000E+00
      21     1     1     2   502   512 -3.808717005E+01 -1.876388971E+01 -3.052484565E+01  5.229227746E+01  8.920806376E-07  0.00000E+00  9.000E+00
#rwgt            1           1   2.6039655591709156E-002           3      123901           0
</event>
<event>
      5   9999  3.19816E-02  2.80655E+01 -1.00000E+00  1.55078E-01
      21    -1     0     0   502   501  0.000000000E+00  0.000000000E+00  1.092839983E+02  1.092839983E+02  0.000000000E+00  0.00000E+00  9.000E+00
      21    -1     0     0   501   511  0.000000000E+00  0.000000000E+00 -4.773068910E+02  4.773068910E+02  0.000000000E+00  0.00000E+00  9.000E+00
      25     1     1     2     0     0  9.728444474E+01 -1.080468501E+01 -5.907017152E+01  1.693968405E+02  1.250000000E+02  0.00000E+00  9.000E+00
      25     1     1     2     0     0 -1.249518756E+02  6.094707843E+00 -9.373357741E+01  2.001526923E+02  1.250000000E+02  0.00000E+00  9.000E+00
      21     1     1     2   502   511  2.766743090E+01  4.709977170E+00 -2.152191438E+02  2.170413566E+02  3.814697266E-06  0.00000E+00  9.000E+00
#rwgt            1           1   2.6171187313367598E-002           3      124066           0
</event>
<event>
      5   9999  3.19816E-02  3.49518E+02 -1.00000E+00  1.03480E-01
      21    -1     0     0   502   512  0.000000000E+00  0.000000000E+00  8.678426507E+02  8.678426507E+02  0.000000000E+00  0.00000E+00  9.000E+00
      21    -1     0     0   501   502  0.000000000E+00  0.000000000E+00 -4.693561157E+02  4.693561157E+02  0.000000000E+00  0.00000E+00  9.000E+00
      25     1     1     2     0     0 -2.298500987E+02 -8.780020337E+01 -4.442149453E+01  2.795321319E+02  1.250000000E+02  0.00000E+00  9.000E+00
      25     1     1     2     0     0  5.412422371E+02  2.465383226E+02  2.392176996E+02  6.531266428E+02  1.250000000E+02  0.00000E+00  9.000E+00
      21     1     1     2   501   512 -3.113921384E+02 -1.587381192E+02  2.036903300E+02  4.045399917E+02  6.607249480E-06  0.00000E+00  9.000E+00
#rwgt            1           1   2.6975933483578910E-002           3      124158           0
</event>
<event>
      5   9999  3.21037E-02  3.87939E+01 -1.00000E+00  1.45670E-01
      21    -1     0     0   502   511  0.000000000E+00  0.000000000E+00  6.086458169E+02  6.086458169E+02  0.000000000E+00  0.00000E+00  9.000E+00
      21    -1     0     0   501   502  0.000000000E+00  0.000000000E+00 -1.142200266E+02  1.142200266E+02  0.000000000E+00  0.00000E+00  9.000E+00
      25     1     1     2     0     0 -1.133357170E+01 -3.629566877E+01  3.050058647E+02  3.318123008E+02  1.250000000E+02  0.00000E+00  9.000E+00
      25     1     1     2     0     0  4.003064346E+01  6.240016556E+01 -4.601633243E+01  1.524425660E+02  1.250000000E+02  0.00000E+00  9.000E+00
      21     1     1     2   501   511 -2.869707176E+01 -2.610449679E+01  2.354362579E+02  2.386109768E+02  2.697398305E-06  0.00000E+00  9.000E+00
#rwgt            1           1   2.8094305243360044E-002           3      124186           0
</event>
<event>
      5   9999  3.19816E-02  2.34466E+02 -1.00000E+00  1.09191E-01
      21    -1     0     0   502   501  0.000000000E+00  0.000000000E+00  7.409421707E+02  7.409421707E+02  0.000000000E+00  0.00000E+00  9.000E+00
       2    -1     0     0   501     0  0.000000000E+00  0.000000000E+00 -1.442562432E+03  1.442562432E+03  0.000000000E+00  0.00000E+00  9.000E+00
      25     1     1     2     0     0 -5.641393058E+01  8.317480820E+02 -8.197441290E+01  8.469546669E+02  1.250000000E+02  0.00000E+00  9.000E+00
      25     1     1     2     0     0 -1.582630282E+02 -9.260248936E+02 -4.648520697E+02  1.055595442E+03  1.250000000E+02  0.00000E+00  9.000E+00
       2     1     1     2   502     0  2.146769588E+02  9.427681159E+01 -1.547937785E+02  2.809544940E+02  5.722045898E-06  0.00000E+00  9.000E+00
#rwgt            2          13   7.9379505883828822E-004           3      124342           0
</event>
<event>
      5   9999  3.19816E-02  1.77820E+02 -1.00000E+00  1.13539E-01
      21    -1     0     0   511   501  0.000000000E+00  0.000000000E+00  1.917628014E+03  1.917628014E+03  0.000000000E+00  0.00000E+00  9.000E+00
      21    -1     0     0   501   502  0.000000000E+00  0.000000000E+00 -3.444773535E+02  3.444773535E+02  0.000000000E+00  0.00000E+00  9.000E+00
      25     1     1     2     0     0  3.753581789E+02 -4.720930079E+02  1.152418332E+03  1.306697586E+03  1.250000000E+02  0.00000E+00  9.000E+00
      25     1     1     2     0     0 -2.023991505E+02  5.133875908E+02  8.051724935E+01  5.715245068E+02  1.250000000E+02  0.00000E+00  9.000E+00
      21     1     1     2   511   502 -1.729590283E+02 -4.129458283E+01  3.402150792E+02  3.838832741E+02  0.000000000E+00  0.00000E+00  9.000E+00
#rwgt            1           1   2.9978048852349795E-002           3      124376           0
</event>
<event>
      5   9999  3.19816E-02  1.28833E+01 -1.00000E+00  1.83842E-01
      21    -1     0     0   502   501  0.000000000E+00  0.000000000E+00  1.022863195E+03  1.022863195E+03  0.000000000E+00  0.00000E+00  9.000E+00
      21    -1     0     0   501   512  0.000000000E+00  0.000000000E+00 -3.889329245E+02  3.889329245E+02  0.000000000E+00  0.00000E+00  9.000E+00
      25     1     1     2     0     0  3.182112728E+02 -1.443562883E+02  8.735815447E+02  9.491400673E+02  1.250000000E+02  0.00000E+00  9.000E+00
      25     1     1     2     0     0 -3.280419261E+02  1.360292887E+02 -2.118061005E+02  4.319748799E+02  1.250000000E+02  0.00000E+00  9.000E+00
      21     1     1     2   502   512  9.830653295E+00  8.326999671E+00 -2.784517351E+01  3.068117266E+01  0.000000000E+00  0.00000E+00  9.000E+00
#rwgt            1           1   2.8779470324543269E-002           3      124453           0
</event>
<event>
      5   9999  3.19816E-02  2.17132E+01 -1.00000E+00  1.63477E-01
      21    -1     0     0   502   501  0.000000000E+00  0.000000000E+00  1.423438298E+02  1.423438298E+02  0.000000000E+00  0.00000E+00  9.000E+00
      21    -1     0     0   501   511  0.000000000E+00  0.000000000E+00 -1.571116811E+03  1.571116811E+03  0.000000000E+00  0.00000E+00  9.000E+00
      25     1     1     2     0     0  7.572657790E+01  3.199600513E+01  9.715528407E+01  1.783883633E+02  1.250000000E+02  0.00000E+00  9.000E+00
      25     1     1     2     0     0 -5.408356375E+01 -3.374102147E+01 -1.151959140E+03  1.160473329E+03  1.250000000E+02  0.00000E+00  9.000E+00
      21     1     1     2   502   511 -2.164301415E+01  1.745016335E+00 -3.739691261E+02  3.745989488E+02  5.394796609E-06  0.00000E+00  9.000E+00
#rwgt            1           1   3.0816763190597476E-002           3      124651           0
</event>
<event>
      5   9999  3.19816E-02  1.59075E+01 -1.00000E+00  1.75014E-01
      21    -1     0     0   502   501  0.000000000E+00  0.000000000E+00  1.080638653E+02  1.080638653E+02  0.000000000E+00  0.00000E+00  9.000E+00
      21    -1     0     0   501   512  0.000000000E+00  0.000000000E+00 -4.465388150E+02  4.465388150E+02  0.000000000E+00  0.00000E+00  9.000E+00
      25     1     1     2     0     0 -2.792318370E+01  1.489150327E+02 -6.833729933E+01  2.079672514E+02  1.250000000E+02  0.00000E+00  9.000E+00
      25     1     1     2     0     0  1.396087239E+01 -1.565375460E+02 -2.436255980E+02  3.157171856E+02  1.250000000E+02  0.00000E+00  9.000E+00
      21     1     1     2   502   512  1.396231131E+01  7.622513278E+00 -2.651205233E+01  3.091824323E+01  4.768371582E-07  0.00000E+00  9.000E+00
#rwgt            1           1   2.7067592221154894E-002           3      124802           0
</event>
<event>
      5   9999  3.19816E-02  6.24199E+01 -1.00000E+00  1.33792E-01
      21    -1     0     0   502   501  0.000000000E+00  0.000000000E+00  2.106420696E+02  2.106420696E+02  0.000000000E+00  0.00000E+00  9.000E+00
       2    -1     0     0   501     0  0.000000000E+00  0.000000000E+00 -2.609811257E+03  2.609811257E+03  0.000000000E+00  0.00000E+00  9.000E+00
      25     1     1     2     0     0 -2.467486849E+01  1.027472893E+02 -9.971839832E+01  1.916627599E+02  1.250000000E+02  0.00000E+00  9.000E+00
      25     1     1     2     0     0 -3.363745473E+01 -8.047804851E+01  1.289103421E+02  1.996273302E+02  1.250000000E+02  0.00000E+00  9.000E+00
       2     1     1     2   502     0  5.831232323E+01 -2.226924074E+01 -2.428361131E+03  2.429163237E+03  4.315837288E-05  0.00000E+00  9.000E+00
#rwgt            1           1   2.6571212279522194E-002           3      125007           0
</event>
<event>
      5   9999  3.19816E-02  4.54038E+01 -1.00000E+00  1.41508E-01
      21    -1     0     0   502   511  0.000000000E+00  0.000000000E+00  4.446261037E+02  4.446261037E+02  0.000000000E+00  0.00000E+00  9.000E+00
      21    -1     0     0   501   502  0.000000000E+00  0.000000000E+00 -7.121015294E+02  7.121015294E+02  0.000000000E+00  0.00000E+00  9.000E+00
      25     1     1     2     0     0  5.509072201E+01  2.589265033E+02  9.475152901E+01  3.077024114E+02  1.250000000E+02  0.00000E+00  9.000E+00
      25     1     1     2     0     0 -1.473174108E+01 -2.797270055E+02 -5.641026079E+02  6.421066687E+02  1.250000000E+02  0.00000E+00  9.000E+00
      21     1     1     2   501   511 -4.035898093E+01  2.080050220E+01  2.018756532E+02  2.069185530E+02  4.672030912E-06  0.00000E+00  9.000E+00
#rwgt            1           1   3.0043657382897656E-002           3      125077           0
</event>
<event>
      5   9999  3.19816E-02  1.52350E+02 -1.00000E+00  1.16127E-01
      21    -1     0     0   502   501  0.000000000E+00  0.000000000E+00  9.971464458E+01  9.971464458E+01  0.000000000E+00  0.00000E+00  9.000E+00
      21    -1     0     0   501   512  0.000000000E+00  0.000000000E+00 -1.294553594E+03  1.294553594E+03  0.000000000E+00  0.00000E+00  9.000E+00
      25     1     1     2     0     0 -1.235407681E+02  1.084121429E+02 -3.157478440E+02  3.772760463E+02  1.250000000E+02  0.00000E+00  9.000E+00
      25     1     1     2     0     0  2.704120270E+02 -6.792245826E+01 -3.415417943E+02  4.582705772E+02  1.250000000E+02  0.00000E+00  9.000E+00
      21     1     1     2   502   512 -1.468712589E+02 -4.048968467E+01 -5.375493112E+02  5.587216152E+02  1.078959322E-05  0.00000E+00  9.000E+00
#rwgt            1           1   2.9591565192962258E-002           3      125210           0
</event>
<event>
      5   9999  3.19816E-02  1.59386E+02 -1.00000E+00  1.15358E-01
      21    -1     0     0   502   501  0.000000000E+00  0.000000000E+00  1.953975996E+02  1.953975996E+02  0.000000000E+00  0.00000E+00  9.000E+00
      21    -1     0     0   511   502  0.000000000E+00  0.000000000E+00 -8.624437892E+02  8.624437892E+02  0.000000000E+00  0.00000E+00  9.000E+00
      25     1     1     2     0     0  1.554059225E+02  2.517532647E+02 -4.775464115E+02  5.755052408E+02  1.250000000E+02  0.00000E+00  9.000E+00
      25     1     1     2     0     0 -6.646299111E+01 -1.194919876E+02  5.250950682E+01  1.925562583E+02  1.250000000E+02  0.00000E+00  9.000E+00
      21     1     1     2   511   501 -8.894293134E+01 -1.322612771E+02 -2.420092850E+02  2.897798897E+02  4.672030912E-06  0.00000E+00  9.000E+00
#rwgt            1           1   2.7357880729424792E-002           3      125240           0
</event>
<event>
      5   9999  3.19816E-02  5.72020E+02 -1.00000E+00  9.72196E-02
      -1    -1     0     0     0   501  0.000000000E+00  0.000000000E+00  1.162953093E+03  1.162953093E+03  0.000000000E+00  0.00000E+00  9.000E+00
      21    -1     0     0   501   502  0.000000000E+00  0.000000000E+00 -9.907680225E+02  9.907680225E+02  0.000000000E+00  0.00000E+00  9.000E+00
      25     1     1     2     0     0 -2.395282030E+02 -3.683515975E+02 -6.968956554E+01  4.621020396E+02  1.250000000E+02  0.00000E+00  9.000E+00
      25     1     1     2     0     0 -3.192461320E+02  4.907380553E+02 -4.823179686E+02  7.687636532E+02  1.250000000E+02  0.00000E+00  9.000E+00
      -1     1     1     2     0   502  5.587743351E+02 -1.223864578E+02  7.241926045E+02  9.228554226E+02  0.000000000E+00  0.00000E+00  9.000E+00
#rwgt            2           5   1.1759153294619209E-004           3      125342           0
</event>
<event>
      5   9999  3.19816E-02  3.08808E+02 -1.00000E+00  1.05185E-01
      21    -1     0     0   502   511  0.000000000E+00  0.000000000E+00  1.966294075E+03  1.966294075E+03  0.000000000E+00  0.00000E+00  9.000E+00
      21    -1     0     0   501   502  0.000000000E+00  0.000000000E+00 -1.745121035E+03  1.745121035E+03  0.000000000E+00  0.00000E+00  9.000E+00
      25     1     1     2     0     0  1.022554711E+03 -1.242550033E+03 -2.699997521E+02  1.636482077E+03  1.250000000E+02  0.00000E+00  9.000E+00
      25     1     1     2     0     0 -9.063434442E+02  9.564432141E+02 -1.803468608E+02  1.335811383E+03  1.250000000E+02  0.00000E+00  9.000E+00
      21     1     1     2   501   511 -1.162112666E+02  2.861068189E+02  6.715196523E+02  7.391216502E+02  7.629394531E-06  0.00000E+00  9.000E+00
#rwgt            2          11   7.3966314436967971E-003           3      125856           0
</event>
<event>
      5   9999  3.19816E-02  1.44499E+02 -1.00000E+00  1.17040E-01
      21    -1     0     0   502   501  0.000000000E+00  0.000000000E+00  2.520592967E+02  2.520592967E+02  0.000000000E+00  0.00000E+00  9.000E+00
      21    -1     0     0   512   502  0.000000000E+00  0.000000000E+00 -9.683881875E+02  9.683881875E+02  0.000000000E+00  0.00000E+00  9.000E+00
      25     1     1     2     0     0 -2.902744627E+02  2.327957687E+02 -2.166525541E+02  4.483485952E+02  1.250000000E+02  0.00000E+00  9.000E+00
      25     1     1     2     0     0  3.778567155E+02 -1.178641025E+02 -2.526875429E+02  4.859461271E+02  1.250000000E+02  0.00000E+00  9.000E+00
      21     1     1     2   512   501 -8.758225279E+01 -1.149316663E+02 -2.469887938E+02  2.861527620E+02  3.814697266E-06  0.00000E+00  9.000E+00
#rwgt            1           1   2.6351275460282104E-002           3      125906           0
</event>
<event>
      5   9999  3.19816E-02  3.31697E+01 -1.00000E+00  1.50071E-01
      21    -1     0     0   502   501  0.000000000E+00  0.000000000E+00  1.342349941E+02  1.342349941E+02  0.000000000E+00  0.00000E+00  9.000E+00
       1    -1     0     0   501     0  0.000000000E+00  0.000000000E+00 -1.017064981E+03  1.017064981E+03  0.000000000E+00  0.00000E+00  9.000E+00
      25     1     1     2     0     0 -3.939251588E+01  2.322846007E+02 -3.279470124E+02  4.227081132E+02  1.250000000E+02  0.00000E+00  9.000E+00
      25     1     1     2     0     0  3.080570290E+01 -2.002456117E+02 -7.793494986E+01  2.504918217E+02  1.250000000E+02  0.00000E+00  9.000E+00
       1     1     1     2   502     0  8.586812977E+00 -3.203898900E+01 -4.769480247E+02  4.781000402E+02  5.394796609E-06  0.00000E+00  9.000E+00
#rwgt            1           1   2.8490785399777379E-002           3      125954           0
</event>
<event>
      5   9999  3.19816E-02  2.81289E+02 -1.00000E+00  1.06509E-01
       2    -1     0     0   502     0  0.000000000E+00  0.000000000E+00  1.924833877E+03  1.924833877E+03  0.000000000E+00  0.00000E+00  9.000E+00
      21    -1     0     0   501   502  0.000000000E+00  0.000000000E+00 -1.201537695E+03  1.201537695E+03  0.000000000E+00  0.00000E+00  9.000E+00
      25     1     1     2     0     0 -1.187484133E+02  6.610097485E+02  6.705744995E+02  9.572513947E+02  1.250000000E+02  0.00000E+00  9.000E+00
      25     1     1     2     0     0 -4.145479275E+01 -4.297984311E+02 -9.909846168E+02  1.088173103E+03  1.250000000E+02  0.00000E+00  9.000E+00
       2     1     1     2   501     0  1.602032061E+02 -2.312113174E+02  1.043706299E+03  1.080947075E+03  0.000000000E+00  0.00000E+00  9.000E+00
#rwgt            1           1   3.9654987641751814E-002           3      126070           0
</event>
<event>
      5   9999  3.19816E-02  3.12400E+02 -1.00000E+00  1.05024E-01
      21    -1     0     0   502   501  0.000000000E+00  0.000000000E+00  1.396267140E+03  1.396267140E+03  0.000000000E+00  0.00000E+00  9.000E+00
      21    -1     0     0   511   502  0.000000000E+00  0.000000000E+00 -8.933724933E+02  8.933724933E+02  0.000000000E+00  0.00000E+00  9.000E+00
      25     1     1     2     0     0 -1.575661982E+02  1.286446176E+02 -6.495791982E+02  6.920655165E+02  1.250000000E+02  0.00000E+00  9.000E+00
      25     1     1     2     0     0  5.837599276E+01  1.675899900E+02  1.251243158E+03  1.269932518E+03  1.250000000E+02  0.00000E+00  9.000E+00
      21     1     1     2   511   501  9.919020544E+01 -2.962346076E+02 -9.876931313E+01  3.276415981E+02  2.336015456E-06  0.00000E+00  9.000E+00
#rwgt            2          11   5.3652445533281645E-003           3      126187           0
</event>
<event>
      5   9999  3.19816E-02  1.28019E+02 -1.00000E+00  1.19188E-01
      21    -1     0     0   502   501  0.000000000E+00  0.000000000E+00  3.565470417E+03  3.565470417E+03  0.000000000E+00  0.00000E+00  9.000E+00
      21    -1     0     0   512   502  0.000000000E+00  0.000000000E+00 -7.709672353E+01  7.709672353E+01  0.000000000E+00  0.00000E+00  9.000E+00
      25     1     1     2     0     0  2.513676328E+02 -2.024522853E+01  1.557219735E+03  1.582451850E+03  1.250000000E+02  0.00000E+00  9.000E+00
      25     1     1     2     0     0 -3.433119439E+02  1.093241004E+02  1.886301025E+03  1.924466525E+03  1.250000000E+02  0.00000E+00  9.000E+00
      21     1     1     2   512   501  9.194431116E+01 -8.907887184E+01  4.485293354E+01  1.356487649E+02  2.236564522E-06  0.00000E+00  9.000E+00
#rwgt            1           1   1.7096495416089572E-002           3      126207           0
</event>
<event>
      5   9999  3.19816E-02  2.38984E+02 -1.00000E+00  1.08903E-01
      21    -1     0     0   502   501  0.000000000E+00  0.000000000E+00  5.605089330E+02  5.605089330E+02  0.000000000E+00  0.00000E+00  9.000E+00
       2    -1     0     0   501     0  0.000000000E+00  0.000000000E+00 -1.742949181E+03  1.742949181E+03  0.000000000E+00  0.00000E+00  9.000E+00
      25     1     1     2     0     0 -2.271403763E+02  3.738295537E+02 -7.925988384E+02  9.138813952E+02  1.250000000E+02  0.00000E+00  9.000E+00
      25     1     1     2     0     0 -4.801107914E+00 -3.162424923E+02  4.227546934E+02  5.425669502E+02  1.250000000E+02  0.00000E+00  9.000E+00
       2     1     1     2   502     0  2.319414842E+02 -5.758706135E+01 -8.125961031E+02  8.470097688E+02  0.000000000E+00  0.00000E+00  9.000E+00
#rwgt            1           1   3.2159654048761366E-002           3      126296           0
</event>
<event>
      5   9999  3.19816E-02  1.27260E+01 -1.00000E+00  1.84385E-01
      21    -1     0     0   511   501  0.000000000E+00  0.000000000E+00  2.244286251E+02  2.244286251E+02  0.000000000E+00  0.00000E+00  9.000E+00
      21    -1     0     0   501   502  0.000000000E+00  0.000000000E+00 -5.361486548E+02  5.361486548E+02  0.000000000E+00  0.00000E+00  9.000E+00
      25     1     1     2     0     0  1.193441906E+02  2.114981459E+02 -3.704480270E+02  4.602512816E+02  1.250000000E+02  0.00000E+00  9.000E+00
      25     1     1     2     0     0 -1.161517425E+02 -2.238171768E+02  5.915491538E+01  2.875928719E+02  1.250000000E+02  0.00000E+00  9.000E+00
      21     1     1     2   511   502 -3.192448117E+00  1.231903098E+01 -4.269181088E-01  1.273312641E+01  2.464892594E-07  0.00000E+00  9.000E+00
#rwgt            1           1   2.7515953557953148E-002           3      126391           0
</event>
<event>
      5   9999  3.19816E-02  5.33914E+01 -1.00000E+00  1.37469E-01
      21    -1     0     0   512   501  0.000000000E+00  0.000000000E+00  6.960485699E+02  6.960485699E+02  0.000000000E+00  0.00000E+00  9.000E+00
      21    -1     0     0   501   502  0.000000000E+00  0.000000000E+00 -4.467519840E+02  4.467519840E+02  0.000000000E+00  0.00000E+00  9.000E+00
      25     1     1     2     0     0  1.771494106E+02 -4.443107452E+02  3.066105674E+02  5.817465015E+02  1.250000000E+02  0.00000E+00  9.000E+00
      25     1     1     2     0     0 -1.427990683E+02  4.034366570E+02 -1.358549198E+02  4.660839725E+02  1.250000000E+02  0.00000E+00  9.000E+00
      21     1     1     2   512   502 -3.435034232E+01  4.087408814E+01  7.854093834E+01  9.497007999E+01  0.000000000E+00  0.00000E+00  9.000E+00
#rwgt            1           1   3.0072056600754838E-002           3      126598           0
</event>
<event>
      5   9999  3.19816E-02  2.94318E+01 -1.00000E+00  1.53619E-01
      21    -1     0     0   502   511  0.000000000E+00  0.000000000E+00  6.952728240E+02  6.952728240E+02  0.000000000E+00  0.00000E+00  9.000E+00
      21    -1     0     0   501   502  0.000000000E+00  0.000000000E+00 -2.956659700E+02  2.956659700E+02  0.000000000E+00  0.00000E+00  9.000E+00
      25     1     1     2     0     0 -2.121572929E+02  7.754357235E+01 -2.025700692E+02  3.281514215E+02  1.250000000E+02  0.00000E+00  9.000E+00
      25     1     1     2     0     0  2.006379728E+02 -5.045973558E+01  5.702516367E+02  6.193655708E+02  1.250000000E+02  0.00000E+00  9.000E+00
      21     1     1     2   501   511  1.151932002E+01 -2.708383677E+01  3.192528650E+01  4.342180174E+01  8.259061849E-07  0.00000E+00  9.000E+00
#rwgt            1           1   3.0011067275838538E-002           3      126741           0
</event>
<event>
      5   9999  3.19816E-02  8.76072E+01 -1.00000E+00  1.26469E-01
      21    -1     0     0   502   501  0.000000000E+00  0.000000000E+00  4.855817310E+02  4.855817310E+02  0.000000000E+00  0.00000E+00  9.000E+00
      21    -1     0     0   512   502  0.000000000E+00  0.000000000E+00 -4.908104928E+02  4.908104928E+02  0.000000000E+00  0.00000E+00  9.000E+00
      25     1     1     2     0     0  2.393398043E+02  3.380195897E+02  2.463543932E+01  4.333274626E+02  1.250000000E+02  0.00000E+00  9.000E+00
      25     1     1     2     0     0 -1.517500603E+02 -3.397662739E+02  8.195630764E+01  4.010125161E+02  1.250000000E+02  0.00000E+00  9.000E+00
      21     1     1     2   512   501 -8.758974395E+01  1.746684217E+00 -1.118205088E+02  1.420522451E+02  2.336015456E-06  0.00000E+00  9.000E+00
#rwgt            1           1   2.9679077040501101E-002           3      126889           0
</event>
<event>
      5   9999  3.19816E-02  3.07078E+01 -1.00000E+00  1.52340E-01
      21    -1     0     0   502   501  0.000000000E+00  0.000000000E+00  5.372626274E+02  5.372626274E+02  0.000000000E+00  0.00000E+00  9.000E+00
      21    -1     0     0   511   502  0.000000000E+00  0.000000000E+00 -9.885103906E+02  9.885103906E+02  0.000000000E+00  0.00000E+00  9.000E+00
      25     1     1     2     0     0  8.909875054E+01  2.271605595E+02  2.026452260E+01  2.749111821E+02  1.250000000E+02  0.00000E+00  9.000E+00
      25     1     1     2     0     0 -6.885490782E+01 -2.040704149E+02  3.495747966E+02  4.292007351E+02  1.250000000E+02  0.00000E+00  9.000E+00
      21     1     1     2   511   501 -2.024384272E+01 -2.309014462E+01 -8.210870823E+02  8.216611009E+02  1.078959322E-05  0.00000E+00  9.000E+00
#rwgt            1           1   2.8969642649475127E-002           3      126975           0
</event>
<event>
      5   9999  3.19816E-02  1.55450E+02 -1.00000E+00  1.15783E-01
      21    -1     0     0   502   501  0.000000000E+00  0.000000000E+00  3.508314498E+02  3.508314498E+02  0.000000000E+00  0.00000E+00  9.000E+00
      21    -1     0     0   501   512  0.000000000E+00  0.000000000E+00 -1.208161065E+03  1.208161065E+03  0.000000000E+00  0.00000E+00  9.000E+00
      25     1     1     2     0     0 -2.439288710E+02 -8.270870773E+01 -3.512658381E+01  2.884456644E+02  1.250000000E+02  0.00000E+00  9.000E+00
      25     1     1     2     0     0  2.992017755E+02 -6.258280382E+01  9.231814206E+01  3.429080769E+02  1.250000000E+02  0.00000E+00  9.000E+00
      21     1     1     2   502   512 -5.527290453E+01  1.452915116E+02 -9.145211730E+02  9.276387730E+02  1.078959322E-05  0.00000E+00  9.000E+00
#rwgt            2          11   2.3997285519209367E-003           3      127179           0
</event>
<event>
      5   9999  3.19816E-02  7.04548E+00 -1.00000E+00  2.15157E-01
      21    -1     0     0   502   511  0.000000000E+00  0.000000000E+00  2.696793139E+02  2.696793139E+02  0.000000000E+00  0.00000E+00  9.000E+00
      21    -1     0     0   501   502  0.000000000E+00  0.000000000E+00 -5.680902493E+02  5.680902493E+02  0.000000000E+00  0.00000E+00  9.000E+00
      25     1     1     2     0     0 -1.112133230E+02  2.395300378E+02 -3.861389437E+01  2.947186371E+02  1.250000000E+02  0.00000E+00  9.000E+00
      25     1     1     2     0     0  1.093776950E+02 -2.327278831E+02 -3.503568279E+02  4.522174859E+02  1.250000000E+02  0.00000E+00  9.000E+00
      21     1     1     2   501   511  1.835628046E+00 -6.802154724E+00  9.055978687E+01  9.083344008E+01  2.336015456E-06  0.00000E+00  9.000E+00
#rwgt            1           1   2.9414798689736447E-002           3      127199           0
</event>
<event>
      5   9999  3.19816E-02  2.55901E+02 -1.00000E+00  1.07885E-01
      21    -1     0     0   502   512  0.000000000E+00  0.000000000E+00  1.205131937E+03  1.205131937E+03  0.000000000E+00  0.00000E+00  9.000E+00
      21    -1     0     0   501   502  0.000000000E+00  0.000000000E+00 -2.704918425E+02  2.704918425E+02  0.000000000E+00  0.00000E+00  9.000E+00
      25     1     1     2     0     0 -2.904170667E+02  5.836305864E+01  2.136318547E+02  3.860205805E+02  1.250000000E+02  0.00000E+00  9.000E+00
      25     1     1     2     0     0  5.201497189E+02  5.436846382E+01  3.600094016E+02  6.471038782E+02  1.250000000E+02  0.00000E+00  9.000E+00
      21     1     1     2   501   512 -2.297326521E+02 -1.127315225E+02  3.609988378E+02  4.424993204E+02  3.814697266E-06  0.00000E+00  9.000E+00
#rwgt            2          11   3.0657039909345730E-003           3      127539           0
</event>
<event>
      5   9999  3.19816E-02  9.17713E+01 -1.00000E+00  1.25529E-01
      21    -1     0     0   502   501  0.000000000E+00  0.000000000E+00  4.064019284E+02  4.064019284E+02  0.000000000E+00  0.00000E+00  9.000E+00
      21    -1     0     0   511   502  0.000000000E+00  0.000000000E+00 -6.744090581E+02  6.744090581E+02  0.000000000E+00  0.00000E+00  9.000E+00
      25     1     1     2     0     0  1.976868912E+02 -4.450964728E+01 -3.351002358E+02  4.110698039E+02  1.250000000E+02  0.00000E+00  9.000E+00
      25     1     1     2     0     0 -2.190784832E+02  1.337530103E+02  3.031785569E+02  4.164462594E+02  1.250000000E+02  0.00000E+00  9.000E+00
      21     1     1     2   511   501  2.139159203E+01 -8.924336301E+01 -2.360854508E+02  2.532949233E+02  2.697398305E-06  0.00000E+00  9.000E+00
#rwgt            1           1   2.5137070191713819E-002           3      127574           0
</event>
<event>
      5   9999  3.19816E-02  3.65016E+01 -1.00000E+00  1.47349E-01
      21    -1     0     0   502   512  0.000000000E+00  0.000000000E+00  1.164256634E+02  1.164256634E+02  0.000000000E+00  0.00000E+00  9.000E+00
      21    -1     0     0   501   502  0.000000000E+00  0.000000000E+00 -3.591425463E+02  3.591425463E+02  0.000000000E+00  0.00000E+00  9.000E+00
      25     1     1     2     0     0 -5.575444663E+01 -1.039923431E+02 -1.166077996E+02  2.077145750E+02  1.250000000E+02  0.00000E+00  9.000E+00
      25     1     1     2     0     0  7.279402839E+01  1.362726765E+02 -1.154282760E+02  2.298214520E+02  1.250000000E+02  0.00000E+00  9.000E+00
      21     1     1     2   501   512 -1.703958176E+01 -3.228033338E+01 -1.068080726E+01  3.803218260E+01  9.902267293E-07  0.00000E+00  9.000E+00
#rwgt            1           1   2.6714458435479378E-002           3      127648           0
</event>
<event>
      5   9999  3.19816E-02  1.77698E+02 -1.00000E+00  1.13550E-01
       2    -1     0     0   502     0  0.000000000E+00  0.000000000E+00  2.100142343E+03  2.100142343E+03  0.000000000E+00  0.00000E+00  9.000E+00
      21    -1     0     0   501   502  0.000000000E+00  0.000000000E+00 -1.329853227E+02  1.329853227E+02  0.000000000E+00  0.00000E+00  9.000E+00
      25     1     1     2     0     0 -5.158005677E+01  1.143907928E+02 -3.751388518E+01  1.810470859E+02  1.250000000E+02  0.00000E+00  9.000E+00
      25     1     1     2     0     0 -1.045179675E+02 -1.993027048E+02  1.057300405E+03  1.088188734E+03  1.250000000E+02  0.00000E+00  9.000E+00
       2     1     1     2   501     0  1.560980242E+02  8.491191199E+01  9.473705006E+02  9.638918463E+02  1.078959322E-05  0.00000E+00  9.000E+00
#rwgt            1           1   2.8371245678282874E-002           3      127729           0
</event>
<event>
      5   9999  3.19816E-02  1.06425E+02 -1.00000E+00  1.22624E-01
       2    -1     0     0   502     0  0.000000000E+00  0.000000000E+00  5.735489890E+02  5.735489890E+02  0.000000000E+00  0.00000E+00  9.000E+00
      21    -1     0     0   501   502  0.000000000E+00  0.000000000E+00 -2.759789825E+02  2.759789825E+02  0.000000000E+00  0.00000E+00  9.000E+00
      25     1     1     2     0     0  2.035486718E+02 -9.776556138E+01 -6.052145579E+01  2.651000064E+02  1.250000000E+02  0.00000E+00  9.000E+00
      25     1     1     2     0     0 -1.049586489E+02  1.378441128E+02  2.926565807E+00  2.136606707E+02  1.250000000E+02  0.00000E+00  9.000E+00
       2     1     1     2   501     0 -9.859002286E+01 -4.007855147E+01  3.551648965E+02  3.707672944E+02  0.000000000E+00  0.00000E+00  9.000E+00
#rwgt            1           1   2.8780584388413442E-002           3      127764           0
</event>
<event>
      5   9999  3.19816E-02  1.93359E+02 -1.00000E+00  1.12185E-01
      21    -1     0     0   502   501  0.000000000E+00  0.000000000E+00  3.341519117E+02  3.341519117E+02  0.000000000E+00  0.00000E+00  9.000E+00
       2    -1     0     0   501     0  0.000000000E+00  0.000000000E+00 -1.006475343E+03  1.006475343E+03  0.000000000E+00  0.00000E+00  9.000E+00
      25     1     1     2     0     0  6.443244732E+01 -1.977323350E+02 -6.289150680E+02  6.740984938E+02  1.250000000E+02  0.00000E+00  9.000E+00
      25     1     1     2     0     0 -1.973560089E+02  3.381568475E+02  1.033304746E+02  4.237943307E+02  1.250000000E+02  0.00000E+00  9.000E+00
       2     1     1     2   502     0  1.329235616E+02 -1.404245125E+02 -1.467388376E+02  2.427344298E+02  1.907348633E-06  0.00000E+00  9.000E+00
#rwgt            1           1   2.9397207599868601E-002           3      127833           0
</event>
<event>
      5   9999  3.19816E-02  4.74896E+01 -1.00000E+00  1.40364E-01
      21    -1     0     0   502   501  0.000000000E+00  0.000000000E+00  3.699926707E+02  3.699926707E+02  0.000000000E+00  0.00000E+00  9.000E+00
      21    -1     0     0   501   511  0.000000000E+00  0.000000000E+00 -2.905034106E+02  2.905034106E+02  0.000000000E+00  0.00000E+00  9.000E+00
      25     1     1     2     0     0 -2.857863485E+02 -1.952413904E+01  2.451657693E+01  3.134981523E+02  1.250000000E+02  0.00000E+00  9.000E+00
      25     1     1     2     0     0  2.394707219E+02  3.001836181E+01  9.182466811E+01  2.868869087E+02  1.250000000E+02  0.00000E+00  9.000E+00
      21     1     1     2   502   511  4.631562657E+01 -1.049422276E+01 -3.685198487E+01  6.011102033E+01  6.743495762E-07  0.00000E+00  9.000E+00
#rwgt            1           1   2.8408438322169955E-002           3      127882           0
</event>
<event>
      5   9999  3.19816E-02  2.23604E+02 -1.00000E+00  1.09912E-01
      21    -1     0     0   502   501  0.000000000E+00  0.000000000E+00  2.055460128E+03  2.055460128E+03  0.000000000E+00  0.00000E+00  9.000E+00
      21    -1     0     0   512   502  0.000000000E+00  0.000000000E+00 -1.793639869E+02  1.793639869E+02  0.000000000E+00  0.00000E+00  9.000E+00
      25     1     1     2     0     0 -2.604441698E+02 -5.076981633E+00  4.659772487E+02  5.482852703E+02  1.250000000E+02  0.00000E+00  9.000E+00
      25     1     1     2     0     0  4.495493578E+02  1.243997832E+02  1.378592768E+03  1.460723434E+03  1.250000000E+02  0.00000E+00  9.000E+00
      21     1     1     2   512   501 -1.891051880E+02 -1.193228015E+02  3.152612455E+01  2.258154105E+02  5.001110307E-06  0.00000E+00  9.000E+00
#rwgt            1           1   3.3140322351347236E-002           3      128004           0
</event>
<event>
      5   9999  3.19816E-02  2.74531E+01 -1.00000E+00  1.55765E-01
      21    -1     0     0   502   501  0.000000000E+00  0.000000000E+00  7.149507313E+02  7.149507313E+02  0.000000000E+00  0.00000E+00  9.000E+00
      21    -1     0     0   501   511  0.000000000E+00  0.000000000E+00 -2.155264386E+02  2.155264386E+02  0.000000000E+00  0.00000E+00  9.000E+00
      25     1     1     2     0     0  7.178930602E+01  6.779933720E+01  6.465031145E+02  6.658391185E+02  1.250000000E+02  0.00000E+00  9.000E+00
      25     1     1     2     0     0 -4.634297549E+01 -5.749608514E+01 -3.513239860E+01  1.493745514E+02  1.250000000E+02  0.00000E+00  9.000E+00
      21     1     1     2   502   511 -2.544633053E+01 -1.030325206E+01 -1.119464232E+02  1.152634999E+02  1.348699152E-06  0.00000E+00  9.000E+00
#rwgt            1           1   3.4458452323126339E-002           3      128047           0
</event>
<event>
      5   9999  3.19816E-02  1.08317E+02 -1.00000E+00  1.22287E-01
      21    -1     0     0   502   501  0.000000000E+00  0.000000000E+00  1.321497314E+02  1.321497314E+02  0.000000000E+00  0.00000E+00  9.000E+00
       2    -1     0     0   501     0  0.000000000E+00  0.000000000E+00 -1.218364451E+03  1.218364451E+03  0.000000000E+00  0.00000E+00  9.000E+00
      25     1     1     2     0     0 -2.623145719E+01  8.627161806E+01 -3.030843817E+02  3.400235637E+02  1.250000000E+02  0.00000E+00  9.000E+00
      25     1     1     2     0     0  2.636734375E+01  2.204516196E+01  7.215999159E+01  1.483687648E+02  1.250000000E+02  0.00000E+00  9.000E+00
       2     1     1     2   502     0 -1.358865604E-01 -1.083167800E+02 -8.552903296E+02  8.621218541E+02  0.000000000E+00  0.00000E+00  9.000E+00
#rwgt            1           1   2.7152229628161821E-002           3      128131           0
</event>
<event>
      5   9999  3.19816E-02  1.19496E+02 -1.00000E+00  1.20446E-01
       1    -1     0     0   502     0  0.000000000E+00  0.000000000E+00  9.758903223E+02  9.758903223E+02  0.000000000E+00  0.00000E+00  9.000E+00
      21    -1     0     0   501   502  0.000000000E+00  0.000000000E+00 -2.994642196E+03  2.994642196E+03  0.000000000E+00  0.00000E+00  9.000E+00
      25     1     1     2     0     0  7.099621704E+02 -1.097425109E+03 -6.193569343E+02  1.451763123E+03  1.250000000E+02  0.00000E+00  9.000E+00
      25     1     1     2     0     0 -6.042765251E+02  1.153190714E+03 -1.729119912E+03  2.168058950E+03  1.250000000E+02  0.00000E+00  9.000E+00
       1     1     1     2   501     0 -1.056856453E+02 -5.576560517E+01  3.297249729E+02  3.507104448E+02  3.814697266E-06  0.00000E+00  9.000E+00
#rwgt            1           1   4.0105928997363843E-002           3      128189           0
</event>
<event>
      5   9999  3.19816E-02  3.01276E+01 -1.00000E+00  1.52912E-01
      21    -1     0     0   502   501  0.000000000E+00  0.000000000E+00  2.020345528E+02  2.020345528E+02  0.000000000E+00  0.00000E+00  9.000E+00
      21    -1     0     0   511   502  0.000000000E+00  0.000000000E+00 -5.014723600E+02  5.014723600E+02  0.000000000E+00  0.00000E+00  9.000E+00
      25     1     1     2     0     0  1.124708698E+02 -1.710422215E+02 -3.162239155E+02  3.968975974E+02  1.250000000E+02  0.00000E+00  9.000E+00
      25     1     1     2     0     0 -8.800926637E+01  1.534551743E+02  8.449128437E+01  2.325035454E+02  1.250000000E+02  0.00000E+00  9.000E+00
      21     1     1     2   511   501 -2.446160344E+01  1.758704724E+01 -6.770517612E+01  7.410577000E+01  0.000000000E+00  0.00000E+00  9.000E+00
#rwgt            1           1   2.9509621030455003E-002           3      128306           0
</event>
<event>
      5   9999  3.19816E-02  3.10666E+02 -1.00000E+00  1.05101E-01
      21    -1     0     0   502   501  0.000000000E+00  0.000000000E+00  2.078804697E+03  2.078804697E+03  0.000000000E+00  0.00000E+00  9.000E+00
      21    -1     0     0   512   502  0.000000000E+00  0.000000000E+00 -1.151798225E+03  1.151798225E+03  0.000000000E+00  0.00000E+00  9.000E+00
      25     1     1     2     0     0  5.171832725E+02  2.353178362E+02  1.698245026E+03  1.795136259E+03  1.250000000E+02  0.00000E+00  9.000E+00
      25     1     1     2     0     0 -8.245185325E+02 -2.806907525E+02 -4.489540461E+02  9.878273353E+02  1.250000000E+02  0.00000E+00  9.000E+00
      21     1     1     2   512   501  3.073352600E+02  4.537291622E+01 -3.222845081E+02  4.476393277E+02  3.814697266E-06  0.00000E+00  9.000E+00
#rwgt            2          11   4.8731467825264387E-003           3      128459           0
</event>
<event>
      5   9999  3.19816E-02  5.04006E+00 -1.00000E+00  2.37912E-01
      21    -1     0     0   502   501  0.000000000E+00  0.000000000E+00  3.214316874E+02  3.214316874E+02  0.000000000E+00  0.00000E+00  9.000E+00
      21    -1     0     0   511   502  0.000000000E+00  0.000000000E+00 -1.130611220E+03  1.130611220E+03  0.000000000E+00  0.00000E+00  9.000E+00
      25     1     1     2     0     0 -1.985030137E+02  5.168176183E+02 -2.193425053E+02  6.084735258E+02  1.250000000E+02  0.00000E+00  9.000E+00
      25     1     1     2     0     0  1.983503138E+02 -5.117798706E+02 -4.979934746E+02  7.515876421E+02  1.250000000E+02  0.00000E+00  9.000E+00
      21     1     1     2   511   501  1.526999449E-01 -5.037747649E+00 -9.184355255E+01  9.198173929E+01  0.000000000E+00  0.00000E+00  9.000E+00
#rwgt            1           1   2.6692307804630694E-002           3      128479           0
</event>
<event>
      5   9999  3.19816E-02  8.05198E+01 -1.00000E+00  1.28213E-01
      21    -1     0     0   502   501  0.000000000E+00  0.000000000E+00  5.931036655E+02  5.931036655E+02  0.000000000E+00  0.00000E+00  9.000E+00
      21    -1     0     0   501   512  0.000000000E+00  0.000000000E+00 -1.515244790E+02  1.515244790E+02  0.000000000E+00  0.00000E+00  9.000E+00
      25     1     1     2     0     0 -3.221219750E+01  5.664893753E+01 -1.650916961E+01  1.419305481E+02  1.250000000E+02  0.00000E+00  9.000E+00
      25     1     1     2     0     0  1.122810275E+02 -4.813888374E+01  4.867883207E+02  5.172158644E+02  1.250000000E+02  0.00000E+00  9.000E+00
      21     1     1     2   502   512 -8.006882995E+01 -8.510053786E+00 -2.869996463E+01  8.548173205E+01  1.507891493E-06  0.00000E+00  9.000E+00
#rwgt            1           1   2.9485905893228442E-002           3      128916           0
</event>
<event>
      5   9999  3.19816E-02  1.73307E+02 -1.00000E+00  1.13961E-01
      21    -1     0     0   502   501  0.000000000E+00  0.000000000E+00  2.097879232E+02  2.097879232E+02  0.000000000E+00  0.00000E+00  9.000E+00
       2    -1     0     0   501     0  0.000000000E+00  0.000000000E+00 -1.813991338E+03  1.813991338E+03  0.000000000E+00  0.00000E+00  9.000E+00
      25     1     1     2     0     0 -4.802759790E+02  1.757999572E+02 -5.860390305E+02  7.878054241E+02  1.250000000E+02  0.00000E+00  9.000E+00
      25     1     1     2     0     0  3.101633376E+02 -1.426774936E+02 -2.328035716E+02  4.317182717E+02  1.250000000E+02  0.00000E+00  9.000E+00
       2     1     1     2   502     0  1.701126414E+02 -3.312246359E+01 -7.853608124E+02  8.042555651E+02  0.000000000E+00  0.00000E+00  9.000E+00
#rwgt            1           1   2.9188823573484599E-002           3      128950           0
</event>
<event>
      5   9999  3.19816E-02  3.56903E+01 -1.00000E+00  1.47979E-01
      21    -1     0     0   511   501  0.000000000E+00  0.000000000E+00  1.029792607E+03  1.029792607E+03  0.000000000E+00  0.00000E+00  9.000E+00
      21    -1     0     0   501   502  0.000000000E+00  0.000000000E+00 -1.005982767E+02  1.005982767E+02  0.000000000E+00  0.00000E+00  9.000E+00
      25     1     1     2     0     0 -1.301425363E+02 -1.157937586E+02  6.782880972E+01  2.248800162E+02  1.250000000E+02  0.00000E+00  9.000E+00
      25     1     1     2     0     0  1.616015209E+02  1.326500023E+02  7.527630146E+02  7.911941802E+02  1.250000000E+02  0.00000E+00  9.000E+00
      21     1     1     2   511   502 -3.145898463E+01 -1.685624376E+01  1.086025059E+02  1.143166871E+02  1.348699152E-06  0.00000E+00  9.000E+00
#rwgt            1           1   2.6417203588764173E-002           3      129013           0
</event>
<event>
      5   9999  3.19816E-02  5.79983E+01 -1.00000E+00  1.35496E-01
      21    -1     0     0   502   512  0.000000000E+00  0.000000000E+00  2.502640201E+03  2.502640201E+03  0.000000000E+00  0.00000E+00  9.000E+00
      21    -1     0     0   501   502  0.000000000E+00  0.000000000E+00 -2.671923612E+02  2.671923612E+02  0.000000000E+00  0.00000E+00  9.000E+00
      25     1     1     2     0     0  6.664988073E+02  3.424993916E+02  1.038175411E+03  1.286452361E+03  1.250000000E+02  0.00000E+00  9.000E+00
      25     1     1     2     0     0 -7.239079384E+02 -3.507452504E+02  1.078874842E+03  1.351540180E+03  1.250000000E+02  0.00000E+00  9.000E+00
      21     1     1     2   501   512  5.740913109E+01  8.245858774E+00  1.183975872E+02  1.318400212E+02  1.348699152E-06  0.00000E+00  9.000E+00
#rwgt            1           1   3.5572275277058384E-002           3      129197           0
</event>
<event>
      5   9999  3.19816E-02  7.17675E+01 -1.00000E+00  1.30675E-01
      21    -1     0     0   502   501  0.000000000E+00  0.000000000E+00  3.689840308E+02  3.689840308E+02  0.000000000E+00  0.00000E+00  9.000E+00
      21    -1     0     0   511   502  0.000000000E+00  0.000000000E+00 -6.392078669E+02  6.392078669E+02  0.000000000E+00  0.00000E+00  9.000E+00
      25     1     1     2     0     0  8.061129647E+01  2.313939529E+02  1.658052887E+02  3.211817808E+02  1.250000000E+02  0.00000E+00  9.000E+00
      25     1     1     2     0     0 -9.464248975E+00 -2.408101866E+02 -2.823537734E+01  2.729493626E+02  1.250000000E+02  0.00000E+00  9.000E+00
      21     1     1     2   511   501 -7.114704749E+01  9.416233772E+00 -4.077937474E+02  4.140607543E+02  5.394796609E-06  0.00000E+00  9.000E+00
#rwgt            1           1   2.5300477174360257E-002           3      129342           0
</event>
<event>
      5   9999  3.19816E-02  7.06001E+01 -1.00000E+00  1.31033E-01
      21    -1     0     0   502   501  0.000000000E+00  0.000000000E+00  3.817050593E+02  3.817050593E+02  0.000000000E+00  0.00000E+00  9.000E+00
      21    -1     0     0   512   502  0.000000000E+00  0.000000000E+00 -1.581895205E+03  1.581895205E+03  0.000000000E+00  0.00000E+00  9.000E+00
      25     1     1     2     0     0 -2.375650328E+01  1.495481572E+02  2.326492276E+02  3.044333849E+02  1.250000000E+02  0.00000E+00  9.000E+00
      25     1     1     2     0     0 -1.306675709E+01 -2.097845457E+02 -2.087717523E+01  2.454407305E+02  1.250000000E+02  0.00000E+00  9.000E+00
      21     1     1     2   512   501  3.682326037E+01  6.023638845E+01 -1.411962198E+03  1.413726149E+03  1.525878906E-05  0.00000E+00  9.000E+00
#rwgt            2          11   5.9969756622381860E-003           3      129639           0
</event>
<event>
      5   9999  3.19816E-02  1.15754E+01 -1.00000E+00  1.88688E-01
      21    -1     0     0   502   501  0.000000000E+00  0.000000000E+00  1.627852426E+02  1.627852426E+02  0.000000000E+00  0.00000E+00  9.000E+00
      21    -1     0     0   511   502  0.000000000E+00  0.000000000E+00 -8.304116173E+02  8.304116173E+02  0.000000000E+00  0.00000E+00  9.000E+00
      25     1     1     2     0     0 -1.456703857E+02 -1.016497789E+02  6.298871005E+01  2.261528607E+02  1.250000000E+02  0.00000E+00  9.000E+00
      25     1     1     2     0     0  1.436265539E+02  1.130432935E+02 -7.044639648E+02  7.384455640E+02  1.250000000E+02  0.00000E+00  9.000E+00
      21     1     1     2   511   501  2.043831864E+00 -1.139351460E+01 -2.615111987E+01  2.859843517E+01  0.000000000E+00  0.00000E+00  9.000E+00
#rwgt            1           1   3.4567248285248903E-002           3      129659           0
</event>
<event>
      5   9999  3.19816E-02  4.87836E+01 -1.00000E+00  1.39689E-01
       1    -1     0     0   502     0  0.000000000E+00  0.000000000E+00  6.655494391E+02  6.655494391E+02  0.000000000E+00  0.00000E+00  9.000E+00
      21    -1     0     0   501   502  0.000000000E+00  0.000000000E+00 -6.620944698E+02  6.620944698E+02  0.000000000E+00  0.00000E+00  9.000E+00
      25     1     1     2     0     0  7.420703960E+01 -8.522666747E+01 -5.343973262E+02  5.603354101E+02  1.250000000E+02  0.00000E+00  9.000E+00
      25     1     1     2     0     0 -1.072628522E+02  4.934972841E+01 -4.871625976E+01  1.787148262E+02  1.250000000E+02  0.00000E+00  9.000E+00
       1     1     1     2   501     0  3.305581256E+01  3.587693906E+01  5.865685552E+02  5.885936726E+02  7.629394531E-06  0.00000E+00  9.000E+00
#rwgt            1           1   3.5505408611458358E-002           3      129954           0
</event>
<event>
      5   9999  3.19816E-02  8.32592E+01 -1.00000E+00  1.27516E-01
      21    -1     0     0   502   511  0.000000000E+00  0.000000000E+00  2.490380589E+03  2.490380589E+03  0.000000000E+00  0.00000E+00  9.000E+00
      21    -1     0     0   501   502  0.000000000E+00  0.000000000E+00 -5.107855083E+02  5.107855083E+02  0.000000000E+00  0.00000E+00  9.000E+00
      25     1     1     2     0     0 -5.831503537E+02  4.746714782E+02  5.972004145E+01  7.645710109E+02  1.250000000E+02  0.00000E+00  9.000E+00
      25     1     1     2     0     0  6.288831689E+02 -5.442459166E+02  9.731369550E+02  1.286203013E+03  1.250000000E+02  0.00000E+00  9.000E+00
      21     1     1     2   501   511 -4.573281520E+01  6.957443835E+01  9.467380843E+02  9.503920733E+02  1.525878906E-05  0.00000E+00  9.000E+00
#rwgt            1           1   3.3280502979694863E-002           3      130049           0
</event>
<event>
      5   9999  3.19816E-02  1.62734E+02 -1.00000E+00  1.15008E-01
      21    -1     0     0   502   501  0.000000000E+00  0.000000000E+00  4.973570141E+02  4.973570141E+02  0.000000000E+00  0.00000E+00  9.000E+00
       2    -1     0     0   501     0  0.000000000E+00  0.000000000E+00 -6.489291474E+02  6.489291474E+02  0.000000000E+00  0.00000E+00  9.000E+00
      25     1     1     2     0     0  1.127401384E+02 -9.590582591E+01 -2.573407932E+02  3.221141879E+02  1.250000000E+02  0.00000E+00  9.000E+00
      25     1     1     2     0     0  4.347885834E+01  5.032053334E+01  4.347047277E+02  4.571824226E+02  1.250000000E+02  0.00000E+00  9.000E+00
       2     1     1     2   502     0 -1.562189967E+02  4.558529257E+01 -3.289360678E+02  3.669895510E+02  5.394796609E-06  0.00000E+00  9.000E+00
#rwgt            1           1   2.9047345153148021E-002           3      130158           0
</event>
<event>
      5   9999  3.19816E-02  3.75533E+01 -1.00000E+00  1.46561E-01
      21    -1     0     0   502   501  0.000000000E+00  0.000000000E+00  2.949718776E+02  2.949718776E+02  0.000000000E+00  0.00000E+00  9.000E+00
      21    -1     0     0   501   511  0.000000000E+00  0.000000000E+00 -2.996766872E+02  2.996766872E+02  0.000000000E+00  0.00000E+00  9.000E+00
      25     1     1     2     0     0 -3.151723225E+01  1.257259688E+02  3.575533649E+00  1.801059122E+02  1.250000000E+02  0.00000E+00  9.000E+00
      25     1     1     2     0     0  3.068689708E+01 -1.632701343E+02  1.471051584E+02  2.546836274E+02  1.250000000E+02  0.00000E+00  9.000E+00
      21     1     1     2   502   511  8.303351612E-01  3.754416546E+01 -1.553855017E+02  1.598590252E+02  1.907348633E-06  0.00000E+00  9.000E+00
#rwgt            1           1   2.4828903822314615E-002           3      130209           0
</event>
<event>
      5   9999  3.19816E-02  3.78071E+01 -1.00000E+00  1.46375E-01
      21    -1     0     0   502   501  0.000000000E+00  0.000000000E+00  1.238046004E+03  1.238046004E+03  0.000000000E+00  0.00000E+00  9.000E+00
      21    -1     0     0   501   512  0.000000000E+00  0.000000000E+00 -2.910593448E+02  2.910593448E+02  0.000000000E+00  0.00000E+00  9.000E+00
      25     1     1     2     0     0  2.438593322E+02  5.303047264E+02  5.273829996E+02  7.965226331E+02  1.250000000E+02  0.00000E+00  9.000E+00
      25     1     1     2     0     0 -2.331949780E+02 -4.940328263E+02  4.073991301E+02  6.928545175E+02  1.250000000E+02  0.00000E+00  9.000E+00
      21     1     1     2   502   512 -1.066435411E+01 -3.627190014E+01  1.220452938E+01  3.972819811E+01  4.460403188E-07  0.00000E+00  9.000E+00
#rwgt            1           1   3.6392992362338603E-002           3      130289           0
</event>
<event>
      5   9999  3.19816E-02  6.29324E+01 -1.00000E+00  1.33605E-01
      21    -1     0     0   502   501  0.000000000E+00  0.000000000E+00  7.040529995E+02  7.040529995E+02  0.000000000E+00  0.00000E+00  9.000E+00
      -4    -1     0     0     0   502  0.000000000E+00  0.000000000E+00 -2.701262129E+02  2.701262129E+02  0.000000000E+00  0.00000E+00  9.000E+00
      25     1     1     2     0     0  3.800530406E+01  6.031927084E+01  6.039225136E+02  6.208302666E+02  1.250000000E+02  0.00000E+00  9.000E+00
      25     1     1     2     0     0 -6.561628350E+01 -3.767354804E+00  2.940371241E+01  1.442541782E+02  1.250000000E+02  0.00000E+00  9.000E+00
      -4     1     1     2     0   501  2.761097944E+01 -5.655191604E+01 -1.993994394E+02  2.090947676E+02  3.814697266E-06  0.00000E+00  9.000E+00
#rwgt            1           1   3.0025076347970334E-002           3      130408           0
</event>
<event>
      5   9999  3.19816E-02  2.80382E+02 -1.00000E+00  1.06555E-01
      21    -1     0     0   502   501  0.000000000E+00  0.000000000E+00  1.281061048E+03  1.281061048E+03  0.000000000E+00  0.00000E+00  9.000E+00
       2    -1     0     0   501     0  0.000000000E+00  0.000000000E+00 -2.308773065E+03  2.308773065E+03  0.000000000E+00  0.00000E+00  9.000E+00
      25     1     1     2     0     0 -3.287726289E+02  7.174410767E+01  6.671856642E+02  7.576281205E+02  1.250000000E+02  0.00000E+00  9.000E+00
      25     1     1     2     0     0  4.617426153E+02  1.751023134E+02  4.435551536E+02  6.754503959E+02  1.250000000E+02  0.00000E+00  9.000E+00
       2     1     1     2   502     0 -1.329699864E+02 -2.468464211E+02 -2.138452835E+03  2.156755596E+03  3.051757812E-05  0.00000E+00  9.000E+00
#rwgt            1           1   2.8152561553961314E-002           3      130473           0
</event>
<event>
      5   9999  3.19816E-02  1.66848E+02 -1.00000E+00  1.14590E-01
      21    -1     0     0   502   501  0.000000000E+00  0.000000000E+00  4.552945882E+02  4.552945882E+02  0.000000000E+00  0.00000E+00  9.000E+00
      21    -1     0     0   511   502  0.000000000E+00  0.000000000E+00 -3.014342249E+02  3.014342249E+02  0.000000000E+00  0.00000E+00  9.000E+00
      25     1     1     2     0     0 -1.800508056E+02  7.541928580E+01 -1.117569725E+02  2.573343781E+02  1.250000000E+02  0.00000E+00  9.000E+00
      25     1     1     2     0     0  1.679141749E+02  9.098668262E+01  2.389160852E+02  3.304234288E+02  1.250000000E+02  0.00000E+00  9.000E+00
      21     1     1     2   511   501  1.213663066E+01 -1.664059684E+02  2.670125056E+01  1.689710061E+02  2.185142372E-06  0.00000E+00  9.000E+00
#rwgt            2          11   3.3115584396477904E-003           3      130552           0
</event>
<event>
      5   9999  3.19816E-02  6.90905E+01 -1.00000E+00  1.31509E-01
      21    -1     0     0   512   501  0.000000000E+00  0.000000000E+00  7.370938247E+02  7.370938247E+02  0.000000000E+00  0.00000E+00  9.000E+00
      21    -1     0     0   501   502  0.000000000E+00  0.000000000E+00 -3.451078511E+02  3.451078511E+02  0.000000000E+00  0.00000E+00  9.000E+00
      25     1     1     2     0     0  7.902497648E+01  2.736644557E+02  7.648022898E+01  3.203301526E+02  1.250000000E+02  0.00000E+00  9.000E+00
      25     1     1     2     0     0 -1.474169410E+02 -2.834645665E+02 -8.662050310E+01  3.538531143E+02  1.250000000E+02  0.00000E+00  9.000E+00
      21     1     1     2   512   502  6.839196448E+01  9.800110788E+00  4.021262477E+02  4.080184090E+02  0.000000000E+00  0.00000E+00  9.000E+00
#rwgt            1           1   2.8900936900286271E-002           3      130587           0
</event>
<event>
      5   9999  3.19816E-02  3.75361E+01 -1.00000E+00  1.46574E-01
      21    -1     0     0   502   501  0.000000000E+00  0.000000000E+00  7.053349359E+01  7.053349359E+01  0.000000000E+00  0.00000E+00  9.000E+00
      21    -1     0     0   501   511  0.000000000E+00  0.000000000E+00 -8.580332867E+02  8.580332867E+02  0.000000000E+00  0.00000E+00  9.000E+00
      25     1     1     2     0     0 -4.520859762E+01 -5.483602951E+01 -6.566048755E+02  6.721649872E+02  1.250000000E+02  0.00000E+00  9.000E+00
      25     1     1     2     0     0  8.258811666E+01  5.141053411E+01 -4.816676441E+01  1.655562660E+02  1.250000000E+02  0.00000E+00  9.000E+00
      21     1     1     2   502   511 -3.737951904E+01  3.425495400E+00 -8.272815320E+01  9.084552711E+01  9.536743164E-07  0.00000E+00  9.000E+00
#rwgt            1           1   2.9688777790069478E-002           3      130692           0
</event>
<event>
      5   9999  3.19816E-02  4.27146E+01 -1.00000E+00  1.43094E-01
      21    -1     0     0   502   501  0.000000000E+00  0.000000000E+00  1.421383065E+02  1.421383065E+02  0.000000000E+00  0.00000E+00  9.000E+00
      21    -1     0     0   501   512  0.000000000E+00  0.000000000E+00 -4.330306700E+02  4.330306700E+02  0.000000000E+00  0.00000E+00  9.000E+00
      25     1     1     2     0     0  3.360267184E+01 -7.527697667E+01  5.961867392E+01  1.611680770E+02  1.250000000E+02  0.00000E+00  9.000E+00
      25     1     1     2     0     0 -7.596276907E+01  6.978546362E+01 -1.993242890E+02  2.568959427E+02  1.250000000E+02  0.00000E+00  9.000E+00
      21     1     1     2   502   512  4.236009723E+01  5.491513049E+00 -1.511867484E+02  1.571049568E+02  2.697398305E-06  0.00000E+00  9.000E+00
#rwgt            1           1   2.4908974864964357E-002           3      130746           0
</event>
<event>
      5   9999  3.19816E-02  2.46763E+01 -1.00000E+00  1.59176E-01
      21    -1     0     0   502   501  0.000000000E+00  0.000000000E+00  3.414747606E+02  3.414747606E+02  0.000000000E+00  0.00000E+00  9.000E+00
      21    -1     0     0   511   502  0.000000000E+00  0.000000000E+00 -8.861674422E+01  8.861674422E+01  0.000000000E+00  0.00000E+00  9.000E+00
      25     1     1     2     0     0 -5.072373116E+01  2.233824902E+01  2.180993314E+02  2.574183611E+02  1.250000000E+02  0.00000E+00  9.000E+00
      25     1     1     2     0     0  5.765911951E+01  1.343372631E+00  4.655411679E+01  1.453226221E+02  1.250000000E+02  0.00000E+00  9.000E+00
      21     1     1     2   511   501 -6.935388350E+00 -2.368162165E+01 -1.179543187E+01  2.735052154E+01  4.768371582E-07  0.00000E+00  9.000E+00
#rwgt            1           1   5.7313425530021243E-002           3      130843           0
</event>
<event>
      5   9999  3.19816E-02  2.06084E+02 -1.00000E+00  1.11176E-01
      21    -1     0     0   502   501  0.000000000E+00  0.000000000E+00  2.079951451E+02  2.079951451E+02  0.000000000E+00  0.00000E+00  9.000E+00
       2    -1     0     0   501     0  0.000000000E+00  0.000000000E+00 -2.369820094E+03  2.369820094E+03  0.000000000E+00  0.00000E+00  9.000E+00
      25     1     1     2     0     0 -1.456087741E+02  7.544828474E+01 -2.205798358E+02  3.019516894E+02  1.250000000E+02  0.00000E+00  9.000E+00
      25     1     1     2     0     0  1.645901167E+02  1.297596726E+02  7.016744477E+01  2.539211481E+02  1.250000000E+02  0.00000E+00  9.000E+00
       2     1     1     2   502     0 -1.898134259E+01 -2.052079574E+02 -2.011412558E+03  2.021942402E+03  3.737624730E-05  0.00000E+00  9.000E+00
#rwgt            1           1   2.9266640753007608E-002           3      130953           0
</event>
<event>
      5   9999  3.19816E-02  1.48226E+02 -1.00000E+00  1.16599E-01
      21    -1     0     0   502   501  0.000000000E+00  0.000000000E+00  2.385208253E+02  2.385208253E+02  0.000000000E+00  0.00000E+00  9.000E+00
      21    -1     0     0   511   502  0.000000000E+00  0.000000000E+00 -1.335296351E+03  1.335296351E+03  0.000000000E+00  0.00000E+00  9.000E+00
      25     1     1     2     0     0 -2.904787137E+02  1.075301434E+02 -2.518627991E+02  4.183305922E+02  1.250000000E+02  0.00000E+00  9.000E+00
      25     1     1     2     0     0  3.810285478E+02 -2.248834595E+02 -2.135107394E+02  5.069192839E+02  1.250000000E+02  0.00000E+00  9.000E+00
      21     1     1     2   511   501 -9.054983416E+01  1.173533160E+02 -6.314019870E+02  6.485672999E+02  7.629394531E-06  0.00000E+00  9.000E+00
#rwgt            1           1   2.8621169611816290E-002           3      130998           0
</event>
<event>
      5   9999  3.19816E-02  4.03764E+01 -1.00000E+00  1.44588E-01
      21    -1     0     0   502   501  0.000000000E+00  0.000000000E+00  5.993864450E+02  5.993864450E+02  0.000000000E+00  0.00000E+00  9.000E+00
      21    -1     0     0   512   502  0.000000000E+00  0.000000000E+00 -2.215418455E+03  2.215418455E+03  0.000000000E+00  0.00000E+00  9.000E+00
      25     1     1     2     0     0  5.942046321E+02 -3.136353443E+02 -1.683154468E+03  1.816612297E+03  1.250000000E+02  0.00000E+00  9.000E+00
      25     1     1     2     0     0 -6.019867124E+02  3.532547105E+02  2.940964718E+02  7.676552788E+02  1.250000000E+02  0.00000E+00  9.000E+00
      21     1     1     2   512   501  7.782080278E+00 -3.961936618E+01 -2.269740142E+02  2.305373247E+02  0.000000000E+00  0.00000E+00  9.000E+00
#rwgt            1           1   3.6981421560668276E-002           3      131036           0
</event>
<event>
      5   9999  3.19816E-02  4.60526E+01 -1.00000E+00  1.41144E-01
      21    -1     0     0   502   501  0.000000000E+00  0.000000000E+00  1.164728620E+03  1.164728620E+03  0.000000000E+00  0.00000E+00  9.000E+00
      21    -1     0     0   511   502  0.000000000E+00  0.000000000E+00 -5.176785147E+02  5.176785147E+02  0.000000000E+00  0.00000E+00  9.000E+00
      25     1     1     2     0     0 -2.915706090E+02 -6.784735848E+01  1.046818995E+03  1.095934164E+03  1.250000000E+02  0.00000E+00  9.000E+00
      25     1     1     2     0     0  3.198347479E+02  3.148828151E+01 -2.398270536E+02  4.200330862E+02  1.250000000E+02  0.00000E+00  9.000E+00
      21     1     1     2   511   501 -2.826413891E+01  3.635907697E+01 -1.599418363E+02  1.664398841E+02  0.000000000E+00  0.00000E+00  9.000E+00
#rwgt            1           1   3.0662687092209567E-002           3      131153           0
</event>
<event>
      5   9999  3.19816E-02  3.42239E+01 -1.00000E+00  1.49170E-01
      21    -1     0     0   502   501  0.000000000E+00  0.000000000E+00  1.298684779E+03  1.298684779E+03  0.000000000E+00  0.00000E+00  9.000E+00
      21    -1     0     0   512   502  0.000000000E+00  0.000000000E+00 -2.265205222E+02  2.265205222E+02  0.000000000E+00  0.00000E+00  9.000E+00
      25     1     1     2     0     0  9.963152741E+01 -4.070701406E+02  1.071367350E+02  4.502619467E+02  1.250000000E+02  0.00000E+00  9.000E+00
      25     1     1     2     0     0 -6.741754737E+01  3.955145317E+02  9.474558361E+02  1.036472109E+03  1.250000000E+02  0.00000E+00  9.000E+00
      21     1     1     2   512   501 -3.221398004E+01  1.155560896E+01  1.757168531E+01  3.847124553E+01  5.331201500E-07  0.00000E+00  9.000E+00
#rwgt            1           1   3.0548707838144798E-002           3      131317           0
</event>
<event>
      5   9999  3.19816E-02  7.79667E+01 -1.00000E+00  1.28893E-01
      21    -1     0     0   511   501  0.000000000E+00  0.000000000E+00  1.191819511E+03  1.191819511E+03  0.000000000E+00  0.00000E+00  9.000E+00
      21    -1     0     0   501   502  0.000000000E+00  0.000000000E+00 -2.541590139E+02  2.541590139E+02  0.000000000E+00  0.00000E+00  9.000E+00
      25     1     1     2     0     0  1.381522668E+02  1.769447319E+02  9.262008583E+02  9.611807931E+02  1.250000000E+02  0.00000E+00  9.000E+00
      25     1     1     2     0     0 -1.556271508E+02 -1.009615720E+02 -1.741423559E+02  2.834847601E+02  1.250000000E+02  0.00000E+00  9.000E+00
      21     1     1     2   511   502  1.747488406E+01 -7.598315990E+01  1.856019947E+02  2.013129718E+02  2.697398305E-06  0.00000E+00  9.000E+00
#rwgt            1           1   2.8477028532962165E-002           3      131534           0
</event>
<event>
      5   9999  3.19816E-02  1.51592E+02 -1.00000E+00  1.16212E-01
      21    -1     0     0   502   501  0.000000000E+00  0.000000000E+00  9.401883640E+02  9.401883640E+02  0.000000000E+00  0.00000E+00  9.000E+00
      21    -1     0     0   512   502  0.000000000E+00  0.000000000E+00 -6.872869860E+02  6.872869860E+02  0.000000000E+00  0.00000E+00  9.000E+00
      25     1     1     2     0     0 -4.912638133E+02 -4.485325336E+02 -8.124303310E+01  6.817235498E+02  1.250000000E+02  0.00000E+00  9.000E+00
      25     1     1     2     0     0  5.988793358E+02  3.417662734E+02  3.663778378E+02  7.907707408E+02  1.250000000E+02  0.00000E+00  9.000E+00
      21     1     1     2   512   501 -1.076155225E+02  1.067662602E+02 -3.223342665E+01  1.549810594E+02  2.023048729E-06  0.00000E+00  9.000E+00
#rwgt            1           1   2.2915185445221180E-002           3      131618           0
</event>
<event>
      5   9999  3.19816E-02  1.40197E+01 -1.00000E+00  1.80194E-01
      21    -1     0     0   502   511  0.000000000E+00  0.000000000E+00  5.139050242E+02  5.139050242E+02  0.000000000E+00  0.00000E+00  9.000E+00
      21    -1     0     0   501   502  0.000000000E+00  0.000000000E+00 -1.485775289E+02  1.485775289E+02  0.000000000E+00  0.00000E+00  9.000E+00
      25     1     1     2     0     0  1.432008307E+01  1.755480669E+02 -1.043194630E-01  2.159796274E+02  1.250000000E+02  0.00000E+00  9.000E+00
      25     1     1     2     0     0 -1.715126113E+00 -1.816853687E+02  2.635058812E+02  3.436173224E+02  1.250000000E+02  0.00000E+00  9.000E+00
      21     1     1     2   501   511 -1.260495696E+01  6.137301801E+00  1.019259336E+02  1.028856032E+02  1.348699152E-06  0.00000E+00  9.000E+00
#rwgt            1           1   2.8151475893649351E-002           3      131725           0
</event>
<event>
      5   9999  3.19816E-02  1.83283E+02 -1.00000E+00  1.13046E-01
       1    -1     0     0   502     0  0.000000000E+00  0.000000000E+00  2.004164986E+03  2.004164986E+03  0.000000000E+00  0.00000E+00  9.000E+00
      21    -1     0     0   501   502  0.000000000E+00  0.000000000E+00 -1.204060791E+03  1.204060791E+03  0.000000000E+00  0.00000E+00  9.000E+00
      25     1     1     2     0     0  1.113106932E+03 -2.087673178E+02 -3.044269438E+02  1.179360674E+03  1.250000000E+02  0.00000E+00  9.000E+00
      25     1     1     2     0     0 -1.036111253E+03  4.244174219E+01  1.479852808E+02  1.054918230E+03  1.250000000E+02  0.00000E+00  9.000E+00
       1     1     1     2   501     0 -7.699567899E+01  1.663255756E+02  9.565458579E+02  9.739468723E+02  1.078959322E-05  0.00000E+00  9.000E+00
#rwgt            2          17   9.3708107113663443E-004           3      132054           0
</event>
<event>
      5   9999  3.19816E-02  4.72759E+01 -1.00000E+00  1.40478E-01
      21    -1     0     0   502   501  0.000000000E+00  0.000000000E+00  1.011406604E+03  1.011406604E+03  0.000000000E+00  0.00000E+00  9.000E+00
      21    -1     0     0   501   511  0.000000000E+00  0.000000000E+00 -2.113396978E+02  2.113396978E+02  0.000000000E+00  0.00000E+00  9.000E+00
      25     1     1     2     0     0  1.215945668E+02  3.723443106E+02  1.628037977E+02  4.422166900E+02  1.250000000E+02  0.00000E+00  9.000E+00
      25     1     1     2     0     0 -8.803644619E+01 -3.390446806E+02  6.315266022E+02  7.329069249E+02  1.250000000E+02  0.00000E+00  9.000E+00
      21     1     1     2   502   511 -3.355812062E+01 -3.329963007E+01  5.736506424E+00  4.762268712E+01  5.900558792E-07  0.00000E+00  9.000E+00
#rwgt            1           1   2.8401334758754584E-002           3      132073           0
</event>
<event>
      5   9999  3.19816E-02  6.90539E+02 -1.00000E+00  9.50253E-02
      21    -1     0     0   502   512  0.000000000E+00  0.000000000E+00  3.639363646E+02  3.639363646E+02  0.000000000E+00  0.00000E+00  9.000E+00
      21    -1     0     0   501   502  0.000000000E+00  0.000000000E+00 -2.511547143E+03  2.511547143E+03  0.000000000E+00  0.00000E+00  9.000E+00
      25     1     1     2     0     0  1.730757670E+02  4.026965574E+02 -1.030949950E+03  1.127210068E+03  1.250000000E+02  0.00000E+00  9.000E+00
      25     1     1     2     0     0 -8.722334255E+01  2.824850252E+02 -9.970594959E+02  1.047453264E+03  1.250000000E+02  0.00000E+00  9.000E+00
      21     1     1     2   501   512 -8.585242441E+01 -6.851815826E+02 -1.196013322E+02  7.008201757E+02  1.152329061E-05  0.00000E+00  9.000E+00
#rwgt            2          11   1.9221254269769679E-002           3      132294           0
</event>
<event>
      5   9999  3.19816E-02  1.05956E+02 -1.00000E+00  1.22708E-01
      21    -1     0     0   502   511  0.000000000E+00  0.000000000E+00  5.948000406E+02  5.948000406E+02  0.000000000E+00  0.00000E+00  9.000E+00
      21    -1     0     0   501   502  0.000000000E+00  0.000000000E+00 -4.986356092E+02  4.986356092E+02  0.000000000E+00  0.00000E+00  9.000E+00
      25     1     1     2     0     0 -8.811067368E+01 -3.281464775E+02 -9.230363799E+01  3.736155285E+02  1.250000000E+02  0.00000E+00  9.000E+00
      25     1     1     2     0     0  6.212078226E+01  4.308653392E+02 -5.312208788E+01  4.560163247E+02  1.250000000E+02  0.00000E+00  9.000E+00
      21     1     1     2   501   511  2.598989142E+01 -1.027188617E+02  2.415901573E+02  2.638037966E+02  2.697398305E-06  0.00000E+00  9.000E+00
#rwgt            2          11   2.4858548471846332E-003           3      132314           0
</event>
<event>
      5   9999  3.19816E-02  1.54952E+01 -1.00000E+00  1.76065E-01
      21    -1     0     0   512   501  0.000000000E+00  0.000000000E+00  1.636412855E+03  1.636412855E+03  0.000000000E+00  0.00000E+00  9.000E+00
      21    -1     0     0   501   502  0.000000000E+00  0.000000000E+00 -4.238858834E+01  4.238858834E+01  0.000000000E+00  0.00000E+00  9.000E+00
      25     1     1     2     0     0  1.727006983E+02 -1.423948051E+02  8.165667004E+02  8.558668050E+02  1.250000000E+02  0.00000E+00  9.000E+00
      25     1     1     2     0     0 -1.585759308E+02  1.487660997E+02  6.911907887E+02  7.352872804E+02  1.250000000E+02  0.00000E+00  9.000E+00
      21     1     1     2   512   502 -1.412476756E+01 -6.371294599E+00  8.626677779E+01  8.764735822E+01  9.536743164E-07  0.00000E+00  9.000E+00
#rwgt            1           1   4.2747518693743353E-002           3      132334           0
</event>
<event>
      5   9999  3.19816E-02  2.51963E+01 -1.00000E+00  1.58497E-01
      21    -1     0     0   502   501  0.000000000E+00  0.000000000E+00  3.290947120E+02  3.290947120E+02  0.000000000E+00  0.00000E+00  9.000E+00
      21    -1     0     0   501   511  0.000000000E+00  0.000000000E+00 -2.382546541E+02  2.382546541E+02  0.000000000E+00  0.00000E+00  9.000E+00
      25     1     1     2     0     0 -1.817438715E+02  1.642408945E+02  1.380545764E+01  2.753570354E+02  1.250000000E+02  0.00000E+00  9.000E+00
      25     1     1     2     0     0  1.671496805E+02 -1.437015838E+02  8.193847191E+01  2.663232511E+02  1.250000000E+02  0.00000E+00  9.000E+00
      21     1     1     2   502   511  1.459419107E+01 -2.053931066E+01 -4.903871710E+00  2.566907971E+01  4.951133646E-07  0.00000E+00  9.000E+00
#rwgt            1           1   2.6325410837570003E-002           3      132539           0
</event>
<event>
      5   9999  3.19816E-02  1.38645E+02 -1.00000E+00  1.17765E-01
      21    -1     0     0   512   501  0.000000000E+00  0.000000000E+00  1.850688564E+03  1.850688564E+03  0.000000000E+00  0.00000E+00  9.000E+00
      21    -1     0     0   501   502  0.000000000E+00  0.000000000E+00 -1.116622121E+03  1.116622121E+03  0.000000000E+00  0.00000E+00  9.000E+00
      25     1     1     2     0     0 -1.514733265E+01  8.561275778E+02 -8.110770613E+02  1.186024819E+03  1.250000000E+02  0.00000E+00  9.000E+00
      25     1     1     2     0     0  5.629302267E+01 -7.237289167E+02  1.390778578E+03  1.573798749E+03  1.250000000E+02  0.00000E+00  9.000E+00
      21     1     1     2   512   502 -4.114569002E+01 -1.323986611E+02  1.543649265E+02  2.074871172E+02  0.000000000E+00  0.00000E+00  9.000E+00
#rwgt            2          11   2.6361184836653638E-002           3      132715           0
</event>
<event>
      5   9999  3.19816E-02  3.05872E+01 -1.00000E+00  1.52457E-01
      21    -1     0     0   511   501  0.000000000E+00  0.000000000E+00  1.101115440E+03  1.101115440E+03  0.000000000E+00  0.00000E+00  9.000E+00
      21    -1     0     0   501   502  0.000000000E+00  0.000000000E+00 -2.087034732E+02  2.087034732E+02  0.000000000E+00  0.00000E+00  9.000E+00
      25     1     1     2     0     0 -1.445926568E+02 -4.925084061E+01  7.975399026E+02  8.216006195E+02  1.250000000E+02  0.00000E+00  9.000E+00
      25     1     1     2     0     0  1.211381577E+02  2.961763867E+01 -1.559257961E+02  2.355621184E+02  1.250000000E+02  0.00000E+00  9.000E+00
      21     1     1     2   511   502  2.345449916E+01  1.963320194E+01  2.507978606E+02  2.526561755E+02  0.000000000E+00  0.00000E+00  9.000E+00
#rwgt            1           1   2.8321475993416893E-002           3      132735           0
</event>
<event>
      5   9999  3.19816E-02  9.42625E+01 -1.00000E+00  1.24993E-01
      21    -1     0     0   502   512  0.000000000E+00  0.000000000E+00  5.476572141E+02  5.476572141E+02  0.000000000E+00  0.00000E+00  9.000E+00
      21    -1     0     0   501   502  0.000000000E+00  0.000000000E+00 -1.539149349E+03  1.539149349E+03  0.000000000E+00  0.00000E+00  9.000E+00
      25     1     1     2     0     0 -4.819948412E+02 -5.012945009E+02 -5.814069435E+02  9.150269054E+02  1.250000000E+02  0.00000E+00  9.000E+00
      25     1     1     2     0     0  5.744058682E+02  4.827033895E+02 -5.940145292E+02  9.651025461E+02  1.250000000E+02  0.00000E+00  9.000E+00
      21     1     1     2   501   512 -9.241102694E+01  1.859111142E+01  1.839293376E+02  2.066771118E+02  4.672030912E-06  0.00000E+00  9.000E+00
#rwgt            1           1   3.1416988152335748E-002           3      132945           0
</event>
<event>
      5   9999  3.19816E-02  1.07023E+02 -1.00000E+00  1.22517E-01
      21    -1     0     0   502   511  0.000000000E+00  0.000000000E+00  2.004015068E+03  2.004015068E+03  0.000000000E+00  0.00000E+00  9.000E+00
      21    -1     0     0   501   502  0.000000000E+00  0.000000000E+00 -1.088974426E+03  1.088974426E+03  0.000000000E+00  0.00000E+00  9.000E+00
      25     1     1     2     0     0  3.015936929E+01 -6.161595721E+02  9.187214006E+02  1.113658932E+03  1.250000000E+02  0.00000E+00  9.000E+00
      25     1     1     2     0     0  6.826671352E+01  6.581853709E+02 -8.735019182E+02  1.102950102E+03  1.250000000E+02  0.00000E+00  9.000E+00
      21     1     1     2   501   511 -9.842608280E+01 -4.202579877E+01  8.698211591E+02  8.763804598E+02  1.525878906E-05  0.00000E+00  9.000E+00
#rwgt            1           1   2.7140405229783820E-002           3      133028           0
</event>
<event>
      5   9999  3.19816E-02  1.77735E+02 -1.00000E+00  1.13546E-01
      21    -1     0     0   512   501  0.000000000E+00  0.000000000E+00  1.270159336E+02  1.270159336E+02  0.000000000E+00  0.00000E+00  9.000E+00
      21    -1     0     0   501   502  0.000000000E+00  0.000000000E+00 -2.437439361E+03  2.437439361E+03  0.000000000E+00  0.00000E+00  9.000E+00
      25     1     1     2     0     0  2.794099648E+02 -9.659975909E+01 -1.195028181E+03  1.237383851E+03  1.250000000E+02  0.00000E+00  9.000E+00
      25     1     1     2     0     0 -1.030730224E+02  1.188502196E+02 -1.130946077E+03  1.148657239E+03  1.250000000E+02  0.00000E+00  9.000E+00
      21     1     1     2   512   502 -1.763369424E+02 -2.225046046E+01  1.555083022E+01  1.784142051E+02  3.825856813E-06  0.00000E+00  9.000E+00
#rwgt            1           1   7.1830553194213193E-002           3      133154           0
</event>
<event>
      5   9999  3.19816E-02  1.34699E+02 -1.00000E+00  1.18276E-01
      21    -1     0     0   502   511  0.000000000E+00  0.000000000E+00  5.952462023E+02  5.952462023E+02  0.000000000E+00  0.00000E+00  9.000E+00
      21    -1     0     0   501   502  0.000000000E+00  0.000000000E+00 -5.593082391E+02  5.593082391E+02  0.000000000E+00  0.00000E+00  9.000E+00
      25     1     1     2     0     0 -2.896993918E+01  7.804771224E-01  4.325541374E+02  4.511850489E+02  1.250000000E+02  0.00000E+00  9.000E+00
      25     1     1     2     0     0  1.623541307E+02 -1.955131318E+01 -4.953158865E+02  5.363804108E+02  1.250000000E+02  0.00000E+00  9.000E+00
      21     1     1     2   501   511 -1.333841915E+02  1.877083606E+01  9.869971227E+01  1.669889818E+02  1.348699152E-06  0.00000E+00  9.000E+00
#rwgt            1           1   2.8908664192354539E-002           3      133208           0
</event>
<event>
      5   9999  3.19816E-02  2.40319E+01 -1.00000E+00  1.60046E-01
      21    -1     0     0   502   512  0.000000000E+00  0.000000000E+00  3.979545881E+02  3.979545881E+02  0.000000000E+00  0.00000E+00  9.000E+00
      21    -1     0     0   501   502  0.000000000E+00  0.000000000E+00 -1.055478279E+03  1.055478279E+03  0.000000000E+00  0.00000E+00  9.000E+00
      25     1     1     2     0     0 -2.883967428E+02  3.436186437E+02 -5.996385302E+02  7.592350233E+02  1.250000000E+02  0.00000E+00  9.000E+00
      25     1     1     2     0     0  3.020191775E+02 -3.634166294E+02 -2.159147639E+02  5.343513969E+02  1.250000000E+02  0.00000E+00  9.000E+00
      21     1     1     2   501   512 -1.362243467E+01  1.979798570E+01  1.580296035E+02  1.598464467E+02  1.907348633E-06  0.00000E+00  9.000E+00
#rwgt            1           1   2.6741383228368679E-002           3      133310           0
</event>
<event>
      5   9999  3.19816E-02  4.40534E+01 -1.00000E+00  1.42287E-01
      21    -1     0     0   502   501  0.000000000E+00  0.000000000E+00  2.549686115E+02  2.549686115E+02  0.000000000E+00  0.00000E+00  9.000E+00
      21    -1     0     0   501   511  0.000000000E+00  0.000000000E+00 -7.000128151E+02  7.000128151E+02  0.000000000E+00  0.00000E+00  9.000E+00
      25     1     1     2     0     0 -3.368558060E+02 -1.803251701E+02 -3.363143568E+02  5.241386721E+02  1.250000000E+02  0.00000E+00  9.000E+00
      25     1     1     2     0     0  2.953151173E+02  1.656597239E+02 -6.130029599E+01  3.661104873E+02  1.250000000E+02  0.00000E+00  9.000E+00
      21     1     1     2   502   511  4.154068870E+01  1.466544618E+01 -4.742955071E+01  6.473226715E+01  9.536743164E-07  0.00000E+00  9.000E+00
#rwgt            1           1   2.4537364511364033E-002           3      133553           0
</event>
<event>
      5   9999  3.19816E-02  4.77949E+00 -1.00000E+00  2.46489E-01
      21    -1     0     0   512   501  0.000000000E+00  0.000000000E+00  1.168643885E+03  1.168643885E+03  0.000000000E+00  0.00000E+00  9.000E+00
      21    -1     0     0   501   502  0.000000000E+00  0.000000000E+00 -3.601378939E+02  3.601378939E+02  0.000000000E+00  0.00000E+00  9.000E+00
      25     1     1     2     0     0 -2.835876692E+02  5.132819313E+02  1.205802025E+02  6.115920964E+02  1.250000000E+02  0.00000E+00  9.000E+00
      25     1     1     2     0     0  2.883489899E+02 -5.128655255E+02  6.793224346E+02  9.073478701E+02  1.250000000E+02  0.00000E+00  9.000E+00
      21     1     1     2   512   502 -4.761320653E+00 -4.164057891E-01  8.603353745E+00  9.841812018E+00  2.064765462E-07  0.00000E+00  9.000E+00
#rwgt            1           1   2.2067783619049711E-002           3      133694           0
</event>
<event>
      5   9999  3.19816E-02  1.60000E+02 -1.00000E+00  1.15294E-01
      21    -1     0     0   502   501  0.000000000E+00  0.000000000E+00  1.033046796E+02  1.033046796E+02  0.000000000E+00  0.00000E+00  9.000E+00
      21    -1     0     0   501   511  0.000000000E+00  0.000000000E+00 -1.460641897E+03  1.460641897E+03  0.000000000E+00  0.00000E+00  9.000E+00
      25     1     1     2     0     0 -1.248043833E+02  2.303431786E+02 -2.166581570E+02  3.622152275E+02  1.250000000E+02  0.00000E+00  9.000E+00
      25     1     1     2     0     0 -2.461218264E+01 -1.731183897E+02 -7.299414230E+02  7.609304945E+02  1.250000000E+02  0.00000E+00  9.000E+00
      21     1     1     2   502   511  1.494165660E+02 -5.722478893E+01 -4.107376370E+02  4.408008542E+02  0.000000000E+00  0.00000E+00  9.000E+00
#rwgt            1           1   2.8883222267710475E-002           3      134045           0
</event>
<event>
      5   9999  3.19816E-02  4.39433E+01 -1.00000E+00  1.42352E-01
      21    -1     0     0   502   512  0.000000000E+00  0.000000000E+00  1.555332332E+02  1.555332332E+02  0.000000000E+00  0.00000E+00  9.000E+00
      21    -1     0     0   501   502  0.000000000E+00  0.000000000E+00 -8.433093213E+02  8.433093213E+02  0.000000000E+00  0.00000E+00  9.000E+00
      25     1     1     2     0     0 -2.804136712E+02  3.952357209E+01 -4.524175615E+02  5.481793408E+02  1.250000000E+02  0.00000E+00  9.000E+00
      25     1     1     2     0     0  3.160231056E+02 -1.377515614E+01 -2.135256761E+02  4.015950355E+02  1.250000000E+02  0.00000E+00  9.000E+00
      21     1     1     2   501   512 -3.560943441E+01 -2.574841596E+01 -2.183285046E+01  4.906817810E+01  4.129530925E-07  0.00000E+00  9.000E+00
#rwgt            1           1   2.9706268730369335E-002           3      134079           0
</event>
<event>
      5   9999  3.19816E-02  1.99533E+01 -1.00000E+00  1.66453E-01
      21    -1     0     0   502   501  0.000000000E+00  0.000000000E+00  8.307003078E+01  8.307003078E+01  0.000000000E+00  0.00000E+00  9.000E+00
      21    -1     0     0   511   502  0.000000000E+00  0.000000000E+00 -1.694912848E+03  1.694912848E+03  0.000000000E+00  0.00000E+00  9.000E+00
      25     1     1     2     0     0 -1.654372616E+02  6.766412512E+00 -1.478256107E+03  1.492742908E+03  1.250000000E+02  0.00000E+00  9.000E+00
      25     1     1     2     0     0  1.456388765E+02 -4.284625945E+00 -4.872086094E+01  1.980599976E+02  1.250000000E+02  0.00000E+00  9.000E+00
      21     1     1     2   511   501  1.979838512E+01 -2.481786567E+00 -8.486584872E+01  8.717997245E+01  1.348699152E-06  0.00000E+00  9.000E+00
#rwgt            1           1   2.6974823566234766E-002           3      134179           0
</event>
<event>
      5   9999  3.19816E-02  1.28362E+02 -1.00000E+00  1.19139E-01
      21    -1     0     0   512   501  0.000000000E+00  0.000000000E+00  5.229000553E+02  5.229000553E+02  0.000000000E+00  0.00000E+00  9.000E+00
      21    -1     0     0   501   502  0.000000000E+00  0.000000000E+00 -1.434281626E+03  1.434281626E+03  0.000000000E+00  0.00000E+00  9.000E+00
      25     1     1     2     0     0 -5.788465879E+02  4.052614945E+02 -5.755892521E+02  9.199066465E+02  1.250000000E+02  0.00000E+00  9.000E+00
      25     1     1     2     0     0  6.874992252E+02 -3.369133935E+02 -4.215607181E+02  8.828953836E+02  1.250000000E+02  0.00000E+00  9.000E+00
      21     1     1     2   512   502 -1.086526373E+02 -6.834810107E+01  8.576839911E+01  1.543796515E+02  2.336015456E-06  0.00000E+00  9.000E+00
#rwgt            1           1   2.6014534425209929E-002           3      134362           0
</event>
<event>
      5   9999  3.19816E-02  1.19885E+02 -1.00000E+00  1.20386E-01
      21    -1     0     0   502   501  0.000000000E+00  0.000000000E+00  6.758207559E+02  6.758207559E+02  0.000000000E+00  0.00000E+00  9.000E+00
      21    -1     0     0   511   502  0.000000000E+00  0.000000000E+00 -2.614083995E+03  2.614083995E+03  0.000000000E+00  0.00000E+00  9.000E+00
      25     1     1     2     0     0 -2.230969370E+02 -8.240578276E+02 -1.430998614E+03  1.670995386E+03  1.250000000E+02  0.00000E+00  9.000E+00
      25     1     1     2     0     0  3.387770808E+02  8.555309999E+02  1.588392456E+02  9.421030242E+02  1.250000000E+02  0.00000E+00  9.000E+00
      21     1     1     2   511   501 -1.156801438E+02 -3.147317227E+01 -6.661038707E+02  6.768063407E+02  1.078959322E-05  0.00000E+00  9.000E+00
#rwgt            1           1   2.6291888795026037E-002           3      134454           0
</event>
<event>
      5   9999  3.19816E-02  2.59428E+01 -1.00000E+00  1.57556E-01
      21    -1     0     0   502   501  0.000000000E+00  0.000000000E+00  2.054074688E+02  2.054074688E+02  0.000000000E+00  0.00000E+00  9.000E+00
       1    -1     0     0   501     0  0.000000000E+00  0.000000000E+00 -1.699627175E+03  1.699627175E+03  0.000000000E+00  0.00000E+00  9.000E+00
      25     1     1     2     0     0 -1.516712116E+01  1.176952191E+02  7.464419638E+01  1.878269475E+02  1.250000000E+02  0.00000E+00  9.000E+00
      25     1     1     2     0     0  2.741808693E+01 -1.405631587E+02 -4.791458343E+01  1.960371403E+02  1.250000000E+02  0.00000E+00  9.000E+00
       1     1     1     2   502     0 -1.225096577E+01  2.286793963E+01 -1.520949319E+03  1.521170556E+03  2.157918644E-05  0.00000E+00  9.000E+00
#rwgt            1           1   2.5517514343525012E-002           3      134557           0
</event>
<event>
      5   9999  3.19816E-02  6.08514E+01 -1.00000E+00  1.34377E-01
       2    -1     0     0   502     0  0.000000000E+00  0.000000000E+00  9.582220663E+02  9.582220663E+02  0.000000000E+00  0.00000E+00  9.000E+00
      21    -1     0     0   501   502  0.000000000E+00  0.000000000E+00 -4.137059300E+02  4.137059300E+02  0.000000000E+00  0.00000E+00  9.000E+00
      25     1     1     2     0     0  8.430051550E+01  2.856106927E+02 -2.447824180E+02  4.052449591E+02  1.250000000E+02  0.00000E+00  9.000E+00
      25     1     1     2     0     0 -7.778564071E+01 -3.461123731E+02  3.210947364E+02  4.945414144E+02  1.250000000E+02  0.00000E+00  9.000E+00
       2     1     1     2   501     0 -6.514874789E+00  6.050168043E+01  4.682038179E+02  4.721416228E+02  0.000000000E+00  0.00000E+00  9.000E+00
#rwgt            1           1   3.0790663253622699E-002           3      134622           0
</event>
<event>
      5   9999  3.19816E-02  1.17109E+01 -1.00000E+00  1.88148E-01
      21    -1     0     0   502   511  0.000000000E+00  0.000000000E+00  2.885100495E+02  2.885100495E+02  0.000000000E+00  0.00000E+00  9.000E+00
      21    -1     0     0   501   502  0.000000000E+00  0.000000000E+00 -6.639388451E+02  6.639388451E+02  0.000000000E+00  0.00000E+00  9.000E+00
      25     1     1     2     0     0  5.960430870E+01  2.214888692E+02  3.254726054E+01  2.632381374E+02  1.250000000E+02  0.00000E+00  9.000E+00
      25     1     1     2     0     0 -6.279408021E+01 -2.327570291E+02 -5.146473912E+02  5.818985035E+02  1.250000000E+02  0.00000E+00  9.000E+00
      21     1     1     2   501   511  3.189771506E+00  1.126815986E+01  1.066713351E+02  1.073122537E+02  1.907348633E-06  0.00000E+00  9.000E+00
#rwgt            1           1   2.8266894579491750E-002           3      134729           0
</event>
<event>
      5   9999  3.19816E-02  2.84646E+01 -1.00000E+00  1.54642E-01
      21    -1     0     0   502   501  0.000000000E+00  0.000000000E+00  2.969684449E+02  2.969684449E+02  0.000000000E+00  0.00000E+00  9.000E+00
      21    -1     0     0   512   502  0.000000000E+00  0.000000000E+00 -6.260084027E+02  6.260084027E+02  0.000000000E+00  0.00000E+00  9.000E+00
      25     1     1     2     0     0  2.285333896E+02 -9.161669695E+01  1.765348914E+02  3.277357124E+02  1.250000000E+02  0.00000E+00  9.000E+00
      25     1     1     2     0     0 -2.466327930E+02  6.964746994E+01 -4.692918290E+02  5.491250545E+02  1.250000000E+02  0.00000E+00  9.000E+00
      21     1     1     2   512   501  1.809940347E+01  2.196922701E+01 -3.628302021E+01  4.611608068E+01  8.259061849E-07  0.00000E+00  9.000E+00
#rwgt            1           1   2.9519627855934948E-002           3      134944           0
</event>
<event>
      5   9999  3.19816E-02  6.93728E+01 -1.00000E+00  1.31419E-01
      21    -1     0     0   502   511  0.000000000E+00  0.000000000E+00  8.190111409E+02  8.190111409E+02  0.000000000E+00  0.00000E+00  9.000E+00
      21    -1     0     0   501   502  0.000000000E+00  0.000000000E+00 -1.264100233E+03  1.264100233E+03  0.000000000E+00  0.00000E+00  9.000E+00
      25     1     1     2     0     0  4.989251365E+02  5.502912417E+02 -6.734396907E+02  1.010392379E+03  1.250000000E+02  0.00000E+00  9.000E+00
      25     1     1     2     0     0 -5.656210650E+02 -5.693763116E+02 -2.239532769E+01  8.125534592E+02  1.250000000E+02  0.00000E+00  9.000E+00
      21     1     1     2   501   511  6.669592849E+01  1.908506994E+01  2.507459259E+02  2.601655361E+02  4.672030912E-06  0.00000E+00  9.000E+00
#rwgt            1           1   3.3734399657586123E-002           3      135091           0
</event>
<event>
      5   9999  3.19816E-02  3.18329E+01 -1.00000E+00  1.51272E-01
      21    -1     0     0   502   512  0.000000000E+00  0.000000000E+00  5.045776120E+02  5.045776120E+02  0.000000000E+00  0.00000E+00  9.000E+00
      21    -1     0     0   501   502  0.000000000E+00  0.000000000E+00 -1.127642319E+02  1.127642319E+02  0.000000000E+00  0.00000E+00  9.000E+00
      25     1     1     2     0     0 -1.761813100E+02 -3.422569260E+01  8.456921135E+01  2.344956365E+02  1.250000000E+02  0.00000E+00  9.000E+00
      25     1     1     2     0     0  1.452772662E+02  4.185940597E+01  2.559942957E+02  3.225147646E+02  1.250000000E+02  0.00000E+00  9.000E+00
      21     1     1     2   501   512  3.090404388E+01 -7.633713375E+00  5.124987294E+01  6.033144275E+01  0.000000000E+00  0.00000E+00  9.000E+00
#rwgt            1           1   2.5870569629793200E-002           3      135224           0
</event>
<event>
      5   9999  3.19816E-02  2.10109E+02 -1.00000E+00  1.10874E-01
      21    -1     0     0   502   511  0.000000000E+00  0.000000000E+00  7.217644531E+02  7.217644531E+02  0.000000000E+00  0.00000E+00  9.000E+00
      21    -1     0     0   501   502  0.000000000E+00  0.000000000E+00 -6.736725851E+02  6.736725851E+02  0.000000000E+00  0.00000E+00  9.000E+00
      25     1     1     2     0     0 -1.533332888E+02 -3.484563330E+02 -5.036096868E+02  6.435686678E+02  1.250000000E+02  0.00000E+00  9.000E+00
      25     1     1     2     0     0 -2.316049598E+01  2.344576014E+02  1.703492628E+02  3.164658698E+02  1.250000000E+02  0.00000E+00  9.000E+00
      21     1     1     2   501   511  1.764937848E+02  1.139987316E+02  3.813522920E+02  4.354025005E+02  5.394796609E-06  0.00000E+00  9.000E+00
#rwgt            1           1   3.0208044237078818E-002           3      135294           0
</event>
<event>
      5   9999  3.19816E-02  1.51858E+02 -1.00000E+00  1.16182E-01
      -2    -1     0     0     0   501  0.000000000E+00  0.000000000E+00  1.984961108E+03  1.984961108E+03  0.000000000E+00  0.00000E+00  9.000E+00
      21    -1     0     0   501   502  0.000000000E+00  0.000000000E+00 -2.149237738E+03  2.149237738E+03  0.000000000E+00  0.00000E+00  9.000E+00
      25     1     1     2     0     0 -1.349643418E+02 -9.391514360E+02 -9.911217960E+02  1.377740254E+03  1.250000000E+02  0.00000E+00  9.000E+00
      25     1     1     2     0     0  2.168985356E+02  1.067008798E+03 -6.483982822E+02  1.273419837E+03  1.250000000E+02  0.00000E+00  9.000E+00
      -2     1     1     2     0   502 -8.193419381E+01 -1.278573621E+02  1.475243448E+03  1.483038755E+03  2.157918644E-05  0.00000E+00  9.000E+00
#rwgt            1           1   2.2285587495867905E-002           3      135342           0
</event>
<event>
      5   9999  3.19816E-02  5.52775E+01 -1.00000E+00  1.36634E-01
      21    -1     0     0   502   501  0.000000000E+00  0.000000000E+00  3.537850134E+02  3.537850134E+02  0.000000000E+00  0.00000E+00  9.000E+00
      21    -1     0     0   501   511  0.000000000E+00  0.000000000E+00 -4.678706905E+02  4.678706905E+02  0.000000000E+00  0.00000E+00  9.000E+00
      25     1     1     2     0     0  1.568830282E+02 -5.485219907E+01 -2.429493338E+02  3.197974782E+02  1.250000000E+02  0.00000E+00  9.000E+00
      25     1     1     2     0     0 -1.996798502E+02  1.986593425E+01  2.648793050E+02  3.550390741E+02  1.250000000E+02  0.00000E+00  9.000E+00
      21     1     1     2   502   511  4.279682206E+01  3.498626482E+01 -1.360156482E+02  1.468191515E+02  3.303624740E-06  0.00000E+00  9.000E+00
#rwgt            1           1   3.1525709860846365E-002           3      135403           0
</event>
<event>
      5   9999  3.19816E-02  9.61290E+01 -1.00000E+00  1.24604E-01
      21    -1     0     0   512   501  0.000000000E+00  0.000000000E+00  5.766822496E+02  5.766822496E+02  0.000000000E+00  0.00000E+00  9.000E+00
      21    -1     0     0   501   502  0.000000000E+00  0.000000000E+00 -1.102219101E+03  1.102219101E+03  0.000000000E+00  0.00000E+00  9.000E+00
      25     1     1     2     0     0  5.553376709E+02 -3.427210437E+02 -3.366851696E+02  7.448755238E+02  1.250000000E+02  0.00000E+00  9.000E+00
      25     1     1     2     0     0 -4.690284109E+02  3.003950759E+02 -4.033599754E+02  6.989628900E+02  1.250000000E+02  0.00000E+00  9.000E+00
      21     1     1     2   512   502 -8.630926006E+01  4.232596788E+01  2.145082940E+02  2.350629365E+02  2.697398305E-06  0.00000E+00  9.000E+00
#rwgt            1           1   3.5041408080538121E-002           3      135558           0
</event>
<event>
      5   9999  3.19816E-02  3.47579E+02 -1.00000E+00  1.03556E-01
      21    -1     0     0   502   501  0.000000000E+00  0.000000000E+00  1.168461256E+03  1.168461256E+03  0.000000000E+00  0.00000E+00  9.000E+00
       4    -1     0     0   501     0  0.000000000E+00  0.000000000E+00 -5.284271827E+02  5.284271827E+02  0.000000000E+00  0.00000E+00  9.000E+00
      25     1     1     2     0     0 -3.402255014E+02 -3.845216479E+02  8.786483241E+02  1.025308815E+03  1.250000000E+02  0.00000E+00  9.000E+00
      25     1     1     2     0     0  2.219352071E+01  2.442827377E+02 -1.471786455E+02  3.121748901E+02  1.250000000E+02  0.00000E+00  9.000E+00
       4     1     1     2   502     0  3.180319807E+02  1.402389102E+02 -9.143560490E+01  3.594047336E+02  1.348699152E-06  0.00000E+00  9.000E+00
#rwgt            2          15   3.7261739692519395E-005           3      135706           0
</event>
<event>
      5   9999  3.19816E-02  1.59721E+02 -1.00000E+00  1.15323E-01
      21    -1     0     0   502   501  0.000000000E+00  0.000000000E+00  2.477533304E+03  2.477533304E+03  0.000000000E+00  0.00000E+00  9.000E+00
      21    -1     0     0   501   511  0.000000000E+00  0.000000000E+00 -1.571473161E+02  1.571473161E+02  0.000000000E+00  0.00000E+00  9.000E+00
      25     1     1     2     0     0  2.130390340E+02  2.610354224E+02  1.972491240E+02  4.099479707E+02  1.250000000E+02  0.00000E+00  9.000E+00
      25     1     1     2     0     0 -1.782588140E+02 -1.051468848E+02  2.020416563E+03  2.034831728E+03  1.250000000E+02  0.00000E+00  9.000E+00
      21     1     1     2   502   511 -3.478022005E+01 -1.558885376E+02  1.027203010E+02  1.899009218E+02  1.907348633E-06  0.00000E+00  9.000E+00
#rwgt            1           1   3.0896562980727613E-002           3      135740           0
</event>
<event>
      5   9999  3.19816E-02  2.04493E+01 -1.00000E+00  1.65577E-01
      21    -1     0     0   502   501  0.000000000E+00  0.000000000E+00  2.961069395E+03  2.961069395E+03  0.000000000E+00  0.00000E+00  9.000E+00
      21    -1     0     0   512   502  0.000000000E+00  0.000000000E+00 -2.970050627E+01  2.970050627E+01  0.000000000E+00  0.00000E+00  9.000E+00
      25     1     1     2     0     0  2.089716856E+02  1.324296774E+02  1.143637062E+03  1.176748705E+03  1.250000000E+02  0.00000E+00  9.000E+00
      25     1     1     2     0     0 -2.117545133E+02 -1.121706434E+02  1.753030765E+03  1.773742961E+03  1.250000000E+02  0.00000E+00  9.000E+00
      21     1     1     2   512   501  2.782827647E+00 -2.025903401E+01  3.470106096E+01  4.027823508E+01  1.348699152E-06  0.00000E+00  9.000E+00
#rwgt            1           1   3.5635877264628607E-002           3      135808           0
</event>
<event>
      5   9999  3.19816E-02  6.23596E+01 -1.00000E+00  1.33814E-01
      21    -1     0     0   502   501  0.000000000E+00  0.000000000E+00  2.383412143E+03  2.383412143E+03  0.000000000E+00  0.00000E+00  9.000E+00
       1    -1     0     0   501     0  0.000000000E+00  0.000000000E+00 -1.099877670E+03  1.099877670E+03  0.000000000E+00  0.00000E+00  9.000E+00
      25     1     1     2     0     0  4.722205476E+02 -4.951898221E+02  1.051073062E+03  1.260390728E+03  1.250000000E+02  0.00000E+00  9.000E+00
      25     1     1     2     0     0 -4.448849324E+02  4.391408386E+02  1.143786695E+03  1.309442738E+03  1.250000000E+02  0.00000E+00  9.000E+00
       1     1     1     2   502     0 -2.733561517E+01  5.604898356E+01 -9.113252848E+02  9.134563477E+02  1.525878906E-05  0.00000E+00  9.000E+00
#rwgt            1           1   3.6709772034664252E-002           3      135945           0
</event>
<event>
      5   9999  3.19816E-02  8.52576E+01 -1.00000E+00  1.27026E-01
      21    -1     0     0   502   511  0.000000000E+00  0.000000000E+00  2.924729350E+03  2.924729350E+03  0.000000000E+00  0.00000E+00  9.000E+00
      21    -1     0     0   501   502  0.000000000E+00  0.000000000E+00 -6.750443932E+02  6.750443932E+02  0.000000000E+00  0.00000E+00  9.000E+00
      25     1     1     2     0     0 -2.715061367E+02  6.255262399E+02 -4.193915119E+02  8.102548360E+02  1.250000000E+02  0.00000E+00  9.000E+00
      25     1     1     2     0     0  2.087792214E+02 -6.832687135E+02  2.409590369E+03  2.516385433E+03  1.250000000E+02  0.00000E+00  9.000E+00
      21     1     1     2   501   511  6.272691525E+01  5.774247359E+01  2.594860996E+02  2.731334748E+02  5.394796609E-06  0.00000E+00  9.000E+00
#rwgt            1           1   3.8019343339270588E-002           3      136057           0
</event>
<event>
      5   9999  3.19816E-02  6.28998E+01 -1.00000E+00  1.33617E-01
      21    -1     0     0   512   501  0.000000000E+00  0.000000000E+00  3.459439378E+02  3.459439378E+02  0.000000000E+00  0.00000E+00  9.000E+00
      21    -1     0     0   501   502  0.000000000E+00  0.000000000E+00 -8.997964257E+02  8.997964257E+02  0.000000000E+00  0.00000E+00  9.000E+00
      25     1     1     2     0     0  6.908541752E+01 -1.418039498E+02 -8.514456373E+02  8.749090400E+02  1.250000000E+02  0.00000E+00  9.000E+00
      25     1     1     2     0     0 -5.138478887E+01  8.144611144E+01  2.243865505E+02  2.743140347E+02  1.250000000E+02  0.00000E+00  9.000E+00
      21     1     1     2   512   502 -1.770062866E+01  6.035783841E+01  7.320659890E+01  9.651728878E+01  2.697398305E-06  0.00000E+00  9.000E+00
#rwgt            1           1   2.7368047282659555E-002           3      136178           0
</event>
<event>
      5   9999  3.19816E-02  1.87734E+02 -1.00000E+00  1.12658E-01
      21    -1     0     0   502   501  0.000000000E+00  0.000000000E+00  1.086399360E+03  1.086399360E+03  0.000000000E+00  0.00000E+00  9.000E+00
      21    -1     0     0   511   502  0.000000000E+00  0.000000000E+00 -4.998639292E+02  4.998639292E+02  0.000000000E+00  0.00000E+00  9.000E+00
      25     1     1     2     0     0  9.635457242E+01 -2.378307884E+02 -1.249818310E+02  3.115977304E+02  1.250000000E+02  0.00000E+00  9.000E+00
      25     1     1     2     0     0 -9.513176107E+01  4.255612022E+02  9.004878425E+02  1.008293481E+03  1.250000000E+02  0.00000E+00  9.000E+00
      21     1     1     2   511   501 -1.222811344E+00 -1.877304138E+02 -1.889705808E+02  2.663720780E+02  6.031565972E-06  0.00000E+00  9.000E+00
#rwgt            1           1   2.9708726123557325E-002           3      136312           0
</event>
<event>
      5   9999  3.19816E-02  3.12991E+01 -1.00000E+00  1.51772E-01
      21    -1     0     0   502   501  0.000000000E+00  0.000000000E+00  4.575036609E+02  4.575036609E+02  0.000000000E+00  0.00000E+00  9.000E+00
      21    -1     0     0   512   502  0.000000000E+00  0.000000000E+00 -3.968465649E+03  3.968465649E+03  0.000000000E+00  0.00000E+00  9.000E+00
      25     1     1     2     0     0  5.634385441E+01  9.905842261E+02 -3.109579892E+03  3.266426770E+03  1.250000000E+02  0.00000E+00  9.000E+00
      25     1     1     2     0     0 -8.084927823E+01 -9.711133561E+02 -2.621433477E+02  1.016829332E+03  1.250000000E+02  0.00000E+00  9.000E+00
      21     1     1     2   512   501  2.450542382E+01 -1.947087001E+01 -1.392387484E+02  1.427132076E+02  1.907348633E-06  0.00000E+00  9.000E+00
#rwgt            1           1   9.3471020897493040E-002           3      136388           0
</event>
<event>
      5   9999  3.19816E-02  5.13381E+01 -1.00000E+00  1.38424E-01
      21    -1     0     0   502   501  0.000000000E+00  0.000000000E+00  1.079304175E+03  1.079304175E+03  0.000000000E+00  0.00000E+00  9.000E+00
      21    -1     0     0   511   502  0.000000000E+00  0.000000000E+00 -1.576385411E+03  1.576385411E+03  0.000000000E+00  0.00000E+00  9.000E+00
      25     1     1     2     0     0 -6.037067128E+02  1.311858023E+02  3.862154245E+02  7.392285601E+02  1.250000000E+02  0.00000E+00  9.000E+00
      25     1     1     2     0     0  5.598500784E+02 -1.044988114E+02  3.513466998E+02  6.807507733E+02  1.250000000E+02  0.00000E+00  9.000E+00
      21     1     1     2   511   501  4.385663440E+01 -2.668699097E+01 -1.234643361E+03  1.235710253E+03  0.000000000E+00  0.00000E+00  9.000E+00
#rwgt            1           1   2.6100766759523060E-002           3      136645           0
</event>
<event>
      5   9999  3.19816E-02  8.65077E+00 -1.00000E+00  2.03327E-01
      21    -1     0     0   502   512  0.000000000E+00  0.000000000E+00  7.485723695E+02  7.485723695E+02  0.000000000E+00  0.00000E+00  9.000E+00
      21    -1     0     0   501   502  0.000000000E+00  0.000000000E+00 -1.053233167E+02  1.053233167E+02  0.000000000E+00  0.00000E+00  9.000E+00
      25     1     1     2     0     0 -4.714856872E+01  1.932290369E+02  1.429314547E+02  2.749815430E+02  1.250000000E+02  0.00000E+00  9.000E+00
      25     1     1     2     0     0  3.851580530E+01 -1.926712072E+02  3.066419019E+02  3.850453445E+02  1.250000000E+02  0.00000E+00  9.000E+00
      21     1     1     2   501   512  8.632763423E+00 -5.578297395E-01  1.936756962E+02  1.938687986E+02  0.000000000E+00  0.00000E+00  9.000E+00
#rwgt            1           1   3.0991328919346878E-002           3      136769           0
</event>
<event>
      5   9999  3.19816E-02  2.90748E+01 -1.00000E+00  1.53991E-01
      21    -1     0     0   502   501  0.000000000E+00  0.000000000E+00  1.916032804E+02  1.916032804E+02  0.000000000E+00  0.00000E+00  9.000E+00
      21    -1     0     0   501   511  0.000000000E+00  0.000000000E+00 -2.301192287E+02  2.301192287E+02  0.000000000E+00  0.00000E+00  9.000E+00
      25     1     1     2     0     0  5.934164422E+01 -6.409262209E+01 -1.264178278E+02  1.980801912E+02  1.250000000E+02  0.00000E+00  9.000E+00
      25     1     1     2     0     0 -8.217735526E+01  8.208919044E+01  9.267419592E+01  1.941784218E+02  1.250000000E+02  0.00000E+00  9.000E+00
      21     1     1     2   502   511  2.283571104E+01 -1.799656835E+01 -4.772316358E+00  2.946389612E+01  5.960464478E-08  0.00000E+00  9.000E+00
#rwgt            1           1   3.0854883446327409E-002           3      136992           0
</event>
<event>
      5   9999  3.19816E-02  3.63101E+01 -1.00000E+00  1.47496E-01
      21    -1     0     0   512   501  0.000000000E+00  0.000000000E+00  1.176194554E+03  1.176194554E+03  0.000000000E+00  0.00000E+00  9.000E+00
      21    -1     0     0   501   502  0.000000000E+00  0.000000000E+00 -3.631631245E+02  3.631631245E+02  0.000000000E+00  0.00000E+00  9.000E+00
      25     1     1     2     0     0  1.272481206E+02  1.051549341E+02 -3.155875361E+02  3.774521656E+02  1.250000000E+02  0.00000E+00  9.000E+00
      25     1     1     2     0     0 -1.413376147E+02 -7.168986883E+01  1.091404122E+03  1.109911581E+03  1.250000000E+02  0.00000E+00  9.000E+00
      21     1     1     2   512   502  1.408949412E+01 -3.346506527E+01  3.721484351E+01  5.199393249E+01  6.743495762E-07  0.00000E+00  9.000E+00
#rwgt            1           1   3.5400444870401129E-002           3      137056           0
</event>
<event>
      5   9999  3.19816E-02  1.00061E+02 -1.00000E+00  1.23816E-01
      21    -1     0     0   502   501  0.000000000E+00  0.000000000E+00  4.672449250E+02  4.672449250E+02  0.000000000E+00  0.00000E+00  9.000E+00
       2    -1     0     0   501     0  0.000000000E+00  0.000000000E+00 -5.618589523E+02  5.618589523E+02  0.000000000E+00  0.00000E+00  9.000E+00
      25     1     1     2     0     0 -3.178522452E+02  1.457922823E+02 -9.900039279E-01  3.713642679E+02  1.250000000E+02  0.00000E+00  9.000E+00
      25     1     1     2     0     0  2.915711051E+02 -2.423400701E+02 -2.507730532E+02  4.714388010E+02  1.250000000E+02  0.00000E+00  9.000E+00
       2     1     1     2   502     0  2.628114008E+01  9.654778783E+01  1.571490298E+02  1.863008085E+02  1.907348633E-06  0.00000E+00  9.000E+00
#rwgt            1           1   2.7127528044271400E-002           3      137248           0
</event>
<event>
      5   9999  3.19816E-02  4.78778E+01 -1.00000E+00  1.40159E-01
      21    -1     0     0   511   501  0.000000000E+00  0.000000000E+00  4.296507517E+02  4.296507517E+02  0.000000000E+00  0.00000E+00  9.000E+00
      21    -1     0     0   501   502  0.000000000E+00  0.000000000E+00 -2.926199159E+02  2.926199159E+02  0.000000000E+00  0.00000E+00  9.000E+00
      25     1     1     2     0     0 -9.301973749E+01  1.319641069E+02  2.449985274E+01  2.056512578E+02  1.250000000E+02  0.00000E+00  9.000E+00
      25     1     1     2     0     0  7.173233272E+01 -1.748491987E+02 -1.354976118E+02  2.640120691E+02  1.250000000E+02  0.00000E+00  9.000E+00
      21     1     1     2   511   502  2.128740477E+01  4.288509184E+01  2.480285948E+02  2.526073406E+02  2.697398305E-06  0.00000E+00  9.000E+00
#rwgt            1           1   2.6443570828878046E-002           3      137303           0
</event>
<event>
      5   9999  3.19816E-02  4.03915E+01 -1.00000E+00  1.44578E-01
       2    -1     0     0   502     0  0.000000000E+00  0.000000000E+00  1.178698117E+03  1.178698117E+03  0.000000000E+00  0.00000E+00  9.000E+00
      21    -1     0     0   501   502  0.000000000E+00  0.000000000E+00 -9.016748641E+01  9.016748641E+01  0.000000000E+00  0.00000E+00  9.000E+00
      25     1     1     2     0     0  1.465590237E+02 -2.052143033E+01  6.167342893E+01  2.032960609E+02  1.250000000E+02  0.00000E+00  9.000E+00
      25     1     1     2     0     0 -1.133509383E+02  4.351479030E+01  3.868323714E+02  4.242714411E+02  1.250000000E+02  0.00000E+00  9.000E+00
       2     1     1     2   501     0 -3.320808537E+01 -2.299335997E+01  6.400248299E+02  6.412981011E+02  1.525878906E-05  0.00000E+00  9.000E+00
#rwgt            1           1   3.0492572796753176E-002           3      137360           0
</event>
<event>
      5   9999  3.19816E-02  2.07632E+02 -1.00000E+00  1.11059E-01
       2    -1     0     0   502     0  0.000000000E+00  0.000000000E+00  2.831605473E+03  2.831605473E+03  0.000000000E+00  0.00000E+00  9.000E+00
      21    -1     0     0   501   502  0.000000000E+00  0.000000000E+00 -1.373146407E+03  1.373146407E+03  0.000000000E+00  0.00000E+00  9.000E+00
      25     1     1     2     0     0 -3.809137039E+02  2.408991242E+02 -7.738682881E+02  9.042260587E+02  1.250000000E+02  0.00000E+00  9.000E+00
      25     1     1     2     0     0  2.635716966E+02 -6.960399350E+01 -4.877296509E+02  5.725556458E+02  1.250000000E+02  0.00000E+00  9.000E+00
       2     1     1     2   501     0  1.173420073E+02 -1.712951308E+02  2.720057005E+03  2.727970176E+03  0.000000000E+00  0.00000E+00  9.000E+00
#rwgt            2          18   8.4090946389343127E-002           3      137528           0
</event>
<event>
      5   9999  3.19816E-02  7.04854E+01 -1.00000E+00  1.31069E-01
      21    -1     0     0   502   501  0.000000000E+00  0.000000000E+00  2.749813687E+02  2.749813687E+02  0.000000000E+00  0.00000E+00  9.000E+00
       1    -1     0     0   501     0  0.000000000E+00  0.000000000E+00 -3.517168373E+03  3.517168373E+03  0.000000000E+00  0.00000E+00  9.000E+00
      25     1     1     2     0     0  2.694225352E+02 -2.527066981E+02 -3.303978048E+02  5.111133800E+02  1.250000000E+02  0.00000E+00  9.000E+00
      25     1     1     2     0     0 -2.841730444E+02  1.837819946E+02  7.547235450E+00  3.608491395E+02  1.250000000E+02  0.00000E+00  9.000E+00
       1     1     1     2   502     0  1.475050920E+01  6.892470355E+01 -2.919336435E+03  2.920187222E+03  7.475249459E-05  0.00000E+00  9.000E+00
#rwgt            1           1   2.8357071883104157E-002           3      137547           0
</event>
<event>
      5   9999  3.19816E-02  8.18056E+01 -1.00000E+00  1.27882E-01
      21    -1     0     0   502   511  0.000000000E+00  0.000000000E+00  2.173696753E+03  2.173696753E+03  0.000000000E+00  0.00000E+00  9.000E+00
      21    -1     0     0   501   502  0.000000000E+00  0.000000000E+00 -6.009602339E+02  6.009602339E+02  0.000000000E+00  0.00000E+00  9.000E+00
      25     1     1     2     0     0  3.643623420E+02 -2.097232499E+02 -2.417572872E+02  5.008146800E+02  1.250000000E+02  0.00000E+00  9.000E+00
      25     1     1     2     0     0 -4.283123772E+02  2.607384902E+02  6.318951591E+01  5.206284353E+02  1.250000000E+02  0.00000E+00  9.000E+00
      21     1     1     2   501   511  6.395003521E+01 -5.101524028E+01  1.751304290E+03  1.753213871E+03  2.157918644E-05  0.00000E+00  9.000E+00
#rwgt            1           1   2.9481247813585045E-002           3      137654           0
</event>
<event>
      5   9999  3.19816E-02  4.50992E+01 -1.00000E+00  1.41681E-01
      -1    -1     0     0     0   501  0.000000000E+00  0.000000000E+00  8.683379016E+02  8.683379016E+02  0.000000000E+00  0.00000E+00  9.000E+00
      21    -1     0     0   501   502  0.000000000E+00  0.000000000E+00 -2.078245243E+02  2.078245243E+02  0.000000000E+00  0.00000E+00  9.000E+00
      25     1     1     2     0     0  2.124926893E+02  5.012301653E+01 -4.841112816E+01  2.561915243E+02  1.250000000E+02  0.00000E+00  9.000E+00
      25     1     1     2     0     0 -2.057762417E+02 -9.471924858E+01  2.531633140E+02  3.619837859E+02  1.250000000E+02  0.00000E+00  9.000E+00
      -1     1     1     2     0   502 -6.716447673E+00  4.459623206E+01  4.557611914E+02  4.579871158E+02  0.000000000E+00  0.00000E+00  9.000E+00
#rwgt            1           1   3.0242967268362210E-002           3      137728           0
</event>
<event>
      5   9999  3.19816E-02  1.11308E+02 -1.00000E+00  1.21771E-01
       2    -1     0     0   502     0  0.000000000E+00  0.000000000E+00  1.100473303E+03  1.100473303E+03  0.000000000E+00  0.00000E+00  9.000E+00
      21    -1     0     0   501   502  0.000000000E+00  0.000000000E+00 -1.315706166E+02  1.315706166E+02  0.000000000E+00  0.00000E+00  9.000E+00
      25     1     1     2     0     0 -2.566701642E+02  1.955811050E+01  1.159475773E+02  3.087570786E+02  1.250000000E+02  0.00000E+00  9.000E+00
      25     1     1     2     0     0  1.535908827E+02 -6.155989691E+01  7.231310147E+02  7.522787014E+02  1.250000000E+02  0.00000E+00  9.000E+00
       2     1     1     2   501     0  1.030792815E+02  4.200178641E+01  1.298240940E+02  1.710081393E+02  2.697398305E-06  0.00000E+00  9.000E+00
#rwgt            1           1   3.1010057493100561E-002           3      137805           0
</event>
<event>
      5   9999  3.19816E-02  3.29113E+01 -1.00000E+00  1.50298E-01
      21    -1     0     0   511   501  0.000000000E+00  0.000000000E+00  1.383881949E+02  1.383881949E+02  0.000000000E+00  0.00000E+00  9.000E+00
      21    -1     0     0   501   502  0.000000000E+00  0.000000000E+00 -9.132043819E+02  9.132043819E+02  0.000000000E+00  0.00000E+00  9.000E+00
      25     1     1     2     0     0  1.626425146E+02 -1.616100730E+02 -6.759143765E+02  7.246072368E+02  1.250000000E+02  0.00000E+00  9.000E+00
      25     1     1     2     0     0 -1.948416966E+02  1.548007094E+02 -8.413312384E+01  2.909122357E+02  1.250000000E+02  0.00000E+00  9.000E+00
      21     1     1     2   511   502  3.219918194E+01  6.809363628E+00 -1.476868673E+01  3.607310436E+01  5.057621821E-07  0.00000E+00  9.000E+00
#rwgt            1           1   3.0600666151072310E-002           3      137854           0
</event>
<event>
      5   9999  3.19816E-02  1.55094E+01 -1.00000E+00  1.76028E-01
      21    -1     0     0   512   501  0.000000000E+00  0.000000000E+00  4.754578245E+01  4.754578245E+01  0.000000000E+00  0.00000E+00  9.000E+00
      21    -1     0     0   501   502  0.000000000E+00  0.000000000E+00 -9.408040708E+02  9.408040708E+02  0.000000000E+00  0.00000E+00  9.000E+00
      25     1     1     2     0     0  1.906688592E+01  1.550514456E+02 -4.948238984E+02  5.337416860E+02  1.250000000E+02  0.00000E+00  9.000E+00
      25     1     1     2     0     0 -6.922291768E+00 -1.454051613E+02 -3.943784504E+02  4.385771782E+02  1.250000000E+02  0.00000E+00  9.000E+00
      21     1     1     2   512   502 -1.214459415E+01 -9.646284315E+00 -4.055939582E+00  1.603098918E+01  3.576278687E-07  0.00000E+00  9.000E+00
#rwgt            1           1   3.0608055202340015E-002           3      137992           0
</event>
<event>
      5   9999  3.19816E-02  9.15861E+01 -1.00000E+00  1.25569E-01
      21    -1     0     0   511   501  0.000000000E+00  0.000000000E+00  4.516988146E+02  4.516988146E+02  0.000000000E+00  0.00000E+00  9.000E+00
      21    -1     0     0   501   502  0.000000000E+00  0.000000000E+00 -1.044563553E+03  1.044563553E+03  0.000000000E+00  0.00000E+00  9.000E+00
      25     1     1     2     0     0 -5.698923097E+02  8.324810455E+01 -3.988819758E+02  7.116455031E+02  1.250000000E+02  0.00000E+00  9.000E+00
      25     1     1     2     0     0  6.305299163E+02 -1.461064858E+01 -2.345983184E+02  6.844288256E+02  1.250000000E+02  0.00000E+00  9.000E+00
      21     1     1     2   511   502 -6.063760659E+01 -6.863745597E+01  4.061555599E+01  1.001880386E+02  1.846782373E-06  0.00000E+00  9.000E+00
#rwgt            1           1   2.8154652004950969E-002           3      138141           0
</event>
<event>
      5   9999  3.19816E-02  9.51076E+01 -1.00000E+00  1.24816E-01
       1    -1     0     0   502     0  0.000000000E+00  0.000000000E+00  1.018228635E+03  1.018228635E+03  0.000000000E+00  0.00000E+00  9.000E+00
      21    -1     0     0   501   502  0.000000000E+00  0.000000000E+00 -4.989924677E+02  4.989924677E+02  0.000000000E+00  0.00000E+00  9.000E+00
      25     1     1     2     0     0  4.502929635E+02  1.674967489E+02  7.639452474E+01  5.022748623E+02  1.250000000E+02  0.00000E+00  9.000E+00
      25     1     1     2     0     0 -3.671040906E+02 -2.135950983E+02 -1.081947448E+02  4.557624186E+02  1.250000000E+02  0.00000E+00  9.000E+00
       1     1     1     2   501     0 -8.318887290E+01  4.609834940E+01  5.510363872E+02  5.591838217E+02  7.629394531E-06  0.00000E+00  9.000E+00
#rwgt            1           1   2.4238669371940635E-002           3      138254           0
</event>
<event>
      5   9999  3.19816E-02  2.23400E+02 -1.00000E+00  1.09926E-01
      21    -1     0     0   502   511  0.000000000E+00  0.000000000E+00  1.047563198E+03  1.047563198E+03  0.000000000E+00  0.00000E+00  9.000E+00
      21    -1     0     0   501   502  0.000000000E+00  0.000000000E+00 -2.220197772E+02  2.220197772E+02  0.000000000E+00  0.00000E+00  9.000E+00
      25     1     1     2     0     0 -3.605302466E+01 -1.719212899E+02 -7.185568924E+01  2.272553422E+02  1.250000000E+02  0.00000E+00  9.000E+00
      25     1     1     2     0     0 -1.873183719E+02  1.754955180E+02  3.538943445E+02  4.547010626E+02  1.250000000E+02  0.00000E+00  9.000E+00
      21     1     1     2   501   511  2.233713966E+02 -3.574228068E+00  5.435047653E+02  5.876265700E+02  1.321449896E-05  0.00000E+00  9.000E+00
#rwgt            1           1   2.9211553333661568E-002           3      138300           0
</event>
<event>
      5   9999  3.19816E-02  1.42235E+01 -1.00000E+00  1.79586E-01
      21    -1     0     0   512   501  0.000000000E+00  0.000000000E+00  1.147192518E+03  1.147192518E+03  0.000000000E+00  0.00000E+00  9.000E+00
      21    -1     0     0   501   502  0.000000000E+00  0.000000000E+00 -3.124627654E+02  3.124627654E+02  0.000000000E+00  0.00000E+00  9.000E+00
      25     1     1     2     0     0 -7.834288744E+01 -1.213186417E+02 -2.662755717E+02  3.276942186E+02  1.250000000E+02  0.00000E+00  9.000E+00
      25     1     1     2     0     0  8.164256115E+01  1.351540781E+02  6.444365550E+02  6.751707977E+02  1.250000000E+02  0.00000E+00  9.000E+00
      21     1     1     2   512   502 -3.299673703E+00 -1.383543635E+01  4.565687693E+02  4.567902672E+02  5.394796609E-06  0.00000E+00  9.000E+00
#rwgt            1           1   2.5143545933707517E-002           3      138380           0
</event>
<event>
      5   9999  3.19816E-02  1.95486E+01 -1.00000E+00  1.67191E-01
      21    -1     0     0   502   501  0.000000000E+00  0.000000000E+00  2.406647054E+02  2.406647054E+02  0.000000000E+00  0.00000E+00  9.000E+00
      21    -1     0     0   511   502  0.000000000E+00  0.000000000E+00 -2.655052628E+03  2.655052628E+03  0.000000000E+00  0.00000E+00  9.000E+00
      25     1     1     2     0     0  3.395080101E+02  2.035428079E+02  2.687471824E+01  4.159839108E+02  1.250000000E+02  0.00000E+00  9.000E+00
      25     1     1     2     0     0 -3.220133998E+02 -2.122656110E+02 -2.155146617E+03  2.192950355E+03  1.250000000E+02  0.00000E+00  9.000E+00
      21     1     1     2   511   501 -1.749461029E+01  8.722803118E+00 -2.861160239E+02  2.867830675E+02  0.000000000E+00  0.00000E+00  9.000E+00
#rwgt            1           1   3.1406153894496351E-002           3      138590           0
</event>
<event>
      5   9999  3.19816E-02  3.34618E+01 -1.00000E+00  1.49817E-01
      21    -1     0     0   502   501  0.000000000E+00  0.000000000E+00  3.250531784E+02  3.250531784E+02  0.000000000E+00  0.00000E+00  9.000E+00
      21    -1     0     0   501   512  0.000000000E+00  0.000000000E+00 -3.623142590E+02  3.623142590E+02  0.000000000E+00  0.00000E+00  9.000E+00
      25     1     1     2     0     0 -1.312307192E+02 -1.315315323E+02  2.119736852E+02  3.083502697E+02  1.250000000E+02  0.00000E+00  9.000E+00
      25     1     1     2     0     0  1.602091581E+02  1.482630806E+02 -2.271338933E+02  3.389155070E+02  1.250000000E+02  0.00000E+00  9.000E+00
      21     1     1     2   502   512 -2.897843886E+01 -1.673154834E+01 -2.210087244E+01  4.010166070E+01  3.371747881E-07  0.00000E+00  9.000E+00
#rwgt            1           1   3.1859435988601678E-002           3      138849           0
</event>
<event>
      5   9999  3.19816E-02  7.00893E+01 -1.00000E+00  1.31193E-01
      21    -1     0     0   502   501  0.000000000E+00  0.000000000E+00  2.538392603E+02  2.538392603E+02  0.000000000E+00  0.00000E+00  9.000E+00
      21    -1     0     0   501   511  0.000000000E+00  0.000000000E+00 -3.409037759E+02  3.409037759E+02  0.000000000E+00  0.00000E+00  9.000E+00
      25     1     1     2     0     0 -1.833081736E+02  1.197415930E+02 -7.010200316E+01  2.616853577E+02  1.250000000E+02  0.00000E+00  9.000E+00
      25     1     1     2     0     0  1.297370535E+02 -1.649371972E+02  3.370762839E+01  2.465708545E+02  1.250000000E+02  0.00000E+00  9.000E+00
      21     1     1     2   502   511  5.357112015E+01  4.519560425E+01 -5.067014083E+01  8.648682402E+01  6.743495762E-07  0.00000E+00  9.000E+00
#rwgt            1           1   2.4416618943735258E-002           3      138939           0
</event>
<event>
      5   9999  3.19816E-02  9.97635E+01 -1.00000E+00  1.23874E-01
      21    -1     0     0   502   501  0.000000000E+00  0.000000000E+00  5.746479855E+02  5.746479855E+02  0.000000000E+00  0.00000E+00  9.000E+00
      21    -1     0     0   501   512  0.000000000E+00  0.000000000E+00 -4.254141932E+02  4.254141932E+02  0.000000000E+00  0.00000E+00  9.000E+00
      25     1     1     2     0     0  2.515682603E+02  2.175116179E+02  2.524449292E+02  4.358340691E+02  1.250000000E+02  0.00000E+00  9.000E+00
      25     1     1     2     0     0 -3.145224106E+02 -2.949036942E+02 -5.147815453E+01  4.518490191E+02  1.250000000E+02  0.00000E+00  9.000E+00
      21     1     1     2   502   512  6.295415025E+01  7.739207634E+01 -5.173298240E+01  1.123790905E+02  1.907348633E-06  0.00000E+00  9.000E+00
#rwgt            1           1   2.9927251249026312E-002           3      139017           0
</event>
<event>
      5   9999  3.19816E-02  1.80181E+01 -1.00000E+00  1.70197E-01
      21    -1     0     0   511   501  0.000000000E+00  0.000000000E+00  1.566311489E+03  1.566311489E+03  0.000000000E+00  0.00000E+00  9.000E+00
      21    -1     0     0   501   502  0.000000000E+00  0.000000000E+00 -3.436442510E+01  3.436442510E+01  0.000000000E+00  0.00000E+00  9.000E+00
      25     1     1     2     0     0 -6.490076661E+01 -9.578961139E+00  1.375370893E+02  1.970921534E+02  1.250000000E+02  0.00000E+00  9.000E+00
      25     1     1     2     0     0  4.777875652E+01  3.967553824E+00  1.021097352E+03  1.029836566E+03  1.250000000E+02  0.00000E+00  9.000E+00
      21     1     1     2   511   502  1.712201009E+01  5.611407315E+00  3.733126223E+02  3.737471940E+02  5.394796609E-06  0.00000E+00  9.000E+00
#rwgt            1           1   3.5284310062355634E-002           3      139116           0
</event>
<event>
      5   9999  3.19816E-02  3.10485E+01 -1.00000E+00  1.52011E-01
       1    -1     0     0   502     0  0.000000000E+00  0.000000000E+00  3.105241937E+02  3.105241937E+02  0.000000000E+00  0.00000E+00  9.000E+00
      21    -1     0     0   501   502  0.000000000E+00  0.000000000E+00 -8.118713565E+02  8.118713565E+02  0.000000000E+00  0.00000E+00  9.000E+00
      25     1     1     2     0     0 -2.104386012E+02 -1.601021874E+00 -7.204096512E+02  7.608561189E+02  1.250000000E+02  0.00000E+00  9.000E+00
      25     1     1     2     0     0  2.131857153E+02 -2.932568331E+01  1.631213689E+02  2.975596174E+02  1.250000000E+02  0.00000E+00  9.000E+00
       1     1     1     2   501     0 -2.747114075E+00  3.092670519E+01  5.594111957E+01  6.397981391E+01  9.536743164E-07  0.00000E+00  9.000E+00
#rwgt            1           1   2.9695487386604841E-002           3      139289           0
</event>
<event>
      5   9999  3.19816E-02  3.90761E+01 -1.00000E+00  1.45472E-01
      21    -1     0     0   502   501  0.000000000E+00  0.000000000E+00  9.065289214E+02  9.065289214E+02  0.000000000E+00  0.00000E+00  9.000E+00
      -5    -1     0     0     0   502  0.000000000E+00  0.000000000E+00 -3.023180871E+02  3.023180871E+02  0.000000000E+00  0.00000E+00  9.000E+00
      25     1     1     2     0     0  1.233841677E+02  1.535672216E+01  2.339292440E+02  2.929289555E+02  1.250000000E+02  0.00000E+00  9.000E+00
      25     1     1     2     0     0 -1.241451061E+02  2.371198047E+01  6.293224406E+02  6.539464807E+02  1.250000000E+02  0.00000E+00  9.000E+00
      -5     1     1     2     0   501  7.609384148E-01 -3.906870262E+01 -2.590408503E+02  2.619715723E+02  0.000000000E+00  0.00000E+00  9.000E+00
#rwgt            1           1   2.5133629249526071E-002           3      139438           0
</event>
<event>
      5   9999  3.19816E-02  1.10958E+02 -1.00000E+00  1.21830E-01
      21    -1     0     0   502   501  0.000000000E+00  0.000000000E+00  2.002395884E+02  2.002395884E+02  0.000000000E+00  0.00000E+00  9.000E+00
      21    -1     0     0   511   502  0.000000000E+00  0.000000000E+00 -7.210050517E+02  7.210050517E+02  0.000000000E+00  0.00000E+00  9.000E+00
      25     1     1     2     0     0 -2.230505418E+02 -1.894450591E+02 -4.095555105E+02  5.186537292E+02  1.250000000E+02  0.00000E+00  9.000E+00
      25     1     1     2     0     0  1.122188278E+02  1.947435647E+02 -1.823491551E+01  2.578286902E+02  1.250000000E+02  0.00000E+00  9.000E+00
      21     1     1     2   511   501  1.108317140E+02 -5.298505670E+00 -9.297503731E+01  1.447622207E+02  0.000000000E+00  0.00000E+00  9.000E+00
#rwgt            1           1   3.1735643160474711E-002           3      139557           0
</event>
<event>
      5   9999  3.19816E-02  2.26650E+01 -1.00000E+00  1.62008E-01
       2    -1     0     0   502     0  0.000000000E+00  0.000000000E+00  2.199827597E+03  2.199827597E+03  0.000000000E+00  0.00000E+00  9.000E+00
      21    -1     0     0   501   502  0.000000000E+00  0.000000000E+00 -5.337013266E+02  5.337013266E+02  0.000000000E+00  0.00000E+00  9.000E+00
      25     1     1     2     0     0  1.407057623E+01 -1.204425884E+02 -5.149822173E+01  1.816079983E+02  1.250000000E+02  0.00000E+00  9.000E+00
      25     1     1     2     0     0 -1.698493507E+01  9.796574151E+01 -4.017966074E+02  4.323786399E+02  1.250000000E+02  0.00000E+00  9.000E+00
       2     1     1     2   501     0  2.914358840E+00  2.247684687E+01  2.119421099E+03  2.119542285E+03  0.000000000E+00  0.00000E+00  9.000E+00
#rwgt            1           1   2.6682374096440958E-002           3      139718           0
</event>
<event>
      5   9999  3.19816E-02  1.02583E+01 -1.00000E+00  1.94485E-01
      21    -1     0     0   511   501  0.000000000E+00  0.000000000E+00  1.306722775E+03  1.306722775E+03  0.000000000E+00  0.00000E+00  9.000E+00
      21    -1     0     0   501   502  0.000000000E+00  0.000000000E+00 -5.718677309E+01  5.718677309E+01  0.000000000E+00  0.00000E+00  9.000E+00
      25     1     1     2     0     0 -4.826411475E+01 -1.765301646E+01  1.190820423E+03  1.198465408E+03  1.250000000E+02  0.00000E+00  9.000E+00
      25     1     1     2     0     0  4.209118456E+01  2.584620467E+01  3.393296174E+01  1.386222926E+02  1.250000000E+02  0.00000E+00  9.000E+00
      21     1     1     2   511   502  6.172930186E+00 -8.193188216E+00  2.478261668E+01  2.682184725E+01  4.768371582E-07  0.00000E+00  9.000E+00
#rwgt            1           1   3.0225802919808892E-002           3      139898           0
</event>
<event>
      5   9999  3.19816E-02  1.33086E+01 -1.00000E+00  1.82422E-01
      21    -1     0     0   502   501  0.000000000E+00  0.000000000E+00  2.165977918E+03  2.165977918E+03  0.000000000E+00  0.00000E+00  9.000E+00
       3    -1     0     0   501     0  0.000000000E+00  0.000000000E+00 -3.601628818E+01  3.601628818E+01  0.000000000E+00  0.00000E+00  9.000E+00
      25     1     1     2     0     0 -1.701868845E+02  8.644560873E+01  9.585601086E+02  9.853420222E+02  1.250000000E+02  0.00000E+00  9.000E+00
      25     1     1     2     0     0  1.586313597E+02 -9.304787864E+01  1.180025061E+03  1.200793888E+03  1.250000000E+02  0.00000E+00  9.000E+00
       3     1     1     2   502     0  1.155552476E+01  6.602269907E+00 -8.623539856E+00  1.585829625E+01  3.153981341E-07  0.00000E+00  9.000E+00
#rwgt            1           1   7.7142394997361002E-002           3      140188           0
</event>
<event>
      5   9999  3.19816E-02  3.28287E+01 -1.00000E+00  1.50371E-01
      21    -1     0     0   502   501  0.000000000E+00  0.000000000E+00  6.922462376E+02  6.922462376E+02  0.000000000E+00  0.00000E+00  9.000E+00
       1    -1     0     0   501     0  0.000000000E+00  0.000000000E+00 -1.303117847E+03  1.303117847E+03  0.000000000E+00  0.00000E+00  9.000E+00
      25     1     1     2     0     0  3.180902097E+02 -4.633703580E+02 -4.243915799E+02  7.152808422E+02  1.250000000E+02  0.00000E+00  9.000E+00
      25     1     1     2     0     0 -3.131398275E+02  4.309170131E+02  4.093628719E+02  6.833366554E+02  1.250000000E+02  0.00000E+00  9.000E+00
       1     1     1     2   502     0 -4.950382179E+00  3.245334492E+01 -5.958429010E+02  5.967465866E+02  7.629394531E-06  0.00000E+00  9.000E+00
#rwgt            1           1   3.3957434642383391E-002           3      140351           0
</event>
<event>
      5   9999  3.19816E-02  1.14594E+01 -1.00000E+00  1.89158E-01
      21    -1     0     0   511   501  0.000000000E+00  0.000000000E+00  6.029057185E+02  6.029057185E+02  0.000000000E+00  0.00000E+00  9.000E+00
      21    -1     0     0   501   502  0.000000000E+00  0.000000000E+00 -2.776334278E+02  2.776334278E+02  0.000000000E+00  0.00000E+00  9.000E+00
      25     1     1     2     0     0 -1.236621165E+00  3.173438203E+02  3.819241329E+02  5.120543651E+02  1.250000000E+02  0.00000E+00  9.000E+00
      25     1     1     2     0     0  1.260933928E+01 -3.187506901E+02 -7.122939412E+01  3.499423159E+02  1.250000000E+02  0.00000E+00  9.000E+00
      21     1     1     2   511   502 -1.137271811E+01  1.406869731E+00  1.457755188E+01  1.854246528E+01  0.000000000E+00  0.00000E+00  9.000E+00
#rwgt            1           1   2.7099354939182727E-002           3      140513           0
</event>
<event>
      5   9999  3.19816E-02  3.24044E+02 -1.00000E+00  1.04515E-01
      21    -1     0     0   502   501  0.000000000E+00  0.000000000E+00  1.102404090E+03  1.102404090E+03  0.000000000E+00  0.00000E+00  9.000E+00
      21    -1     0     0   512   502  0.000000000E+00  0.000000000E+00 -9.768803559E+02  9.768803559E+02  0.000000000E+00  0.00000E+00  9.000E+00
      25     1     1     2     0     0 -8.525053321E+02  4.327241974E+02  3.108592340E+02  1.013051843E+03  1.250000000E+02  0.00000E+00  9.000E+00
      25     1     1     2     0     0  6.907761176E+02 -1.519249284E+02 -1.869754281E+02  7.421843701E+02  1.250000000E+02  0.00000E+00  9.000E+00
      21     1     1     2   512   501  1.617292145E+02 -2.807992690E+02  1.639928427E+00  3.240482336E+02  2.108711753E-06  0.00000E+00  9.000E+00
#rwgt            2          11   6.1703679121983277E-003           3      140925           0
</event>
<event>
      5   9999  3.19816E-02  6.24344E+01 -1.00000E+00  1.33787E-01
      21    -1     0     0   502   511  0.000000000E+00  0.000000000E+00  3.185741453E+02  3.185741453E+02  0.000000000E+00  0.00000E+00  9.000E+00
      21    -1     0     0   501   502  0.000000000E+00  0.000000000E+00 -9.174195066E+02  9.174195066E+02  0.000000000E+00  0.00000E+00  9.000E+00
      25     1     1     2     0     0  3.457772782E+02 -1.396479860E+02 -3.775989690E+02  5.452242360E+02  1.250000000E+02  0.00000E+00  9.000E+00
      25     1     1     2     0     0 -3.962492118E+02  1.763989325E+02 -3.342438644E+02  5.616707061E+02  1.250000000E+02  0.00000E+00  9.000E+00
      21     1     1     2   501   511  5.047193358E+01 -3.675094651E+01  1.129974721E+02  1.290987098E+02  2.336015456E-06  0.00000E+00  9.000E+00
#rwgt            1           1   2.7806419349508043E-002           3      140945           0
</event>
<event>
      5   9999  3.19816E-02  6.55268E+02 -1.00000E+00  9.56261E-02
      21    -1     0     0   502   512  0.000000000E+00  0.000000000E+00  1.608343025E+03  1.608343025E+03  0.000000000E+00  0.00000E+00  9.000E+00
      21    -1     0     0   501   502  0.000000000E+00  0.000000000E+00 -1.092953145E+03  1.092953145E+03  0.000000000E+00  0.00000E+00  9.000E+00
      25     1     1     2     0     0  7.056178597E+02  3.514234489E+02 -2.044297268E+02  8.239001866E+02  1.250000000E+02  0.00000E+00  9.000E+00
      25     1     1     2     0     0 -1.667611203E+02  2.141657552E+01 -4.725087981E+02  5.168728134E+02  1.250000000E+02  0.00000E+00  9.000E+00
      21     1     1     2   501   512 -5.388567394E+02 -3.728400244E+02  1.192328406E+03  1.360523170E+03  2.157918644E-05  0.00000E+00  9.000E+00
#rwgt            2          11   1.7801606236692573E-003           3      141099           0
</event>
<event>
      5   9999  3.19816E-02  2.22486E+01 -1.00000E+00  1.62639E-01
      21    -1     0     0   502   511  0.000000000E+00  0.000000000E+00  1.331870147E+03  1.331870147E+03  0.000000000E+00  0.00000E+00  9.000E+00
      21    -1     0     0   501   502  0.000000000E+00  0.000000000E+00 -1.351253117E+02  1.351253117E+02  0.000000000E+00  0.00000E+00  9.000E+00
      25     1     1     2     0     0 -3.033926970E+01 -3.301751910E+02  5.352523320E+02  6.419160280E+02  1.250000000E+02  0.00000E+00  9.000E+00
      25     1     1     2     0     0  4.113154285E+01  3.496309917E+02  3.472186942E+02  5.100190739E+02  1.250000000E+02  0.00000E+00  9.000E+00
      21     1     1     2   501   511 -1.079227315E+01 -1.945580069E+01  3.142738088E+02  3.150603565E+02  0.000000000E+00  0.00000E+00  9.000E+00
#rwgt            1           1   2.9682768408292454E-002           3      141119           0
</event>
<event>
      5   9999  3.19816E-02  4.99116E+01 -1.00000E+00  1.39119E-01
      21    -1     0     0   502   512  0.000000000E+00  0.000000000E+00  8.739292199E+01  8.739292199E+01  0.000000000E+00  0.00000E+00  9.000E+00
      21    -1     0     0   501   502  0.000000000E+00  0.000000000E+00 -1.004123694E+03  1.004123694E+03  0.000000000E+00  0.00000E+00  9.000E+00
      25     1     1     2     0     0  1.780551044E+02 -4.656772841E+01 -3.401364563E+02  4.064357052E+02  1.250000000E+02  0.00000E+00  9.000E+00
      25     1     1     2     0     0 -1.425578030E+02  8.165492678E+01 -5.966026980E+02  6.313081921E+02  1.250000000E+02  0.00000E+00  9.000E+00
      21     1     1     2   501   512 -3.549730139E+01 -3.508719837E+01  2.000838238E+01  5.377271856E+01  4.768371582E-07  0.00000E+00  9.000E+00
#rwgt            1           1   2.6920193379307254E-002           3      141292           0
</event>
<event>
      5   9999  3.19816E-02  9.20908E+01 -1.00000E+00  1.25459E-01
      21    -1     0     0   502   501  0.000000000E+00  0.000000000E+00  1.461737492E+03  1.461737492E+03  0.000000000E+00  0.00000E+00  9.000E+00
      -1    -1     0     0     0   502  0.000000000E+00  0.000000000E+00 -1.804265079E+03  1.804265079E+03  0.000000000E+00  0.00000E+00  9.000E+00
      25     1     1     2     0     0 -1.136726214E+03 -5.892644411E+02  6.464595285E+02  1.439761782E+03  1.250000000E+02  0.00000E+00  9.000E+00
      25     1     1     2     0     0  1.226709554E+03  6.088531946E+02 -7.418973968E+02  1.562547692E+03  1.250000000E+02  0.00000E+00  9.000E+00
      -1     1     1     2     0   501 -8.998334002E+01 -1.958875351E+01 -2.470897180E+02  2.636930972E+02  3.814697266E-06  0.00000E+00  9.000E+00
#rwgt            1           1   2.2877956778910413E-002           3      141346           0
</event>
<event>
      5   9999  3.19816E-02  1.49006E+02 -1.00000E+00  1.16508E-01
      21    -1     0     0   502   501  0.000000000E+00  0.000000000E+00  1.252199530E+03  1.252199530E+03  0.000000000E+00  0.00000E+00  9.000E+00
      21    -1     0     0   501   511  0.000000000E+00  0.000000000E+00 -1.914314317E+02  1.914314317E+02  0.000000000E+00  0.00000E+00  9.000E+00
      25     1     1     2     0     0 -3.020632614E+02  3.072703432E+01  2.297158265E+02  4.007252494E+02  1.250000000E+02  0.00000E+00  9.000E+00
      25     1     1     2     0     0  2.263296043E+02 -1.590517252E+02  8.404631547E+02  8.936027392E+02  1.250000000E+02  0.00000E+00  9.000E+00
      21     1     1     2   502   511  7.573365712E+01  1.283246909E+02 -9.410882778E+00  1.493029733E+02  2.271242009E-06  0.00000E+00  9.000E+00
#rwgt            1           1   3.1348550194008840E-002           3      141439           0
</event>
<event>
      5   9999  3.19816E-02  1.13692E+02 -1.00000E+00  1.21372E-01
      21    -1     0     0   502   501  0.000000000E+00  0.000000000E+00  6.034726129E+02  6.034726129E+02  0.000000000E+00  0.00000E+00  9.000E+00
      21    -1     0     0   512   502  0.000000000E+00  0.000000000E+00 -3.257187809E+02  3.257187809E+02  0.000000000E+00  0.00000E+00  9.000E+00
      25     1     1     2     0     0  1.328634363E+01 -3.153299547E+02  1.304271822E+01  3.397125546E+02  1.250000000E+02  0.00000E+00  9.000E+00
      25     1     1     2     0     0 -1.141702320E+02  3.677533220E+02  2.474546042E+02  4.744851198E+02  1.250000000E+02  0.00000E+00  9.000E+00
      21     1     1     2   512   501  1.008838884E+02 -5.242336726E+01  1.725650954E+01  1.149937194E+02  1.831327855E-06  0.00000E+00  9.000E+00
#rwgt            1           1   2.8619920942190315E-002           3      141485           0
</event>
<event>
      5   9999  3.19816E-02  2.54743E+01 -1.00000E+00  1.58142E-01
      21    -1     0     0   511   501  0.000000000E+00  0.000000000E+00  7.702417648E+02  7.702417648E+02  0.000000000E+00  0.00000E+00  9.000E+00
      21    -1     0     0   501   502  0.000000000E+00  0.000000000E+00 -2.412333629E+03  2.412333629E+03  0.000000000E+00  0.00000E+00  9.000E+00
      25     1     1     2     0     0 -6.430084004E+02 -5.613994865E+02 -1.993328854E+03  2.172006930E+03  1.250000000E+02  0.00000E+00  9.000E+00
      25     1     1     2     0     0  6.567213464E+02  5.828679586E+02  2.725509035E+02  9.278615085E+02  1.250000000E+02  0.00000E+00  9.000E+00
      21     1     1     2   511   502 -1.371294595E+01 -2.146847209E+01  7.868608628E+01  8.270695469E+01  9.536743164E-07  0.00000E+00  9.000E+00
#rwgt            1           1   5.3245605202878431E-002           3      141592           0
</event>
<event>
      5   9999  3.19816E-02  8.61760E+01 -1.00000E+00  1.26806E-01
      21    -1     0     0   502   512  0.000000000E+00  0.000000000E+00  9.830664575E+01  9.830664575E+01  0.000000000E+00  0.00000E+00  9.000E+00
      21    -1     0     0   501   502  0.000000000E+00  0.000000000E+00 -1.383346786E+03  1.383346786E+03  0.000000000E+00  0.00000E+00  9.000E+00
      25     1     1     2     0     0  9.933605506E+01  1.424990835E+02 -9.255560982E+02  9.499751216E+02  1.250000000E+02  0.00000E+00  9.000E+00
      25     1     1     2     0     0 -1.631303381E+02 -2.004351268E+02 -3.368454459E+02  4.425783566E+02  1.250000000E+02  0.00000E+00  9.000E+00
      21     1     1     2   501   512  6.379428306E+01  5.793604329E+01 -2.263859583E+01  8.909995333E+01  1.305872339E-06  0.00000E+00  9.000E+00
#rwgt            1           1   2.6398942730721082E-002           3      141842           0
</event>
<event>
      5   9999  3.19816E-02  6.96785E+01 -1.00000E+00  1.31322E-01
      21    -1     0     0   511   501  0.000000000E+00  0.000000000E+00  6.733429738E+02  6.733429738E+02  0.000000000E+00  0.00000E+00  9.000E+00
      21    -1     0     0   501   502  0.000000000E+00  0.000000000E+00 -1.578245916E+02  1.578245916E+02  0.000000000E+00  0.00000E+00  9.000E+00
      25     1     1     2     0     0  2.413346328E+02 -1.348603976E+02  1.537653695E+02  3.401448525E+02  1.250000000E+02  0.00000E+00  9.000E+00
      25     1     1     2     0     0 -2.013149140E+02  7.782075879E+01  2.179443375E+02  3.312227337E+02  1.250000000E+02  0.00000E+00  9.000E+00
      21     1     1     2   511   502 -4.001971878E+01  5.703963885E+01  1.438086752E+02  1.597999792E+02  1.907348633E-06  0.00000E+00  9.000E+00
#rwgt            1           1   2.7104791538699626E-002           3      141930           0
</event>
<event>
      5   9999  3.19816E-02  3.13636E+01 -1.00000E+00  1.51711E-01
      21    -1     0     0   502   501  0.000000000E+00  0.000000000E+00  6.709289866E+02  6.709289866E+02  0.000000000E+00  0.00000E+00  9.000E+00
      21    -1     0     0   501   512  0.000000000E+00  0.000000000E+00 -2.648952048E+02  2.648952048E+02  0.000000000E+00  0.00000E+00  9.000E+00
      25     1     1     2     0     0 -6.241840332E+00  3.236040102E+02  3.993625837E+02  5.290311798E+02  1.250000000E+02  0.00000E+00  9.000E+00
      25     1     1     2     0     0 -5.623188441E+00 -3.526367422E+02 -2.251172891E+00  3.741849275E+02  1.250000000E+02  0.00000E+00  9.000E+00
      21     1     1     2   502   512  1.186502877E+01  2.903273203E+01  8.922371000E+00  3.260808399E+01  5.717076687E-07  0.00000E+00  9.000E+00
#rwgt            1           1   3.1100841300849880E-002           3      142023           0
</event>
<event>
      5   9999  3.19816E-02  3.56382E+01 -1.00000E+00  1.48020E-01
      21    -1     0     0   511   501  0.000000000E+00  0.000000000E+00  6.628832653E+02  6.628832653E+02  0.000000000E+00  0.00000E+00  9.000E+00
      21    -1     0     0   501   502  0.000000000E+00  0.000000000E+00 -2.000816598E+02  2.000816598E+02  0.000000000E+00  0.00000E+00  9.000E+00
      25     1     1     2     0     0 -1.096345313E+02  1.683021046E+02 -8.189620524E+01  2.503543834E+02  1.250000000E+02  0.00000E+00  9.000E+00
      25     1     1     2     0     0  1.375846373E+02 -1.461915782E+02  5.131224578E+02  5.649966076E+02  1.250000000E+02  0.00000E+00  9.000E+00
      21     1     1     2   511   502 -2.795010595E+01 -2.211052641E+01  3.157535300E+01  4.761393407E+01  5.840038640E-07  0.00000E+00  9.000E+00
#rwgt            1           1   2.8082239578275613E-002           3      142129           0
</event>
<event>
      5   9999  3.19816E-02  6.49989E+02 -1.00000E+00  9.57195E-02
       2    -1     0     0   502     0  0.000000000E+00  0.000000000E+00  6.643215937E+02  6.643215937E+02  0.000000000E+00  0.00000E+00  9.000E+00
      21    -1     0     0   501   502  0.000000000E+00  0.000000000E+00 -8.679320525E+02  8.679320525E+02  0.000000000E+00  0.00000E+00  9.000E+00
      25     1     1     2     0     0  2.834899991E+02 -6.200851971E+02 -7.186694833E+01  6.968946043E+02  1.250000000E+02  0.00000E+00  9.000E+00
      25     1     1     2     0     0  1.635774010E+01  4.339059235E+01 -1.287801748E+02  1.853635687E+02  1.250000000E+02  0.00000E+00  9.000E+00
       2     1     1     2   501     0 -2.998477392E+02  5.766946048E+02 -2.963335638E+00  6.499954732E+02  1.026740829E-05  0.00000E+00  9.000E+00
#rwgt            1           1   2.7251063204615476E-002           3      142218           0
</event>
<event>
      5   9999  3.19816E-02  2.42802E+01 -1.00000E+00  1.59707E-01
      21    -1     0     0   502   501  0.000000000E+00  0.000000000E+00  2.469731252E+03  2.469731252E+03  0.000000000E+00  0.00000E+00  9.000E+00
      21    -1     0     0   501   511  0.000000000E+00  0.000000000E+00 -5.305738404E+02  5.305738404E+02  0.000000000E+00  0.00000E+00  9.000E+00
      25     1     1     2     0     0  6.874043123E+02 -8.840161508E+02  9.870884102E+02  1.497991246E+03  1.250000000E+02  0.00000E+00  9.000E+00
      25     1     1     2     0     0 -6.766975985E+02  9.058082569E+02  9.366752341E+02  1.473564974E+03  1.250000000E+02  0.00000E+00  9.000E+00
      21     1     1     2   502   511 -1.070671380E+01 -2.179210612E+01  1.539376762E+01  2.874887287E+01  4.460403188E-07  0.00000E+00  9.000E+00
#rwgt            1           1   3.1462349411299266E-002           3      142247           0
</event>
<event>
      5   9999  3.19816E-02  1.06224E+01 -1.00000E+00  1.92774E-01
      21    -1     0     0   512   501  0.000000000E+00  0.000000000E+00  7.163588810E+01  7.163588810E+01  0.000000000E+00  0.00000E+00  9.000E+00
      21    -1     0     0   501   502  0.000000000E+00  0.000000000E+00 -6.550144567E+02  6.550144567E+02  0.000000000E+00  0.00000E+00  9.000E+00
      25     1     1     2     0     0  1.489107707E+02  1.199084227E+01 -4.272415013E+02  4.695513799E+02  1.250000000E+02  0.00000E+00  9.000E+00
      25     1     1     2     0     0 -1.409419054E+02 -4.967075548E+00 -1.584674242E+02  2.462239165E+02  1.250000000E+02  0.00000E+00  9.000E+00
      21     1     1     2   512   502 -7.968865252E+00 -7.023766723E+00  2.330356946E+00  1.087504832E+01  1.460009660E-07  0.00000E+00  9.000E+00
#rwgt            1           1   2.7995143265353802E-002           3      142502           0
</event>
<event>
      5   9999  3.19816E-02  3.14312E+02 -1.00000E+00  1.04939E-01
      21    -1     0     0   502   511  0.000000000E+00  0.000000000E+00  5.773225537E+02  5.773225537E+02  0.000000000E+00  0.00000E+00  9.000E+00
      21    -1     0     0   501   502  0.000000000E+00  0.000000000E+00 -5.251693282E+02  5.251693282E+02  0.000000000E+00  0.00000E+00  9.000E+00
      25     1     1     2     0     0 -1.185963726E+02  6.725953001E+01 -1.798940602E+02  2.580228999E+02  1.250000000E+02  0.00000E+00  9.000E+00
      25     1     1     2     0     0  3.759904693E+02 -2.476491594E+02  2.465667059E+01  4.679015822E+02  1.250000000E+02  0.00000E+00  9.000E+00
      21     1     1     2   501   511 -2.573940967E+02  1.803896294E+02  2.073906151E+02  3.765673998E+02  7.629394531E-06  0.00000E+00  9.000E+00
#rwgt            2          11   3.2723175993629432E-003           3      142619           0
</event>
<event>
      5   9999  3.19816E-02  4.46894E+01 -1.00000E+00  1.41916E-01
      21    -1     0     0   512   501  0.000000000E+00  0.000000000E+00  1.000784925E+03  1.000784925E+03  0.000000000E+00  0.00000E+00  9.000E+00
      21    -1     0     0   501   502  0.000000000E+00  0.000000000E+00 -5.651069681E+02  5.651069681E+02  0.000000000E+00  0.00000E+00  9.000E+00
      25     1     1     2     0     0  1.698001681E+02  3.393175939E+01 -5.276972002E+02  5.692739204E+02  1.250000000E+02  0.00000E+00  9.000E+00
      25     1     1     2     0     0 -1.349487680E+02 -6.190535178E+01  6.025600432E+02  6.330458500E+02  1.250000000E+02  0.00000E+00  9.000E+00
      21     1     1     2   512   502 -3.485140008E+01  2.797359239E+01  3.608151139E+02  3.635721226E+02  6.607249480E-06  0.00000E+00  9.000E+00
#rwgt            1           1   2.9102566430463554E-002           3      142639           0
</event>
<event>
      5   9999  3.19816E-02  6.79698E+01 -1.00000E+00  1.31871E-01
      21    -1     0     0   502   511  0.000000000E+00  0.000000000E+00  4.122669185E+02  4.122669185E+02  0.000000000E+00  0.00000E+00  9.000E+00
      21    -1     0     0   501   502  0.000000000E+00  0.000000000E+00 -1.360210208E+03  1.360210208E+03  0.000000000E+00  0.00000E+00  9.000E+00
      25     1     1     2     0     0 -5.404164578E+02  3.004605691E+02 -5.569678867E+01  6.332879548E+02  1.250000000E+02  0.00000E+00  9.000E+00
      25     1     1     2     0     0  4.859263684E+02 -2.598313961E+02 -9.079687663E+02  1.069424645E+03  1.250000000E+02  0.00000E+00  9.000E+00
      21     1     1     2   501   511  5.449008940E+01 -4.062917306E+01  1.572226595E+01  6.976452675E+01  9.973764736E-07  0.00000E+00  9.000E+00
#rwgt            1           1   3.0931367933761215E-002           3      142756           0
</event>
<event>
      5   9999  3.19816E-02  8.94493E+01 -1.00000E+00  1.26046E-01
      21    -1     0     0   502   501  0.000000000E+00  0.000000000E+00  5.894303447E+02  5.894303447E+02  0.000000000E+00  0.00000E+00  9.000E+00
      21    -1     0     0   512   502  0.000000000E+00  0.000000000E+00 -4.103333900E+02  4.103333900E+02  0.000000000E+00  0.00000E+00  9.000E+00
      25     1     1     2     0     0  2.616045566E+02 -1.252518516E+01  3.507097585E+02  4.552100164E+02  1.250000000E+02  0.00000E+00  9.000E+00
      25     1     1     2     0     0 -3.475892603E+02 -1.212870733E+01 -2.199414169E+01  3.702352518E+02  1.250000000E+02  0.00000E+00  9.000E+00
      21     1     1     2   512   501  8.598470371E+01  2.465389249E+01 -1.496186622E+02  1.743184665E+02  2.697398305E-06  0.00000E+00  9.000E+00
#rwgt            1           1   3.1032464580459312E-002           3      142896           0
</event>
<event>
      5   9999  3.19816E-02  1.44523E+02 -1.00000E+00  1.17037E-01
      21    -1     0     0   502   501  0.000000000E+00  0.000000000E+00  2.826440334E+02  2.826440334E+02  0.000000000E+00  0.00000E+00  9.000E+00
      21    -1     0     0   501   511  0.000000000E+00  0.000000000E+00 -3.839349603E+02  3.839349603E+02  0.000000000E+00  0.00000E+00  9.000E+00
      25     1     1     2     0     0 -5.936891110E+01 -6.463614785E+01  9.056688696E+01  1.775664952E+02  1.250000000E+02  0.00000E+00  9.000E+00
      25     1     1     2     0     0  1.267104532E+02  1.925106698E+02 -1.781748734E+01  2.627895732E+02  1.250000000E+02  0.00000E+00  9.000E+00
      21     1     1     2   502   511 -6.734154206E+01 -1.278745220E+02 -1.740403265E+02  2.262229253E+02  1.907348633E-06  0.00000E+00  9.000E+00
#rwgt            2          11   3.0153226297362401E-003           3      143015           0
</event>
<event>
      5   9999  3.19816E-02  3.95716E+01 -1.00000E+00  1.45131E-01
      21    -1     0     0   512   501  0.000000000E+00  0.000000000E+00  1.419345105E+03  1.419345105E+03  0.000000000E+00  0.00000E+00  9.000E+00
      21    -1     0     0   501   502  0.000000000E+00  0.000000000E+00 -8.988067836E+02  8.988067836E+02  0.000000000E+00  0.00000E+00  9.000E+00
      25     1     1     2     0     0 -8.926151802E+02  3.264198620E+02  6.182328130E+02  1.140679007E+03  1.250000000E+02  0.00000E+00  9.000E+00
      25     1     1     2     0     0  9.316688376E+02 -3.328012299E+02 -2.434196476E+02  1.026470461E+03  1.250000000E+02  0.00000E+00  9.000E+00
      21     1     1     2   512   502 -3.905365736E+01  6.381367928E+00  1.457251564E+02  1.510024212E+02  1.907348633E-06  0.00000E+00  9.000E+00
#rwgt            1           1   2.7599296486252860E-002           3      143050           0
</event>
<event>
      5   9999  3.19816E-02  4.41224E+01 -1.00000E+00  1.42247E-01
      21    -1     0     0   502   501  0.000000000E+00  0.000000000E+00  7.818049253E+01  7.818049253E+01  0.000000000E+00  0.00000E+00  9.000E+00
      21    -1     0     0   511   502  0.000000000E+00  0.000000000E+00 -2.995209737E+03  2.995209737E+03  0.000000000E+00  0.00000E+00  9.000E+00
      25     1     1     2     0     0  2.209222399E+02  3.673737586E+02 -1.037255924E+03  1.129289585E+03  1.250000000E+02  0.00000E+00  9.000E+00
      25     1     1     2     0     0 -2.518595095E+02 -3.359147306E+02 -1.527440335E+03  1.589015700E+03  1.250000000E+02  0.00000E+00  9.000E+00
      21     1     1     2   511   501  3.093726960E+01 -3.145902805E+01 -3.523329850E+02  3.550849439E+02  6.607249480E-06  0.00000E+00  9.000E+00
#rwgt            1           1   6.9856551708062917E-002           3      143221           0
</event>
<event>
      5   9999  3.33032E-02  8.60699E+01 -1.00000E+00  1.26831E-01
       2    -1     0     0   502     0  0.000000000E+00  0.000000000E+00  6.191378313E+02  6.191378313E+02  0.000000000E+00  0.00000E+00  9.000E+00
      21    -1     0     0   501   502  0.000000000E+00  0.000000000E+00 -2.357115245E+03  2.357115245E+03  0.000000000E+00  0.00000E+00  9.000E+00
      25     1     1     2     0     0 -8.727572979E+01  1.415663957E+02 -1.110786750E+03  1.130101898E+03  1.250000000E+02  0.00000E+00  9.000E+00
      25     1     1     2     0     0  3.808756860E+01 -2.121960429E+02 -1.220982171E+03  1.246154198E+03  1.250000000E+02  0.00000E+00  9.000E+00
       2     1     1     2   501     0  4.918816119E+01  7.062964723E+01  5.937915069E+02  5.999969800E+02  1.321449896E-05  0.00000E+00  9.000E+00
#rwgt            1           1   9.5637773522634348E-002           3      143413           0
</event>
<event>
      5   9999  3.19816E-02  4.64153E+01 -1.00000E+00  1.40944E-01
      21    -1     0     0   502   501  0.000000000E+00  0.000000000E+00  9.569531571E+02  9.569531571E+02  0.000000000E+00  0.00000E+00  9.000E+00
      21    -1     0     0   511   502  0.000000000E+00  0.000000000E+00 -1.108179188E+02  1.108179188E+02  0.000000000E+00  0.00000E+00  9.000E+00
      25     1     1     2     0     0 -1.741444391E+02 -1.743250477E+02  6.771621264E+02  7.313610964E+02  1.250000000E+02  0.00000E+00  9.000E+00
      25     1     1     2     0     0  1.650380946E+02  1.288118081E+02  1.499216837E+02  2.862369051E+02  1.250000000E+02  0.00000E+00  9.000E+00
      21     1     1     2   511   501  9.106344507E+00  4.551323957E+01  1.905142815E+01  5.017307446E+01  4.768371582E-07  0.00000E+00  9.000E+00
#rwgt            1           1   2.8067912492872854E-002           3      143459           0
</event>
<event>
      5   9999  3.19816E-02  2.53516E+01 -1.00000E+00  1.58298E-01
      21    -1     0     0   502   512  0.000000000E+00  0.000000000E+00  1.065491616E+02  1.065491616E+02  0.000000000E+00  0.00000E+00  9.000E+00
      21    -1     0     0   501   502  0.000000000E+00  0.000000000E+00 -1.409701240E+03  1.409701240E+03  0.000000000E+00  0.00000E+00  9.000E+00
      25     1     1     2     0     0  5.177737333E+01 -2.220893491E+02 -9.762460155E+02  1.010289987E+03  1.250000000E+02  0.00000E+00  9.000E+00
      25     1     1     2     0     0 -5.283558499E+01  1.967598399E+02 -3.789709658E+02  4.480513659E+02  1.250000000E+02  0.00000E+00  9.000E+00
      21     1     1     2   501   512  1.058211662E+00  2.532950925E+01  5.206490257E+01  5.790904878E+01  1.168007728E-06  0.00000E+00  9.000E+00
#rwgt            1           1   2.9150096800681452E-002           3      143545           0
</event>
<event>
      5   9999  3.19816E-02  1.73398E+01 -1.00000E+00  1.71651E-01
      21    -1     0     0   502   501  0.000000000E+00  0.000000000E+00  8.590008992E+01  8.590008992E+01  0.000000000E+00  0.00000E+00  9.000E+00
      21    -1     0     0   501   511  0.000000000E+00  0.000000000E+00 -9.204421187E+02  9.204421187E+02  0.000000000E+00  0.00000E+00  9.000E+00
      25     1     1     2     0     0  4.292214341E+01 -1.555698596E+02 -3.683187173E+02  4.211032760E+02  1.250000000E+02  0.00000E+00  9.000E+00
      25     1     1     2     0     0 -3.977307280E+01  1.385184567E+02 -9.411156552E+01  2.127234047E+02  1.250000000E+02  0.00000E+00  9.000E+00
      21     1     1     2   502   511 -3.149070603E+00  1.705140291E+01 -3.721117460E+02  3.725155278E+02  0.000000000E+00  0.00000E+00  9.000E+00
#rwgt            1           1   2.8640876881182307E-002           3      143665           0
</event>
<event>
      5   9999  3.19816E-02  3.51861E+02 -1.00000E+00  1.03390E-01
      21    -1     0     0   502   501  0.000000000E+00  0.000000000E+00  1.560318308E+03  1.560318308E+03  0.000000000E+00  0.00000E+00  9.000E+00
      21    -1     0     0   512   502  0.000000000E+00  0.000000000E+00 -2.823784759E+03  2.823784759E+03  0.000000000E+00  0.00000E+00  9.000E+00
      25     1     1     2     0     0  9.750599771E+02 -3.528134461E+02  9.571684922E+02  1.416691854E+03  1.250000000E+02  0.00000E+00  9.000E+00
      25     1     1     2     0     0 -7.635302858E+02  7.163526390E+01 -6.110382196E+01  7.794028390E+02  1.250000000E+02  0.00000E+00  9.000E+00
      21     1     1     2   512   501 -2.115296913E+02  2.811781822E+02 -2.159531121E+03  2.188008374E+03  4.315837288E-05  0.00000E+00  9.000E+00
#rwgt            2          11   1.1690028061739366E-003           3      143987           0
</event>
<event>
      5   9999  3.19816E-02  2.27405E+01 -1.00000E+00  1.61895E-01
      21    -1     0     0   502   501  0.000000000E+00  0.000000000E+00  2.133232776E+02  2.133232776E+02  0.000000000E+00  0.00000E+00  9.000E+00
      -1    -1     0     0     0   502  0.000000000E+00  0.000000000E+00 -1.319459774E+03  1.319459774E+03  0.000000000E+00  0.00000E+00  9.000E+00
      25     1     1     2     0     0 -1.620953123E+02  2.148106612E+02 -2.785934483E+01  2.980262631E+02  1.250000000E+02  0.00000E+00  9.000E+00
      25     1     1     2     0     0  1.610253743E+02 -1.920953088E+02 -1.730482057E+02  3.292422517E+02  1.250000000E+02  0.00000E+00  9.000E+00
      -1     1     1     2     0   501  1.069937959E+00 -2.271535242E+01 -9.052289458E+02  9.055145368E+02  0.000000000E+00  0.00000E+00  9.000E+00
#rwgt            1           1   2.6786033312806799E-002           3      144007           0
</event>
<event>
      5   9999  3.19816E-02  2.11454E+02 -1.00000E+00  1.10775E-01
      21    -1     0     0   502   501  0.000000000E+00  0.000000000E+00  3.181030779E+03  3.181030779E+03  0.000000000E+00  0.00000E+00  9.000E+00
      21    -1     0     0   501   511  0.000000000E+00  0.000000000E+00 -7.803823224E+01  7.803823224E+01  0.000000000E+00  0.00000E+00  9.000E+00
      25     1     1     2     0     0  4.315953401E+01 -6.959988029E+01  2.627796725E+03  2.632042461E+03  1.250000000E+02  0.00000E+00  9.000E+00
      25     1     1     2     0     0  9.518749668E+01 -9.031592209E+01  3.084003575E+02  3.577057531E+02  1.250000000E+02  0.00000E+00  9.000E+00
      21     1     1     2   502   511 -1.383470307E+02  1.599158024E+02  1.667954638E+02  2.693207966E+02  9.725607898E-06  0.00000E+00  9.000E+00
#rwgt            2          11   5.0396078680149904E-003           3      144335           0
</event>
<event>
      5   9999  3.19816E-02  3.26267E+01 -1.00000E+00  1.50550E-01
      21    -1     0     0   502   512  0.000000000E+00  0.000000000E+00  6.620431603E+02  6.620431603E+02  0.000000000E+00  0.00000E+00  9.000E+00
      21    -1     0     0   501   502  0.000000000E+00  0.000000000E+00 -2.993107819E+02  2.993107819E+02  0.000000000E+00  0.00000E+00  9.000E+00
      25     1     1     2     0     0  1.633997149E+02  7.046656824E+01 -2.278995031E+01  2.186535751E+02  1.250000000E+02  0.00000E+00  9.000E+00
      25     1     1     2     0     0 -1.351343942E+02 -8.676294772E+01 -1.199177494E+02  2.362083407E+02  1.250000000E+02  0.00000E+00  9.000E+00
      21     1     1     2   501   512 -2.826532071E+01  1.629637948E+01  5.054400781E+02  5.064920265E+02  5.394796609E-06  0.00000E+00  9.000E+00
#rwgt            1           1   2.6568807486507112E-002           3      144370           0
</event>
<event>
      5   9999  3.19816E-02  1.65463E+01 -1.00000E+00  1.73461E-01
      21    -1     0     0   502   501  0.000000000E+00  0.000000000E+00  1.768272652E+03  1.768272652E+03  0.000000000E+00  0.00000E+00  9.000E+00
      21    -1     0     0   501   511  0.000000000E+00  0.000000000E+00 -1.035425891E+03  1.035425891E+03  0.000000000E+00  0.00000E+00  9.000E+00
      25     1     1     2     0     0  6.190106406E+01  9.881832037E+02  1.291671930E+03  1.632292609E+03  1.250000000E+02  0.00000E+00  9.000E+00
      25     1     1     2     0     0 -5.119049604E+01 -1.000795305E+03 -5.601297779E+02  1.154808243E+03  1.250000000E+02  0.00000E+00  9.000E+00
      21     1     1     2   502   511 -1.071056802E+01  1.261210136E+01  1.304608966E+00  1.659769178E+01  6.322027277E-08  0.00000E+00  9.000E+00
#rwgt            1           1   5.6555600482300634E-002           3      144445           0
</event>
<event>
      5   9999  3.19816E-02  2.45232E+01 -1.00000E+00  1.59380E-01
      21    -1     0     0   502   501  0.000000000E+00  0.000000000E+00  7.708413728E+01  7.708413728E+01  0.000000000E+00  0.00000E+00  9.000E+00
      21    -1     0     0   512   502  0.000000000E+00  0.000000000E+00 -1.948512669E+03  1.948512669E+03  0.000000000E+00  0.00000E+00  9.000E+00
      25     1     1     2     0     0 -2.166922998E+02 -2.097420152E+02 -4.355967762E+02  5.443499032E+02  1.250000000E+02  0.00000E+00  9.000E+00
      25     1     1     2     0     0  1.951988191E+02  2.215495381E+02 -1.135144387E+03  1.179561171E+03  1.250000000E+02  0.00000E+00  9.000E+00
      21     1     1     2   512   501  2.149348066E+01 -1.180752293E+01 -3.006873684E+02  3.016857319E+02  0.000000000E+00  0.00000E+00  9.000E+00
#rwgt            1           1   2.8134210315291237E-002           3      144789           0
</event>
<event>
      5   9999  3.19816E-02  9.54976E+01 -1.00000E+00  1.24735E-01
      21    -1     0     0   502   501  0.000000000E+00  0.000000000E+00  2.774201430E+03  2.774201430E+03  0.000000000E+00  0.00000E+00  9.000E+00
      21    -1     0     0   511   502  0.000000000E+00  0.000000000E+00 -7.710842619E+01  7.710842619E+01  0.000000000E+00  0.00000E+00  9.000E+00
      25     1     1     2     0     0 -6.882966074E+01 -1.046446343E+02  2.448026165E+03  2.454413398E+03  1.250000000E+02  0.00000E+00  9.000E+00
      25     1     1     2     0     0 -1.942879178E+01  1.411170343E+02  2.325296916E+02  2.999775872E+02  1.250000000E+02  0.00000E+00  9.000E+00
      21     1     1     2   511   501  8.825845252E+01 -3.647240001E+01  1.653714721E+01  9.691887144E+01  3.844384073E-06  0.00000E+00  9.000E+00
#rwgt            1           1   6.2109936246302608E-002           3      144965           0
</event>
<event>
      5   9999  3.19816E-02  8.19108E+01 -1.00000E+00  1.27855E-01
      21    -1     0     0   502   501  0.000000000E+00  0.000000000E+00  1.376708262E+03  1.376708262E+03  0.000000000E+00  0.00000E+00  9.000E+00
      21    -1     0     0   501   512  0.000000000E+00  0.000000000E+00 -4.373448899E+02  4.373448899E+02  0.000000000E+00  0.00000E+00  9.000E+00
      25     1     1     2     0     0  4.346080274E+02  4.684941063E+02  4.535406139E+02  7.935332088E+02  1.250000000E+02  0.00000E+00  9.000E+00
      25     1     1     2     0     0 -3.584983756E+02 -4.987710307E+02  6.081088122E+02  8.733355334E+02  1.250000000E+02  0.00000E+00  9.000E+00
      21     1     1     2   502   512 -7.610965172E+01  3.027692441E+01 -1.222860544E+02  1.471844093E+02  2.697398305E-06  0.00000E+00  9.000E+00
#rwgt            1           1   3.0477478256897683E-002           3      145023           0
</event>
<event>
      5   9999  3.19816E-02  5.25991E+01 -1.00000E+00  1.37831E-01
      21    -1     0     0   502   501  0.000000000E+00  0.000000000E+00  7.007993386E+02  7.007993386E+02  0.000000000E+00  0.00000E+00  9.000E+00
      21    -1     0     0   501   511  0.000000000E+00  0.000000000E+00 -1.140171784E+02  1.140171784E+02  0.000000000E+00  0.00000E+00  9.000E+00
      25     1     1     2     0     0 -1.144012849E+02 -4.471358273E+01  3.574959463E+02  3.981398123E+02  1.250000000E+02  0.00000E+00  9.000E+00
      25     1     1     2     0     0  1.624573350E+02  6.609766933E+01  2.733893519E+02  3.480345174E+02  1.250000000E+02  0.00000E+00  9.000E+00
      21     1     1     2   502   511 -4.805605006E+01 -2.138408660E+01 -4.410313802E+01  6.864218739E+01  6.743495762E-07  0.00000E+00  9.000E+00
#rwgt            1           1   2.8044871181247068E-002           3      145087           0
</event>
<event>
      5   9999  3.19816E-02  5.26537E+01 -1.00000E+00  1.37806E-01
      21    -1     0     0   502   501  0.000000000E+00  0.000000000E+00  2.943421287E+02  2.943421287E+02  0.000000000E+00  0.00000E+00  9.000E+00
      21    -1     0     0   501   512  0.000000000E+00  0.000000000E+00 -6.524400153E+02  6.524400153E+02  0.000000000E+00  0.00000E+00  9.000E+00
      25     1     1     2     0     0 -1.349485394E+02  1.607852297E+02 -5.336891280E+02  5.869515174E+02  1.250000000E+02  0.00000E+00  9.000E+00
      25     1     1     2     0     0  8.260632363E+01 -1.550661160E+02  2.066815654E+02  2.986830670E+02  1.250000000E+02  0.00000E+00  9.000E+00
      21     1     1     2   502   512  5.234221575E+01 -5.719113705E+00 -3.109032394E+01  6.114755967E+01  6.743495762E-07  0.00000E+00  9.000E+00
#rwgt            1           1   2.7140074467281113E-002           3      145149           0
</event>
<event>
      5   9999  3.19816E-02  1.33143E+01 -1.00000E+00  1.82404E-01
      21    -1     0     0   502   511  0.000000000E+00  0.000000000E+00  1.871579370E+02  1.871579370E+02  0.000000000E+00  0.00000E+00  9.000E+00
      21    -1     0     0   501   502  0.000000000E+00  0.000000000E+00 -1.939141692E+03  1.939141692E+03  0.000000000E+00  0.00000E+00  9.000E+00
      25     1     1     2     0     0 -2.155534554E+02  2.130675546E+02 -8.301114456E+02  8.925083120E+02  1.250000000E+02  0.00000E+00  9.000E+00
      25     1     1     2     0     0  2.288481597E+02 -2.123450328E+02 -1.051251677E+03  1.103728672E+03  1.250000000E+02  0.00000E+00  9.000E+00
      21     1     1     2   501   511 -1.329470428E+01 -7.225217360E-01  1.293793668E+02  1.300626455E+02  5.722045898E-06  0.00000E+00  9.000E+00
#rwgt            1           1   2.6418940814725168E-002           3      145252           0
</event>
<event>
      5   9999  3.19816E-02  4.09373E+01 -1.00000E+00  1.44219E-01
      21    -1     0     0   502   501  0.000000000E+00  0.000000000E+00  6.530624508E+01  6.530624508E+01  0.000000000E+00  0.00000E+00  9.000E+00
      21    -1     0     0   501   512  0.000000000E+00  0.000000000E+00 -1.161016683E+03  1.161016683E+03  0.000000000E+00  0.00000E+00  9.000E+00
      25     1     1     2     0     0 -6.279721545E+01  1.939679055E+02 -3.278872632E+02  4.058350601E+02  1.250000000E+02  0.00000E+00  9.000E+00
      25     1     1     2     0     0  2.715264312E+01 -1.738352643E+02 -4.396200687E+02  4.897415338E+02  1.250000000E+02  0.00000E+00  9.000E+00
      21     1     1     2   502   512  3.564457234E+01 -2.013264120E+01 -3.282031058E+02  3.307463340E+02  5.394796609E-06  0.00000E+00  9.000E+00
#rwgt            1           1   2.9102944808230842E-002           3      145431           0
</event>
<event>
      5   9999  3.19816E-02  1.57297E+02 -1.00000E+00  1.15582E-01
      21    -1     0     0   502   501  0.000000000E+00  0.000000000E+00  6.905458155E+01  6.905458155E+01  0.000000000E+00  0.00000E+00  9.000E+00
      21    -1     0     0   511   502  0.000000000E+00  0.000000000E+00 -2.434908538E+03  2.434908538E+03  0.000000000E+00  0.00000E+00  9.000E+00
      25     1     1     2     0     0 -2.527114470E+02  1.427813578E+02 -8.335137101E+02  8.914144359E+02  1.250000000E+02  0.00000E+00  9.000E+00
      25     1     1     2     0     0  3.135601346E+02  2.269706990E+00 -9.085976570E+02  9.692779848E+02  1.250000000E+02  0.00000E+00  9.000E+00
      21     1     1     2   511   501 -6.084868752E+01 -1.450510648E+02 -6.237425890E+02  6.432706985E+02  1.321449896E-05  0.00000E+00  9.000E+00
#rwgt            1           1   2.8596083051600520E-002           3      145537           0
</event>
<event>
      5   9999  3.19816E-02  4.20135E+01 -1.00000E+00  1.43530E-01
      21    -1     0     0   502   501  0.000000000E+00  0.000000000E+00  2.243227452E+02  2.243227452E+02  0.000000000E+00  0.00000E+00  9.000E+00
      21    -1     0     0   501   512  0.000000000E+00  0.000000000E+00 -7.895714923E+02  7.895714923E+02  0.000000000E+00  0.00000E+00  9.000E+00
      25     1     1     2     0     0 -1.183782242E+02  2.446696126E+02 -4.646406225E+02  5.526233178E+02  1.250000000E+02  0.00000E+00  9.000E+00
      25     1     1     2     0     0  9.332447077E+01 -2.783955955E+02  3.336840623E+01  3.208613641E+02  1.250000000E+02  0.00000E+00  9.000E+00
      21     1     1     2   502   512  2.505375345E+01  3.372598295E+01 -1.339765308E+02  1.404095556E+02  1.907348633E-06  0.00000E+00  9.000E+00
#rwgt            1           1   2.5291122753664290E-002           3      145598           0
</event>
<event>
      5   9999  3.19816E-02  2.78327E+01 -1.00000E+00  1.55337E-01
      21    -1     0     0   502   501  0.000000000E+00  0.000000000E+00  2.273331417E+03  2.273331417E+03  0.000000000E+00  0.00000E+00  9.000E+00
      21    -1     0     0   511   502  0.000000000E+00  0.000000000E+00 -2.689369776E+01  2.689369776E+01  0.000000000E+00  0.00000E+00  9.000E+00
      25     1     1     2     0     0  1.733694008E+02 -4.705838120E+01  1.239010846E+03  1.258190890E+03  1.250000000E+02  0.00000E+00  9.000E+00
      25     1     1     2     0     0 -1.864699135E+02  7.161519915E+01  9.400926908E+02  9.691744078E+02  1.250000000E+02  0.00000E+00  9.000E+00
      21     1     1     2   511   501  1.310051262E+01 -2.455681795E+01  6.733418268E+01  7.285981675E+01  1.651812370E-06  0.00000E+00  9.000E+00
#rwgt            1           1   7.6076731267070929E-002           3      145696           0
</event>
<event>
      5   9999  3.19816E-02  5.37759E+01 -1.00000E+00  1.37295E-01
      21    -1     0     0   502   512  0.000000000E+00  0.000000000E+00  2.785306501E+03  2.785306501E+03  0.000000000E+00  0.00000E+00  9.000E+00
      21    -1     0     0   501   502  0.000000000E+00  0.000000000E+00 -2.053673537E+02  2.053673537E+02  0.000000000E+00  0.00000E+00  9.000E+00
      25     1     1     2     0     0  4.351067702E+02  4.000035284E+02  4.762616921E+02  7.692664841E+02  1.250000000E+02  0.00000E+00  9.000E+00
      25     1     1     2     0     0 -4.876674954E+02 -4.113708320E+02  1.818904699E+03  1.931601629E+03  1.250000000E+02  0.00000E+00  9.000E+00
      21     1     1     2   501   512  5.256072515E+01  1.136730359E+01  2.847727563E+02  2.898057421E+02  5.394796609E-06  0.00000E+00  9.000E+00
#rwgt            1           1   2.5027077182350546E-002           3      145782           0
</event>
<event>
      5   9999  3.19816E-02  8.66908E+01 -1.00000E+00  1.26684E-01
      21    -1     0     0   502   511  0.000000000E+00  0.000000000E+00  1.188752471E+03  1.188752471E+03  0.000000000E+00  0.00000E+00  9.000E+00
      21    -1     0     0   501   502  0.000000000E+00  0.000000000E+00 -1.414312106E+02  1.414312106E+02  0.000000000E+00  0.00000E+00  9.000E+00
      25     1     1     2     0     0  1.140130563E+02  6.138414369E+01  7.957822596E+02  8.158807479E+02  1.250000000E+02  0.00000E+00  9.000E+00
      25     1     1     2     0     0 -2.775189442E+01 -5.276393359E+01 -8.785967463E+01  1.640076912E+02  1.250000000E+02  0.00000E+00  9.000E+00
      21     1     1     2   501   511 -8.626116191E+01 -8.620210107E+00  3.393986750E+02  3.502952421E+02  5.394796609E-06  0.00000E+00  9.000E+00
#rwgt            1           1   3.3167235038047860E-002           3      145921           0
</event>
<event>
      5   9999  3.19816E-02  1.05986E+02 -1.00000E+00  1.22703E-01
      21    -1     0     0   512   501  0.000000000E+00  0.000000000E+00  3.463229186E+02  3.463229186E+02  0.000000000E+00  0.00000E+00  9.000E+00
      21    -1     0     0   501   502  0.000000000E+00  0.000000000E+00 -5.138302585E+02  5.138302585E+02  0.000000000E+00  0.00000E+00  9.000E+00
      25     1     1     2     0     0  1.487505529E+02 -2.596987598E+02 -4.894467042E+01  3.280102949E+02  1.250000000E+02  0.00000E+00  9.000E+00
      25     1     1     2     0     0 -1.101135833E+02  3.583918109E+02 -1.482048535E+02  4.220892915E+02  1.250000000E+02  0.00000E+00  9.000E+00
      21     1     1     2   512   502 -3.863696955E+01 -9.869305117E+01  2.964218397E+01  1.100535907E+02  1.215700987E-06  0.00000E+00  9.000E+00
#rwgt            1           1   3.0840627006123625E-002           3      146005           0
</event>
<event>
      5   9999  3.19816E-02  3.86109E+02 -1.00000E+00  1.02149E-01
      21    -1     0     0   511   501  0.000000000E+00  0.000000000E+00  1.349677316E+03  1.349677316E+03  0.000000000E+00  0.00000E+00  9.000E+00
      21    -1     0     0   501   502  0.000000000E+00  0.000000000E+00 -2.644223575E+02  2.644223575E+02  0.000000000E+00  0.00000E+00  9.000E+00
      25     1     1     2     0     0  7.688208164E+01 -3.254694273E+02  5.221103489E+02  6.325072481E+02  1.250000000E+02  0.00000E+00  9.000E+00
      25     1     1     2     0     0 -3.011410730E+00 -5.350757209E+01 -1.300140487E+02  1.881509546E+02  1.250000000E+02  0.00000E+00  9.000E+00
      21     1     1     2   511   502 -7.387067091E+01  3.789769994E+02  6.931586585E+02  7.934414710E+02  1.321449896E-05  0.00000E+00  9.000E+00
#rwgt            2          11   1.9989097205808230E-003           3      146392           0
</event>
<event>
      5   9999  3.19816E-02  1.30002E+02 -1.00000E+00  1.18911E-01
      21    -1     0     0   502   501  0.000000000E+00  0.000000000E+00  1.913942675E+02  1.913942675E+02  0.000000000E+00  0.00000E+00  9.000E+00
      21    -1     0     0   512   502  0.000000000E+00  0.000000000E+00 -4.626777556E+02  4.626777556E+02  0.000000000E+00  0.00000E+00  9.000E+00
      25     1     1     2     0     0  1.282310499E+02  1.087157082E+02  5.534847368E+01  2.166812426E+02  1.250000000E+02  0.00000E+00  9.000E+00
      25     1     1     2     0     0 -7.383315751E+01  9.358222852E+00 -2.416988367E+02  2.821032420E+02  1.250000000E+02  0.00000E+00  9.000E+00
      21     1     1     2   512   501 -5.439789241E+01 -1.180739310E+02 -8.493312505E+01  1.552875385E+02  9.536743164E-07  0.00000E+00  9.000E+00
#rwgt            1           1   2.7886727467052848E-002           3      146427           0
</event>
<event>
      5   9999  3.19816E-02  6.76811E+01 -1.00000E+00  1.31966E-01
      21    -1     0     0   502   501  0.000000000E+00  0.000000000E+00  8.019963555E+01  8.019963555E+01  0.000000000E+00  0.00000E+00  9.000E+00
      21    -1     0     0   511   502  0.000000000E+00  0.000000000E+00 -2.446909203E+03  2.446909203E+03  0.000000000E+00  0.00000E+00  9.000E+00
      25     1     1     2     0     0  7.403679231E+01 -2.514649166E+01 -1.275682741E+03  1.284174929E+03  1.250000000E+02  0.00000E+00  9.000E+00
      25     1     1     2     0     0 -3.201089594E+01  7.819881370E+01 -1.076002159E+00  1.508837622E+02  1.250000000E+02  0.00000E+00  9.000E+00
      21     1     1     2   511   501 -4.202589637E+01 -5.305232204E+01 -1.089950825E+03  1.092050148E+03  0.000000000E+00  0.00000E+00  9.000E+00
#rwgt            1           1   2.6487442088779123E-002           3      146503           0
</event>
<event>
      5   9999  3.19816E-02  1.26042E+02 -1.00000E+00  1.19470E-01
      21    -1     0     0   502   501  0.000000000E+00  0.000000000E+00  2.383766578E+02  2.383766578E+02  0.000000000E+00  0.00000E+00  9.000E+00
      21    -1     0     0   501   512  0.000000000E+00  0.000000000E+00 -1.298412845E+03  1.298412845E+03  0.000000000E+00  0.00000E+00  9.000E+00
      25     1     1     2     0     0 -2.055867709E+01 -1.908364598E+02  1.522208556E+02  2.750225491E+02  1.250000000E+02  0.00000E+00  9.000E+00
      25     1     1     2     0     0 -6.896574641E+01  1.021119378E+02 -9.969223840E+02  1.012256075E+03  1.250000000E+02  0.00000E+00  9.000E+00
      21     1     1     2   502   512  8.952442350E+01  8.872452201E+01 -2.153346591E+02  2.495108787E+02  3.814697266E-06  0.00000E+00  9.000E+00
#rwgt            1           1   1.7613725135303578E-002           3      146587           0
</event>
<event>
      5   9999  3.19816E-02  2.67169E+02 -1.00000E+00  1.07254E-01
      21    -1     0     0   502   511  0.000000000E+00  0.000000000E+00  4.476867489E+02  4.476867489E+02  0.000000000E+00  0.00000E+00  9.000E+00
      21    -1     0     0   501   502  0.000000000E+00  0.000000000E+00 -2.082028938E+03  2.082028938E+03  0.000000000E+00  0.00000E+00  9.000E+00
      25     1     1     2     0     0  5.120506044E+01 -5.096789090E+02 -4.695611676E+02  7.060504505E+02  1.250000000E+02  0.00000E+00  9.000E+00
      25     1     1     2     0     0 -3.130960383E+02  4.568336094E+02 -1.372467664E+03  1.485267169E+03  1.250000000E+02  0.00000E+00  9.000E+00
      21     1     1     2   501   511  2.618909779E+02  5.284529960E+01  2.076866428E+02  3.383980667E+02  2.697398305E-06  0.00000E+00  9.000E+00
#rwgt            1           1   2.9775684470503272E-002           3      146659           0
</event>
<event>
      5   9999  3.19816E-02  8.56580E+00 -1.00000E+00  2.03864E-01
      21    -1     0     0   512   501  0.000000000E+00  0.000000000E+00  1.500350656E+02  1.500350656E+02  0.000000000E+00  0.00000E+00  9.000E+00
      21    -1     0     0   501   502  0.000000000E+00  0.000000000E+00 -1.413034127E+03  1.413034127E+03  0.000000000E+00  0.00000E+00  9.000E+00
      25     1     1     2     0     0  1.109683591E+02 -6.915730200E+01  8.358296790E+01  1.992682154E+02  1.250000000E+02  0.00000E+00  9.000E+00
      25     1     1     2     0     0 -1.115085662E+02  7.770605288E+01 -1.340824875E+03  1.353480231E+03  1.250000000E+02  0.00000E+00  9.000E+00
      21     1     1     2   512   502  5.402070752E-01 -8.548750883E+00 -5.757153875E+00  1.032074542E+01  1.192092896E-07  0.00000E+00  9.000E+00
#rwgt            1           1   3.0166362648529555E-002           3      146713           0
</event>
<event>
      5   9999  3.19816E-02  3.31165E+02 -1.00000E+00  1.04216E-01
      21    -1     0     0   511   501  0.000000000E+00  0.000000000E+00  4.025552950E+02  4.025552950E+02  0.000000000E+00  0.00000E+00  9.000E+00
      21    -1     0     0   501   502  0.000000000E+00  0.000000000E+00 -7.568765105E+02  7.568765105E+02  0.000000000E+00  0.00000E+00  9.000E+00
      25     1     1     2     0     0 -3.642829950E+02  1.528061779E+02 -3.749730388E+02  5.588216247E+02  1.250000000E+02  0.00000E+00  9.000E+00
      25     1     1     2     0     0  3.502742710E+01 -1.172982646E+02 -1.478297709E+02  2.290511835E+02  1.250000000E+02  0.00000E+00  9.000E+00
      21     1     1     2   511   502  3.292555679E+02 -3.550791328E+01  1.684815941E+02  3.715589973E+02  2.697398305E-06  0.00000E+00  9.000E+00
#rwgt            2          11   4.5640217394543664E-003           3      147098           0
</event>
<event>
      5   9999  3.19816E-02  1.21071E+01 -1.00000E+00  1.86623E-01
      21    -1     0     0   502   501  0.000000000E+00  0.000000000E+00  2.097400030E+02  2.097400030E+02  0.000000000E+00  0.00000E+00  9.000E+00
      21    -1     0     0   501   512  0.000000000E+00  0.000000000E+00 -8.531899714E+02  8.531899714E+02  0.000000000E+00  0.00000E+00  9.000E+00
      25     1     1     2     0     0  1.144164310E+02 -2.506358727E+02 -7.247210835E+01  3.111055558E+02  1.250000000E+02  0.00000E+00  9.000E+00
      25     1     1     2     0     0 -1.157164134E+02  2.626729930E+02 -1.809346147E+02  3.615933135E+02  1.250000000E+02  0.00000E+00  9.000E+00
      21     1     1     2   502   512  1.299982384E+00 -1.203712035E+01 -3.900432453E+02  3.902311051E+02  7.629394531E-06  0.00000E+00  9.000E+00
#rwgt            1           1   2.7095801971165314E-002           3      147118           0
</event>
<event>
      5   9999  3.19816E-02  3.71634E+01 -1.00000E+00  1.46850E-01
      21    -1     0     0   502   501  0.000000000E+00  0.000000000E+00  8.805326572E+02  8.805326572E+02  0.000000000E+00  0.00000E+00  9.000E+00
      -1    -1     0     0     0   502  0.000000000E+00  0.000000000E+00 -6.896143451E+02  6.896143451E+02  0.000000000E+00  0.00000E+00  9.000E+00
      25     1     1     2     0     0 -2.237294660E+02  3.900174921E+02  4.764691980E+02  6.669455860E+02  1.250000000E+02  0.00000E+00  9.000E+00
      25     1     1     2     0     0  1.999237339E+02 -3.614797127E+02  1.568821589E+02  4.592102937E+02  1.250000000E+02  0.00000E+00  9.000E+00
      -1     1     1     2     0   501  2.380573207E+01 -2.853777937E+01 -4.424330448E+02  4.439911225E+02  0.000000000E+00  0.00000E+00  9.000E+00
#rwgt            1           1   2.3910153160209082E-002           3      147331           0
</event>
<event>
      5   9999  3.19816E-02  1.10554E+02 -1.00000E+00  1.21899E-01
      21    -1     0     0   502   501  0.000000000E+00  0.000000000E+00  3.957397767E+02  3.957397767E+02  0.000000000E+00  0.00000E+00  9.000E+00
      21    -1     0     0   511   502  0.000000000E+00  0.000000000E+00 -8.057727587E+02  8.057727587E+02  0.000000000E+00  0.00000E+00  9.000E+00
      25     1     1     2     0     0 -1.581947261E+01 -1.256193458E+02 -5.519366231E+02  5.799047437E+02  1.250000000E+02  0.00000E+00  9.000E+00
      25     1     1     2     0     0  8.348874809E+01  2.130434693E+02  3.195157677E+02  4.123993413E+02  1.250000000E+02  0.00000E+00  9.000E+00
      21     1     1     2   511   501 -6.766927548E+01 -8.742412350E+01 -1.776121266E+02  2.092084505E+02  2.697398305E-06  0.00000E+00  9.000E+00
#rwgt            1           1   2.9571684675805225E-002           3      147492           0
</event>
<event>
      5   9999  3.19816E-02  6.83825E+01 -1.00000E+00  1.31737E-01
      21    -1     0     0   502   501  0.000000000E+00  0.000000000E+00  5.790267420E+02  5.790267420E+02  0.000000000E+00  0.00000E+00  9.000E+00
      21    -1     0     0   501   512  0.000000000E+00  0.000000000E+00 -9.624403966E+01  9.624403966E+01  0.000000000E+00  0.00000E+00  9.000E+00
      25     1     1     2     0     0 -9.614056073E+01  5.007777964E+01  5.462310044E+01  1.742397042E+02  1.250000000E+02  0.00000E+00  9.000E+00
      25     1     1     2     0     0  5.689493407E+01  5.921707801E+00  4.067869573E+02  4.293864562E+02  1.250000000E+02  0.00000E+00  9.000E+00
      21     1     1     2   502   512  3.924562667E+01 -5.599948744E+01  2.137264455E+01  7.164462116E+01  1.488923549E-06  0.00000E+00  9.000E+00
#rwgt            1           1   3.1584088679710805E-002           3      147550           0
</event>
<event>
      5   9999  3.19816E-02  1.14747E+02 -1.00000E+00  1.21199E-01
      21    -1     0     0   502   511  0.000000000E+00  0.000000000E+00  2.332455157E+02  2.332455157E+02  0.000000000E+00  0.00000E+00  9.000E+00
      21    -1     0     0   501   502  0.000000000E+00  0.000000000E+00 -1.107970591E+03  1.107970591E+03  0.000000000E+00  0.00000E+00  9.000E+00
      25     1     1     2     0     0  2.100105761E+02  3.208440808E+02 -6.878573543E+02  7.973820328E+02  1.250000000E+02  0.00000E+00  9.000E+00
      25     1     1     2     0     0 -9.552905023E+01 -3.286387304E+02 -2.184468148E+02  4.248214042E+02  1.250000000E+02  0.00000E+00  9.000E+00
      21     1     1     2   501   511 -1.144815259E+02  7.794649627E+00  3.157909396E+01  1.190126695E+02  1.215700987E-06  0.00000E+00  9.000E+00
#rwgt            1           1   2.7993045674359895E-002           3      147626           0
</event>
<event>
      5   9999  3.19816E-02  6.12913E+01 -1.00000E+00  1.34211E-01
      21    -1     0     0   502   512  0.000000000E+00  0.000000000E+00  4.436749103E+02  4.436749103E+02  0.000000000E+00  0.00000E+00  9.000E+00
      21    -1     0     0   501   502  0.000000000E+00  0.000000000E+00 -3.067016699E+02  3.067016699E+02  0.000000000E+00  0.00000E+00  9.000E+00
      25     1     1     2     0     0 -2.676032710E+02  1.453018943E+01 -3.719565716E+01  2.980455569E+02  1.250000000E+02  0.00000E+00  9.000E+00
      25     1     1     2     0     0  2.669456873E+02  4.675761693E+01  3.528837180E+01  3.005271100E+02  1.250000000E+02  0.00000E+00  9.000E+00
      21     1     1     2   501   512  6.575837448E-01 -6.128780635E+01  1.388805258E+02  1.518039132E+02  3.303624740E-06  0.00000E+00  9.000E+00
#rwgt            1           1   2.7720335979293360E-002           3      147722           0
</event>
<event>
      5   9999  3.19816E-02  8.89497E+01 -1.00000E+00  1.26159E-01
      21    -1     0     0   502   501  0.000000000E+00  0.000000000E+00  1.598624921E+02  1.598624921E+02  0.000000000E+00  0.00000E+00  9.000E+00
      21    -1     0     0   501   511  0.000000000E+00  0.000000000E+00 -9.062632839E+02  9.062632839E+02  0.000000000E+00  0.00000E+00  9.000E+00
      25     1     1     2     0     0 -1.010976677E+02  2.468121305E+02 -3.573616052E+02  4.631082844E+02  1.250000000E+02  0.00000E+00  9.000E+00
      25     1     1     2     0     0  5.107051290E+01 -3.203602409E+02 -2.183360076E+02  4.105295281E+02  1.250000000E+02  0.00000E+00  9.000E+00
      21     1     1     2   502   511  5.002715482E+01  7.354811039E+01 -1.707031790E+02  1.924879635E+02  3.303624740E-06  0.00000E+00  9.000E+00
#rwgt            1           1   2.7220406651279769E-002           3      147833           0
</event>
<event>
      5   9999  3.19816E-02  8.27129E+01 -1.00000E+00  1.27652E-01
       2    -1     0     0   502     0  0.000000000E+00  0.000000000E+00  1.237053229E+03  1.237053229E+03  0.000000000E+00  0.00000E+00  9.000E+00
      21    -1     0     0   501   502  0.000000000E+00  0.000000000E+00 -3.894867158E+02  3.894867158E+02  0.000000000E+00  0.00000E+00  9.000E+00
      25     1     1     2     0     0  2.106312162E+01  1.005498791E+02  1.077532329E+03  1.089612249E+03  1.250000000E+02  0.00000E+00  9.000E+00
      25     1     1     2     0     0  5.828217891E+01 -1.239111529E+02 -3.471108914E+02  3.935247859E+02  1.250000000E+02  0.00000E+00  9.000E+00
       2     1     1     2   501     0 -7.934530053E+01  2.336127382E+01  1.171450758E+02  1.434029100E+02  1.348699152E-06  0.00000E+00  9.000E+00
#rwgt            1           1   2.9741111100270501E-002           3      147919           0
</event>
<event>
      5   9999  3.19816E-02  4.43432E+01 -1.00000E+00  1.42117E-01
       1    -1     0     0   502     0  0.000000000E+00  0.000000000E+00  8.872351973E+02  8.872351973E+02  0.000000000E+00  0.00000E+00  9.000E+00
      21    -1     0     0   501   502  0.000000000E+00  0.000000000E+00 -2.920153922E+02  2.920153922E+02  0.000000000E+00  0.00000E+00  9.000E+00
      25     1     1     2     0     0 -1.582251955E+02 -2.454483121E+02  1.598894486E+02  3.556258177E+02  1.250000000E+02  0.00000E+00  9.000E+00
      25     1     1     2     0     0  1.795981431E+02  2.065958021E+02 -7.599284566E+01  3.103823949E+02  1.250000000E+02  0.00000E+00  9.000E+00
       1     1     1     2   501     0 -2.137294759E+01  3.885251001E+01  5.113232022E+02  5.132423770E+02  5.394796609E-06  0.00000E+00  9.000E+00
#rwgt            1           1   2.5783369373561106E-002           3      148015           0
</event>
<event>
      5   9999  3.19816E-02  9.67582E+01 -1.00000E+00  1.24475E-01
      21    -1     0     0   502   501  0.000000000E+00  0.000000000E+00  7.425420720E+01  7.425420720E+01  0.000000000E+00  0.00000E+00  9.000E+00
      21    -1     0     0   501   511  0.000000000E+00  0.000000000E+00 -1.574007165E+03  1.574007165E+03  0.000000000E+00  0.00000E+00  9.000E+00
      25     1     1     2     0     0 -8.818612752E+01  6.282639394E+01 -2.476443414E+02  2.977862802E+02  1.250000000E+02  0.00000E+00  9.000E+00
      25     1     1     2     0     0  3.839878357E+01 -1.457924513E+02 -1.567453287E+02  2.508465736E+02  1.250000000E+02  0.00000E+00  9.000E+00
      21     1     1     2   502   511  4.978734396E+01  8.296605734E+01 -1.095363287E+03  1.099628518E+03  1.525878906E-05  0.00000E+00  9.000E+00
#rwgt            1           1   2.7277580110654655E-002           3      148081           0
</event>
<event>
      5   9999  3.19816E-02  1.12907E+02 -1.00000E+00  1.21502E-01
      21    -1     0     0   502   501  0.000000000E+00  0.000000000E+00  1.024639123E+03  1.024639123E+03  0.000000000E+00  0.00000E+00  9.000E+00
      21    -1     0     0   512   502  0.000000000E+00  0.000000000E+00 -3.215277032E+02  3.215277032E+02  0.000000000E+00  0.00000E+00  9.000E+00
      25     1     1     2     0     0  1.505437863E+02 -5.338172491E+01 -3.354503165E+01  2.055804205E+02  1.250000000E+02  0.00000E+00  9.000E+00
      25     1     1     2     0     0 -2.534796457E+02  6.989425666E+00  8.992454245E+02  9.426389109E+02  1.250000000E+02  0.00000E+00  9.000E+00
      21     1     1     2   512   501  1.029358594E+02  4.639229924E+01 -1.625889729E+02  1.979474948E+02  2.697398305E-06  0.00000E+00  9.000E+00
#rwgt            1           1   2.8422817323532090E-002           3      148152           0
</event>
<event>
      5   9999  3.19816E-02  1.54299E+01 -1.00000E+00  1.76235E-01
      21    -1     0     0   502   501  0.000000000E+00  0.000000000E+00  4.540655579E+02  4.540655579E+02  0.000000000E+00  0.00000E+00  9.000E+00
       1    -1     0     0   501     0  0.000000000E+00  0.000000000E+00 -1.022679274E+02  1.022679274E+02  0.000000000E+00  0.00000E+00  9.000E+00
      25     1     1     2     0     0 -1.375857425E+02  4.383934197E+01  1.313692598E+02  2.318072623E+02  1.250000000E+02  0.00000E+00  9.000E+00
      25     1     1     2     0     0  1.235653879E+02 -3.739638703E+01  2.398636659E+02  2.997106489E+02  1.250000000E+02  0.00000E+00  9.000E+00
       1     1     1     2   502     0  1.402035462E+01 -6.442954938E+00 -1.943529529E+01  2.481557404E+01  5.840038640E-07  0.00000E+00  9.000E+00
#rwgt            1           1   1.8737290856011484E-002           3      148258           0
</event>
<event>
      5   9999  3.19816E-02  4.57014E+02 -1.00000E+00  9.99739E-02
      21    -1     0     0   502   501  0.000000000E+00  0.000000000E+00  9.545559437E+02  9.545559437E+02  0.000000000E+00  0.00000E+00  9.000E+00
      21    -1     0     0   501   511  0.000000000E+00  0.000000000E+00 -4.013119954E+02  4.013119954E+02  0.000000000E+00  0.00000E+00  9.000E+00
      25     1     1     2     0     0 -2.646509320E+02  2.153059501E+02  5.001145111E+02  6.181717335E+02  1.250000000E+02  0.00000E+00  9.000E+00
      25     1     1     2     0     0  1.433263574E+01  1.670584653E+02  1.659295325E+02  2.669673483E+02  1.250000000E+02  0.00000E+00  9.000E+00
      21     1     1     2   502   511  2.503182962E+02 -3.823644154E+02 -1.128000952E+02  4.707288573E+02  4.046097457E-06  0.00000E+00  9.000E+00
#rwgt            2          11   7.2401610447187566E-003           3      148515           0
</event>
<event>
      5   9999  3.19816E-02  3.18426E+01 -1.00000E+00  1.51263E-01
      21    -1     0     0   512   501  0.000000000E+00  0.000000000E+00  2.725531442E+02  2.725531442E+02  0.000000000E+00  0.00000E+00  9.000E+00
      21    -1     0     0   501   502  0.000000000E+00  0.000000000E+00 -4.746484275E+02  4.746484275E+02  0.000000000E+00  0.00000E+00  9.000E+00
      25     1     1     2     0     0 -1.767674155E+02  8.556390509E+01  1.452901188E+02  2.744123169E+02  1.250000000E+02  0.00000E+00  9.000E+00
      25     1     1     2     0     0  1.780725396E+02 -1.173797239E+02 -3.615117742E+02  4.379538696E+02  1.250000000E+02  0.00000E+00  9.000E+00
      21     1     1     2   512   502 -1.305124122E+00  3.181581881E+01  1.412637217E+01  3.483538526E+01  1.685873940E-07  0.00000E+00  9.000E+00
#rwgt            1           1   2.9602841496690659E-002           3      148535           0
</event>
<event>
      5   9999  3.19816E-02  6.61057E+01 -1.00000E+00  1.32492E-01
       5    -1     0     0   502     0  0.000000000E+00  0.000000000E+00  8.852014431E+01  8.852014431E+01  0.000000000E+00  0.00000E+00  9.000E+00
      21    -1     0     0   501   502  0.000000000E+00  0.000000000E+00 -1.106831788E+03  1.106831788E+03  0.000000000E+00  0.00000E+00  9.000E+00
      25     1     1     2     0     0 -1.993238336E+02  2.047711201E+01 -3.961733737E+02  4.612240722E+02  1.250000000E+02  0.00000E+00  9.000E+00
      25     1     1     2     0     0  1.580138390E+02 -7.208566112E+01 -6.320431814E+02  6.672842716E+02  1.250000000E+02  0.00000E+00  9.000E+00
       5     1     1     2   501     0  4.130999457E+01  5.160854910E+01  9.904911892E+00  6.684358811E+01  1.130918620E-06  0.00000E+00  9.000E+00
#rwgt            1           1   2.8390342368066562E-002           3      148761           0
</event>
<event>
      5   9999  3.19816E-02  7.66083E+01 -1.00000E+00  1.29267E-01
      21    -1     0     0   511   501  0.000000000E+00  0.000000000E+00  4.493740409E+02  4.493740409E+02  0.000000000E+00  0.00000E+00  9.000E+00
      21    -1     0     0   501   502  0.000000000E+00  0.000000000E+00 -2.984915112E+02  2.984915112E+02  0.000000000E+00  0.00000E+00  9.000E+00
      25     1     1     2     0     0  1.412183624E+02  1.173092557E+02 -2.015748894E+02  2.999358654E+02  1.250000000E+02  0.00000E+00  9.000E+00
      25     1     1     2     0     0 -6.601748944E+01 -1.026921628E+02  1.459246096E+02  2.276466141E+02  1.250000000E+02  0.00000E+00  9.000E+00
      21     1     1     2   511   502 -7.520087292E+01 -1.461709282E+01  2.065328094E+02  2.202830726E+02  3.814697266E-06  0.00000E+00  9.000E+00
#rwgt            1           1   2.9157159272855008E-002           3      148829           0
</event>
<event>
      5   9999  3.19816E-02  2.37554E+02 -1.00000E+00  1.08993E-01
      21    -1     0     0   502   512  0.000000000E+00  0.000000000E+00  5.028902029E+02  5.028902029E+02  0.000000000E+00  0.00000E+00  9.000E+00
      21    -1     0     0   501   502  0.000000000E+00  0.000000000E+00 -4.604170676E+02  4.604170676E+02  0.000000000E+00  0.00000E+00  9.000E+00
      25     1     1     2     0     0  2.039485367E+01  2.212426888E+02 -4.266002748E+01  2.584746706E+02  1.250000000E+02  0.00000E+00  9.000E+00
      25     1     1     2     0     0  2.025520492E+02 -3.032573203E+02 -1.061307149E+02  3.998513019E+02  1.250000000E+02  0.00000E+00  9.000E+00
      21     1     1     2   501   512 -2.229469029E+02  8.201463152E+01  1.912638777E+02  3.049812981E+02  3.814697266E-06  0.00000E+00  9.000E+00
#rwgt            1           1   2.8430429464985887E-002           3      148946           0
</event>
<event>
      5   9999  3.19816E-02  3.91079E+02 -1.00000E+00  1.01981E-01
      21    -1     0     0   502   501  0.000000000E+00  0.000000000E+00  1.202455674E+03  1.202455674E+03  0.000000000E+00  0.00000E+00  9.000E+00
      21    -1     0     0   511   502  0.000000000E+00  0.000000000E+00 -4.776042474E+02  4.776042474E+02  0.000000000E+00  0.00000E+00  9.000E+00
      25     1     1     2     0     0 -2.578353354E+02 -3.839415369E+01 -7.240749933E+01  2.980285509E+02  1.250000000E+02  0.00000E+00  9.000E+00
      25     1     1     2     0     0  1.648453025E+02  4.182565144E+02  8.671782376E+02  9.847515328E+02  1.250000000E+02  0.00000E+00  9.000E+00
      21     1     1     2   511   501  9.299003287E+01 -3.798623607E+02 -6.991931153E+01  3.972798377E+02  4.862803949E-06  0.00000E+00  9.000E+00
#rwgt            2          11   2.9916135715152272E-003           3      149115           0
</event>
<event>
      5   9999  3.19816E-02  7.24781E+01 -1.00000E+00  1.30460E-01
      21    -1     0     0   502   512  0.000000000E+00  0.000000000E+00  1.116031513E+03  1.116031513E+03  0.000000000E+00  0.00000E+00  9.000E+00
      21    -1     0     0   501   502  0.000000000E+00  0.000000000E+00 -1.499989249E+02  1.499989249E+02  0.000000000E+00  0.00000E+00  9.000E+00
      25     1     1     2     0     0  1.346680010E+02  3.242766069E+02  5.529423804E+02  6.668291118E+02  1.250000000E+02  0.00000E+00  9.000E+00
      25     1     1     2     0     0 -6.332820611E+01 -3.114815536E+02  2.581025813E+02  4.281041490E+02  1.250000000E+02  0.00000E+00  9.000E+00
      21     1     1     2   501   512 -7.133979488E+01 -1.279505333E+01  1.549876267E+02  1.710971775E+02  3.303624740E-06  0.00000E+00  9.000E+00
#rwgt            1           1   2.9933169994583918E-002           3      149150           0
</event>
<event>
      5   9999  3.19816E-02  3.48262E+01 -1.00000E+00  1.48672E-01
      21    -1     0     0   502   511  0.000000000E+00  0.000000000E+00  4.891127038E+02  4.891127038E+02  0.000000000E+00  0.00000E+00  9.000E+00
      21    -1     0     0   501   502  0.000000000E+00  0.000000000E+00 -4.101363138E+02  4.101363138E+02  0.000000000E+00  0.00000E+00  9.000E+00
      25     1     1     2     0     0  3.389429632E+02 -1.371253478E+02  2.066545524E+02  4.381972128E+02  1.250000000E+02  0.00000E+00  9.000E+00
      25     1     1     2     0     0 -3.394238232E+02  1.719482654E+02 -1.397672505E+02  4.241870130E+02  1.250000000E+02  0.00000E+00  9.000E+00
      21     1     1     2   501   511  4.808599904E-01 -3.482291757E+01  1.208908808E+01  3.686479167E+01  8.596304120E-07  0.00000E+00  9.000E+00
#rwgt            1           1   2.8805053162698865E-002           3      149266           0
</event>
<event>
      5   9999  3.19816E-02  3.86951E+01 -1.00000E+00  1.45739E-01
      21    -1     0     0   512   501  0.000000000E+00  0.000000000E+00  8.414642569E+01  8.414642569E+01  0.000000000E+00  0.00000E+00  9.000E+00
      21    -1     0     0   501   502  0.000000000E+00  0.000000000E+00 -2.870435854E+03  2.870435854E+03  0.000000000E+00  0.00000E+00  9.000E+00
      25     1     1     2     0     0 -1.171642320E+02 -3.058771057E+02 -1.379037891E+03  1.422905044E+03  1.250000000E+02  0.00000E+00  9.000E+00
      25     1     1     2     0     0  1.464231810E+02  2.805547513E+02 -1.440819281E+03  1.480451255E+03  1.250000000E+02  0.00000E+00  9.000E+00
      21     1     1     2   512   502 -2.925894899E+01  2.532235441E+01  3.356774338E+01  5.122598095E+01  1.907348633E-06  0.00000E+00  9.000E+00
#rwgt            1           1   4.1763993985973309E-002           3      149393           0
</event>
<event>
      5   9999  3.19816E-02  5.22560E+01 -1.00000E+00  1.37991E-01
      -3    -1     0     0     0   501  0.000000000E+00  0.000000000E+00  6.831508722E+02  6.831508722E+02  0.000000000E+00  0.00000E+00  9.000E+00
      21    -1     0     0   501   502  0.000000000E+00  0.000000000E+00 -1.407700306E+02  1.407700306E+02  0.000000000E+00  0.00000E+00  9.000E+00
      25     1     1     2     0     0  1.320063363E+02  3.634453042E+01 -3.542573712E+01  1.887500479E+02  1.250000000E+02  0.00000E+00  9.000E+00
      25     1     1     2     0     0 -1.401423824E+02  1.527422364E+01  3.135973294E+02  3.658435106E+02  1.250000000E+02  0.00000E+00  9.000E+00
      -3     1     1     2     0   502  8.136046095E+00 -5.161875406E+01  2.642092493E+02  2.693273443E+02  5.394796609E-06  0.00000E+00  9.000E+00
#rwgt            1           1   2.9403310645461412E-002           3      149480           0
</event>
<event>
      5   9999  3.19816E-02  9.30168E+01 -1.00000E+00  1.25259E-01
       1    -1     0     0   502     0  0.000000000E+00  0.000000000E+00  3.491571255E+02  3.491571255E+02  0.000000000E+00  0.00000E+00  9.000E+00
      21    -1     0     0   501   502  0.000000000E+00  0.000000000E+00 -6.550936465E+02  6.550936465E+02  0.000000000E+00  0.00000E+00  9.000E+00
      25     1     1     2     0     0 -3.257808243E+02 -2.117311957E+02 -4.007336219E+02  5.719927276E+02  1.250000000E+02  0.00000E+00  9.000E+00
      25     1     1     2     0     0  2.719332767E+02  1.358854693E+02  7.183315682E+01  3.364484658E+02  1.250000000E+02  0.00000E+00  9.000E+00
       1     1     1     2   501     0  5.384754769E+01  7.584572646E+01  2.296394404E+01  9.580957854E+01  2.078484985E-06  0.00000E+00  9.000E+00
#rwgt            1           1   2.4353163420565101E-002           3      149566           0
</event>
<event>
      5   9999  3.19816E-02  8.38591E+01 -1.00000E+00  1.27367E-01
      21    -1     0     0   502   501  0.000000000E+00  0.000000000E+00  9.954838446E+02  9.954838446E+02  0.000000000E+00  0.00000E+00  9.000E+00
      21    -1     0     0   501   511  0.000000000E+00  0.000000000E+00 -6.356537024E+02  6.356537024E+02  0.000000000E+00  0.00000E+00  9.000E+00
      25     1     1     2     0     0 -5.527033325E+02  3.376250525E+02 -1.935659953E+02  6.874332290E+02  1.250000000E+02  0.00000E+00  9.000E+00
      25     1     1     2     0     0  5.231547189E+02 -2.591442664E+02  6.010997743E+02  8.472263862E+02  1.250000000E+02  0.00000E+00  9.000E+00
      21     1     1     2   502   511  2.954861363E+01 -7.848078607E+01 -4.770363692E+01  9.647793181E+01  6.743495762E-07  0.00000E+00  9.000E+00
#rwgt            1           1   2.9682781329267573E-002           3      149615           0
</event>
<event>
      5   9999  3.19816E-02  1.16336E+01 -1.00000E+00  1.88455E-01
      21    -1     0     0   512   501  0.000000000E+00  0.000000000E+00  3.371444967E+02  3.371444967E+02  0.000000000E+00  0.00000E+00  9.000E+00
      21    -1     0     0   501   502  0.000000000E+00  0.000000000E+00 -7.601103231E+02  7.601103231E+02  0.000000000E+00  0.00000E+00  9.000E+00
      25     1     1     2     0     0  2.082179307E+02 -4.302290599E+02 -1.852843708E+02  5.276429178E+02  1.250000000E+02  0.00000E+00  9.000E+00
      25     1     1     2     0     0 -2.196159818E+02  4.325581306E+02 -2.430389754E+02  5.568039685E+02  1.250000000E+02  0.00000E+00  9.000E+00
      21     1     1     2   512   502  1.139805110E+01 -2.329070653E+00  5.357519818E+00  1.280793338E+01  2.230201594E-07  0.00000E+00  9.000E+00
#rwgt            1           1   2.7938961775372292E-002           3      149705           0
</event>
<event>
      5   9999  3.19816E-02  1.99031E+02 -1.00000E+00  1.11725E-01
      21    -1     0     0   502   501  0.000000000E+00  0.000000000E+00  1.501812573E+02  1.501812573E+02  0.000000000E+00  0.00000E+00  9.000E+00
       1    -1     0     0   501     0  0.000000000E+00  0.000000000E+00 -7.782534008E+02  7.782534008E+02  0.000000000E+00  0.00000E+00  9.000E+00
      25     1     1     2     0     0  6.336576905E+01 -7.945207428E+01 -2.750463100E+01  1.634299774E+02  1.250000000E+02  0.00000E+00  9.000E+00
      25     1     1     2     0     0  1.324692818E+02  1.149787424E+02 -1.239732598E+02  2.485208059E+02  1.250000000E+02  0.00000E+00  9.000E+00
       1     1     1     2   502     0 -1.958350509E+02 -3.552666812E+01 -4.765942526E+02  5.164838748E+02  0.000000000E+00  0.00000E+00  9.000E+00
#rwgt            1           1   2.3301979352799495E-002           3      150010           0
</event>
<event>
      5   9999  3.19816E-02  6.64891E+01 -1.00000E+00  1.32363E-01
      21    -1     0     0   502   501  0.000000000E+00  0.000000000E+00  2.369556907E+02  2.369556907E+02  0.000000000E+00  0.00000E+00  9.000E+00
      21    -1     0     0   511   502  0.000000000E+00  0.000000000E+00 -1.260870434E+03  1.260870434E+03  0.000000000E+00  0.00000E+00  9.000E+00
      25     1     1     2     0     0  3.012235516E+02  1.754104830E+02 -3.380104452E+02  5.013786261E+02  1.250000000E+02  0.00000E+00  9.000E+00
      25     1     1     2     0     0 -3.234752076E+02 -2.380655758E+02 -1.353281425E+02  4.418711740E+02  1.250000000E+02  0.00000E+00  9.000E+00
      21     1     1     2   511   501  2.225165596E+01  6.265509280E+01 -5.505761558E+02  5.545763249E+02  7.629394531E-06  0.00000E+00  9.000E+00
#rwgt            1           1   2.8118237363887643E-002           3      150085           0
</event>
<event>
      5   9999  3.19816E-02  5.85835E+02 -1.00000E+00  9.69358E-02
      -5    -1     0     0     0   501  0.000000000E+00  0.000000000E+00  5.975523067E+02  5.975523067E+02  0.000000000E+00  0.00000E+00  9.000E+00
      21    -1     0     0   501   502  0.000000000E+00  0.000000000E+00 -7.428717455E+02  7.428717455E+02  0.000000000E+00  0.00000E+00  9.000E+00
      25     1     1     2     0     0  3.633608928E+02 -1.698625776E+02  7.773909119E+01  4.272619805E+02  1.250000000E+02  0.00000E+00  9.000E+00
      25     1     1     2     0     0  2.285564906E+01 -2.706366682E+02 -9.235810488E+01  3.129242822E+02  1.250000000E+02  0.00000E+00  9.000E+00
      -5     1     1     2     0   502 -3.862165419E+02  4.404992458E+02 -1.307004251E+02  6.002377895E+02  1.221299026E-05  0.00000E+00  9.000E+00
#rwgt            2           1   1.2941804497129986E-005           3      150220           0
</event>
<event>
      5   9999  3.19816E-02  9.95319E+00 -1.00000E+00  1.95993E-01
      21    -1     0     0   502   501  0.000000000E+00  0.000000000E+00  1.349895674E+02  1.349895674E+02  0.000000000E+00  0.00000E+00  9.000E+00
      21    -1     0     0   511   502  0.000000000E+00  0.000000000E+00 -1.569205029E+03  1.569205029E+03  0.000000000E+00  0.00000E+00  9.000E+00
      25     1     1     2     0     0 -2.534727598E+02  1.031766303E+02 -1.432203572E+02  3.332130366E+02  1.250000000E+02  0.00000E+00  9.000E+00
      25     1     1     2     0     0  2.611254869E+02 -9.681252502E+01 -5.430223052E+02  6.229425406E+02  1.250000000E+02  0.00000E+00  9.000E+00
      21     1     1     2   511   501 -7.652727089E+00 -6.364105330E+00 -7.479727993E+02  7.480390194E+02  1.525878906E-05  0.00000E+00  9.000E+00
#rwgt            1           1   2.6781611006682100E-002           3      150239           0
</event>
<event>
      5   9999  3.19816E-02  8.83094E+01 -1.00000E+00  1.26306E-01
      21    -1     0     0   502   501  0.000000000E+00  0.000000000E+00  3.017293557E+02  3.017293557E+02  0.000000000E+00  0.00000E+00  9.000E+00
       1    -1     0     0   501     0  0.000000000E+00  0.000000000E+00 -3.140050887E+03  3.140050887E+03  0.000000000E+00  0.00000E+00  9.000E+00
      25     1     1     2     0     0 -4.750791792E+02 -1.598947664E+01 -1.178418361E+03  1.276812721E+03  1.250000000E+02  0.00000E+00  9.000E+00
      25     1     1     2     0     0  5.368562510E+02  7.909368379E+01 -5.715416978E+01  5.597874991E+02  1.250000000E+02  0.00000E+00  9.000E+00
       1     1     1     2   502     0 -6.177707175E+01 -6.310420716E+01 -1.602749000E+03  1.605180023E+03  3.051757812E-05  0.00000E+00  9.000E+00
#rwgt            1           1   3.1993505377154209E-002           3      150496           0
</event>
<event>
      5   9999  3.19816E-02  6.43837E+01 -1.00000E+00  1.33087E-01
      21    -1     0     0   502   511  0.000000000E+00  0.000000000E+00  9.533382546E+02  9.533382546E+02  0.000000000E+00  0.00000E+00  9.000E+00
      21    -1     0     0   501   502  0.000000000E+00  0.000000000E+00 -7.709778891E+02  7.709778891E+02  0.000000000E+00  0.00000E+00  9.000E+00
      25     1     1     2     0     0 -3.368889166E+01  5.708932603E+01 -7.152447714E+02  7.291050785E+02  1.250000000E+02  0.00000E+00  9.000E+00
      25     1     1     2     0     0  9.564460125E+01 -7.460364888E+01  1.122394523E+02  2.072107353E+02  1.250000000E+02  0.00000E+00  9.000E+00
      21     1     1     2   501   511 -6.195570959E+01  1.751432285E+01  7.853656845E+02  7.880003299E+02  1.078959322E-05  0.00000E+00  9.000E+00
#rwgt            1           1   3.2272783664199625E-002           3      150577           0
</event>
<event>
      5   9999  3.19816E-02  3.37026E+01 -1.00000E+00  1.49610E-01
      21    -1     0     0   502   501  0.000000000E+00  0.000000000E+00  1.436543237E+02  1.436543237E+02  0.000000000E+00  0.00000E+00  9.000E+00
      21    -1     0     0   512   502  0.000000000E+00  0.000000000E+00 -7.601251842E+02  7.601251842E+02  0.000000000E+00  0.00000E+00  9.000E+00
      25     1     1     2     0     0  5.806702694E+01  6.261689930E+01 -2.073310371E+02  2.567173828E+02  1.250000000E+02  0.00000E+00  9.000E+00
      25     1     1     2     0     0 -7.208704359E+01 -3.196879921E+01  7.223869463E+01  1.645052430E+02  1.250000000E+02  0.00000E+00  9.000E+00
      21     1     1     2   512   501  1.402001665E+01 -3.064810008E+01 -4.813785180E+02  4.825568821E+02  0.000000000E+00  0.00000E+00  9.000E+00
#rwgt            1           1   2.5087455080007637E-002           3      150655           0
</event>
<event>
      5   9999  3.19816E-02  7.52060E+01 -1.00000E+00  1.29662E-01
      21    -1     0     0   502   501  0.000000000E+00  0.000000000E+00  1.869128687E+02  1.869128687E+02  0.000000000E+00  0.00000E+00  9.000E+00
      21    -1     0     0   501   511  0.000000000E+00  0.000000000E+00 -2.739402471E+02  2.739402471E+02  0.000000000E+00  0.00000E+00  9.000E+00
      25     1     1     2     0     0  7.413731677E+01 -3.311235629E+01  7.283914008E+01  1.659015075E+02  1.250000000E+02  0.00000E+00  9.000E+00
      25     1     1     2     0     0 -1.013114793E+02 -3.701262058E+01 -7.435430289E+01  1.810732235E+02  1.250000000E+02  0.00000E+00  9.000E+00
      21     1     1     2   502   511  2.717416256E+01  7.012497687E+01 -8.551221560E+01  1.138783847E+02  1.348699152E-06  0.00000E+00  9.000E+00
#rwgt            1           1   2.5830073093045525E-002           3      150771           0
</event>
<event>
      5   9999  3.19816E-02  1.74086E+02 -1.00000E+00  1.13887E-01
      21    -1     0     0   502   512  0.000000000E+00  0.000000000E+00  1.385908204E+02  1.385908204E+02  0.000000000E+00  0.00000E+00  9.000E+00
      21    -1     0     0   501   502  0.000000000E+00  0.000000000E+00 -1.706974158E+03  1.706974158E+03  0.000000000E+00  0.00000E+00  9.000E+00
      25     1     1     2     0     0 -5.598775706E+01 -3.201346222E+02 -7.525248348E+02  8.291799758E+02  1.250000000E+02  0.00000E+00  9.000E+00
      25     1     1     2     0     0 -1.160454130E+02  2.934758235E+02 -7.619565681E+02  8.341447168E+02  1.250000000E+02  0.00000E+00  9.000E+00
      21     1     1     2   501   512  1.720331701E+02  2.665879872E+01 -5.390193441E+01  1.822402856E+02  2.780414531E-06  0.00000E+00  9.000E+00
#rwgt            1           1   2.4389562972567787E-002           3      150805           0
</event>
<event>
      5   9999  3.19816E-02  3.08439E+01 -1.00000E+00  1.52208E-01
      21    -1     0     0   502   501  0.000000000E+00  0.000000000E+00  4.477690077E+02  4.477690077E+02  0.000000000E+00  0.00000E+00  9.000E+00
      21    -1     0     0   511   502  0.000000000E+00  0.000000000E+00 -1.115824494E+02  1.115824494E+02  0.000000000E+00  0.00000E+00  9.000E+00
      25     1     1     2     0     0  1.173294108E+02 -8.133349296E+01  2.452635930E+02  3.100976585E+02  1.250000000E+02  0.00000E+00  9.000E+00
      25     1     1     2     0     0 -1.096589395E+02  1.112084385E+02  6.980429052E+01  2.118726948E+02  1.250000000E+02  0.00000E+00  9.000E+00
      21     1     1     2   511   501 -7.670471256E+00 -2.987494555E+01  2.111867476E+01  3.738110384E+01  2.384185791E-07  0.00000E+00  9.000E+00
#rwgt            1           1   2.9232786626464436E-002           3      150900           0
</event>
<event>
      5   9999  3.19816E-02  5.46968E+01 -1.00000E+00  1.36887E-01
      21    -1     0     0   502   512  0.000000000E+00  0.000000000E+00  9.901409465E+02  9.901409465E+02  0.000000000E+00  0.00000E+00  9.000E+00
      21    -1     0     0   501   502  0.000000000E+00  0.000000000E+00 -6.884101135E+02  6.884101135E+02  0.000000000E+00  0.00000E+00  9.000E+00
      25     1     1     2     0     0 -2.295650984E+02  2.264015310E+02 -7.836184496E+01  3.545749094E+02  1.250000000E+02  0.00000E+00  9.000E+00
      25     1     1     2     0     0  2.093838918E+02 -1.755639365E+02 -4.230885148E+02  5.189346792E+02  1.250000000E+02  0.00000E+00  9.000E+00
      21     1     1     2   501   512  2.018120657E+01 -5.083759454E+01  8.031811928E+02  8.050414713E+02  0.000000000E+00  0.00000E+00  9.000E+00
#rwgt            1           1   2.6707032233495749E-002           3      151022           0
</event>
<event>
      5   9999  3.19816E-02  4.15927E+02 -1.00000E+00  1.01178E-01
      21    -1     0     0   502   501  0.000000000E+00  0.000000000E+00  6.015001791E+02  6.015001791E+02  0.000000000E+00  0.00000E+00  9.000E+00
       1    -1     0     0   501     0  0.000000000E+00  0.000000000E+00 -2.326187166E+03  2.326187166E+03  0.000000000E+00  0.00000E+00  9.000E+00
      25     1     1     2     0     0  4.962234646E+02 -1.014192311E+03 -7.685007403E+02  1.371510904E+03  1.250000000E+02  0.00000E+00  9.000E+00
      25     1     1     2     0     0 -2.766269303E+02  6.609609171E+02 -3.166229769E+02  7.932634506E+02  1.250000000E+02  0.00000E+00  9.000E+00
       1     1     1     2   502     0 -2.195965343E+02  3.532313942E+02 -6.395632698E+02  7.629129909E+02  0.000000000E+00  0.00000E+00  9.000E+00
#rwgt            2          12   5.1467498203246979E-004           3      151162           0
</event>
<event>
      5   9999  3.19816E-02  4.87282E+01 -1.00000E+00  1.39717E-01
      21    -1     0     0   502   501  0.000000000E+00  0.000000000E+00  2.086606330E+02  2.086606330E+02  0.000000000E+00  0.00000E+00  9.000E+00
      21    -1     0     0   501   511  0.000000000E+00  0.000000000E+00 -5.512756760E+02  5.512756760E+02  0.000000000E+00  0.00000E+00  9.000E+00
      25     1     1     2     0     0  1.759470055E+01  3.133553182E+01  1.662175560E+02  2.110563075E+02  1.250000000E+02  0.00000E+00  9.000E+00
      25     1     1     2     0     0  4.037013058E-02 -7.676060324E+01 -4.451342263E+02  4.686807776E+02  1.250000000E+02  0.00000E+00  9.000E+00
      21     1     1     2   502   511 -1.763507068E+01  4.542507142E+01 -6.369837267E+01  8.019922389E+01  6.743495762E-07  0.00000E+00  9.000E+00
#rwgt            1           1   2.5902862342130826E-002           3      151181           0
</event>
<event>
      5   9999  3.19816E-02  1.49346E+02 -1.00000E+00  1.16469E-01
      21    -1     0     0   502   501  0.000000000E+00  0.000000000E+00  5.915049193E+02  5.915049193E+02  0.000000000E+00  0.00000E+00  9.000E+00
      21    -1     0     0   512   502  0.000000000E+00  0.000000000E+00 -2.937610567E+03  2.937610567E+03  0.000000000E+00  0.00000E+00  9.000E+00
      25     1     1     2     0     0 -6.840889869E+02  7.414408483E+02 -2.063949245E+03  2.300700711E+03  1.250000000E+02  0.00000E+00  9.000E+00
      25     1     1     2     0     0  5.586286450E+02 -8.224590472E+02 -1.220526332E+02  1.009468520E+03  1.250000000E+02  0.00000E+00  9.000E+00
      21     1     1     2   512   501  1.254603419E+02  8.101819887E+01 -1.601037697E+02  2.189462560E+02  1.907348633E-06  0.00000E+00  9.000E+00
#rwgt            1           1   5.2968739686788009E-002           3      151278           0
</event>
<event>
      5   9999  3.19816E-02  2.10575E+01 -1.00000E+00  1.64544E-01
      21    -1     0     0   502   511  0.000000000E+00  0.000000000E+00  3.498436447E+02  3.498436447E+02  0.000000000E+00  0.00000E+00  9.000E+00
      21    -1     0     0   501   502  0.000000000E+00  0.000000000E+00 -8.976983695E+02  8.976983695E+02  0.000000000E+00  0.00000E+00  9.000E+00
      25     1     1     2     0     0 -4.370734519E+02  2.776589930E+02 -1.730584369E+02  5.600910117E+02  1.250000000E+02  0.00000E+00  9.000E+00
      25     1     1     2     0     0  4.568991828E+02 -2.705625271E+02 -3.811239532E+02  6.654633063E+02  1.250000000E+02  0.00000E+00  9.000E+00
      21     1     1     2   501   511 -1.982573095E+01 -7.096465975E+00  6.327665220E+00  2.198769620E+01  4.298152060E-07  0.00000E+00  9.000E+00
#rwgt            1           1   3.0244204812226810E-002           3      151361           0
</event>
<event>
      5   9999  3.19816E-02  3.71738E+01 -1.00000E+00  1.46842E-01
      21    -1     0     0   512   501  0.000000000E+00  0.000000000E+00  3.628597696E+03  3.628597696E+03  0.000000000E+00  0.00000E+00  9.000E+00
      21    -1     0     0   501   502  0.000000000E+00  0.000000000E+00 -2.420107902E+02  2.420107902E+02  0.000000000E+00  0.00000E+00  9.000E+00
      25     1     1     2     0     0 -3.286355674E+02  2.820533514E+02  7.971330503E+00  4.508258769E+02  1.250000000E+02  0.00000E+00  9.000E+00
      25     1     1     2     0     0  3.102934000E+02 -2.497198690E+02  2.124992128E+03  2.165608125E+03  1.250000000E+02  0.00000E+00  9.000E+00
      21     1     1     2   512   502  1.834216742E+01 -3.233348238E+01  1.253623448E+03  1.254174485E+03  2.642899792E-05  0.00000E+00  9.000E+00
#rwgt            1           1   2.2155957896288027E-002           3      151496           0
</event>
<event>
      5   9999  3.19816E-02  3.57191E+01 -1.00000E+00  1.47956E-01
      21    -1     0     0   511   501  0.000000000E+00  0.000000000E+00  9.720785828E+02  9.720785828E+02  0.000000000E+00  0.00000E+00  9.000E+00
      21    -1     0     0   501   502  0.000000000E+00  0.000000000E+00 -1.752896709E+02  1.752896709E+02  0.000000000E+00  0.00000E+00  9.000E+00
      25     1     1     2     0     0 -1.328410616E+02 -3.426160962E+02  2.499076671E+02  4.616398803E+02  1.250000000E+02  0.00000E+00  9.000E+00
      25     1     1     2     0     0  1.409782588E+02  3.078362224E+02  4.192981303E+02  5.532394882E+02  1.250000000E+02  0.00000E+00  9.000E+00
      21     1     1     2   511   502 -8.137197222E+00  3.477987383E+01  1.275831145E+02  1.324888852E+02  0.000000000E+00  0.00000E+00  9.000E+00
#rwgt            1           1   2.8758666031790572E-002           3      151652           0
</event>
<event>
      5   9999  3.19816E-02  4.24471E+01 -1.00000E+00  1.43259E-01
      21    -1     0     0   502   501  0.000000000E+00  0.000000000E+00  1.880012751E+02  1.880012751E+02  0.000000000E+00  0.00000E+00  9.000E+00
      21    -1     0     0   512   502  0.000000000E+00  0.000000000E+00 -1.186978581E+03  1.186978581E+03  0.000000000E+00  0.00000E+00  9.000E+00
      25     1     1     2     0     0  4.353658573E+02  5.450403246E+01 -4.049417964E+02  6.100139160E+02  1.250000000E+02  0.00000E+00  9.000E+00
      25     1     1     2     0     0 -4.038510147E+02 -2.606859073E+01 -4.643338528E+02  6.284951395E+02  1.250000000E+02  0.00000E+00  9.000E+00
      21     1     1     2   512   501 -3.151484256E+01 -2.843544173E+01 -1.297016568E+02  1.364708006E+02  3.303624740E-06  0.00000E+00  9.000E+00
#rwgt            2          11   2.6854879604824989E-003           3      151869           0
</event>
<event>
      5   9999  3.19816E-02  1.12483E+01 -1.00000E+00  1.90031E-01
      21    -1     0     0   502   511  0.000000000E+00  0.000000000E+00  4.587544115E+02  4.587544115E+02  0.000000000E+00  0.00000E+00  9.000E+00
      21    -1     0     0   501   502  0.000000000E+00  0.000000000E+00 -1.187276911E+02  1.187276911E+02  0.000000000E+00  0.00000E+00  9.000E+00
      25     1     1     2     0     0  9.603218219E-02  1.507097021E+02  3.130489547E+02  3.692398564E+02  1.250000000E+02  0.00000E+00  9.000E+00
      25     1     1     2     0     0 -6.158400028E+00 -1.412349122E+02  1.143045146E+01  1.890525893E+02  1.250000000E+02  0.00000E+00  9.000E+00
      21     1     1     2   501   511  6.062367846E+00 -9.474789976E+00  1.554731429E+01  1.918965686E+01  1.685873940E-07  0.00000E+00  9.000E+00
#rwgt            1           1   2.7564222587046033E-002           3      151949           0
</event>
<event>
      5   9999  3.19816E-02  7.02136E+01 -1.00000E+00  1.31154E-01
      21    -1     0     0   512   501  0.000000000E+00  0.000000000E+00  3.842586850E+02  3.842586850E+02  0.000000000E+00  0.00000E+00  9.000E+00
      21    -1     0     0   501   502  0.000000000E+00  0.000000000E+00 -1.467727413E+03  1.467727413E+03  0.000000000E+00  0.00000E+00  9.000E+00
      25     1     1     2     0     0 -4.745774388E+02 -3.988043462E+02 -1.878578124E+02  6.596849321E+02  1.250000000E+02  0.00000E+00  9.000E+00
      25     1     1     2     0     0  5.072114413E+02  4.609732937E+02 -8.762566537E+02  1.119468868E+03  1.250000000E+02  0.00000E+00  9.000E+00
      21     1     1     2   512   502 -3.263400255E+01 -6.216894755E+01 -1.935426201E+01  7.283229792E+01  1.238859277E-06  0.00000E+00  9.000E+00
#rwgt            1           1   2.5155443287837188E-002           3      152121           0
</event>
<event>
      5   9999  3.19816E-02  8.89366E+01 -1.00000E+00  1.26162E-01
       2    -1     0     0   502     0  0.000000000E+00  0.000000000E+00  2.042940753E+03  2.042940753E+03  0.000000000E+00  0.00000E+00  9.000E+00
      21    -1     0     0   501   502  0.000000000E+00  0.000000000E+00 -6.238384233E+01  6.238384233E+01  0.000000000E+00  0.00000E+00  9.000E+00
      25     1     1     2     0     0  3.351951924E+01  1.081958809E+02  9.630339026E+01  1.942401858E+02  1.250000000E+02  0.00000E+00  9.000E+00
      25     1     1     2     0     0 -1.160890403E+02 -1.412411600E+02  1.121155865E+03  1.142821598E+03  1.250000000E+02  0.00000E+00  9.000E+00
       2     1     1     2   501     0  8.256952102E+01  3.304527908E+01  7.630976557E+02  7.682628120E+02  1.078959322E-05  0.00000E+00  9.000E+00
#rwgt            1           1   3.1035732870380851E-002           3      152247           0
</event>
<event>
      5   9999  3.19816E-02  2.44415E+02 -1.00000E+00  1.08567E-01
      21    -1     0     0   502   501  0.000000000E+00  0.000000000E+00  1.473262859E+03  1.473262859E+03  0.000000000E+00  0.00000E+00  9.000E+00
      -1    -1     0     0     0   502  0.000000000E+00  0.000000000E+00 -7.206092764E+02  7.206092764E+02  0.000000000E+00  0.00000E+00  9.000E+00
      25     1     1     2     0     0 -9.669940970E+01  3.873122435E+02  5.909802014E+02  7.240470622E+02  1.250000000E+02  0.00000E+00  9.000E+00
      25     1     1     2     0     0  3.175518346E+02 -2.826092361E+02  7.284317738E+02  8.526106949E+02  1.250000000E+02  0.00000E+00  9.000E+00
      -1     1     1     2     0   501 -2.208524249E+02 -1.047030075E+02 -5.667583925E+02  6.172143784E+02  7.629394531E-06  0.00000E+00  9.000E+00
#rwgt            1           1   2.8560672658051584E-002           3      152300           0
</event>
<event>
      5   9999  3.19816E-02  8.00563E+01 -1.00000E+00  1.28335E-01
      21    -1     0     0   511   501  0.000000000E+00  0.000000000E+00  5.847959916E+02  5.847959916E+02  0.000000000E+00  0.00000E+00  9.000E+00
      21    -1     0     0   501   502  0.000000000E+00  0.000000000E+00 -2.297006268E+02  2.297006268E+02  0.000000000E+00  0.00000E+00  9.000E+00
      25     1     1     2     0     0  7.139981152E+01  1.680709728E+02  2.466564874E+02  3.313762330E+02  1.250000000E+02  0.00000E+00  9.000E+00
      25     1     1     2     0     0 -1.038635464E+02 -9.489230691E+01 -1.318896078E+02  2.298087353E+02  1.250000000E+02  0.00000E+00  9.000E+00
      21     1     1     2   511   502  3.246373491E+01 -7.317866593E+01  2.403284853E+02  2.533116501E+02  2.697398305E-06  0.00000E+00  9.000E+00
#rwgt            1           1   2.7244581001888150E-002           3      152355           0
</event>
<event>
      5   9999  3.19816E-02  1.22427E+01 -1.00000E+00  1.86119E-01
      21    -1     0     0   502   512  0.000000000E+00  0.000000000E+00  9.593321407E+01  9.593321407E+01  0.000000000E+00  0.00000E+00  9.000E+00
      21    -1     0     0   501   502  0.000000000E+00  0.000000000E+00 -5.858931831E+02  5.858931831E+02  0.000000000E+00  0.00000E+00  9.000E+00
      25     1     1     2     0     0  1.187514189E+02 -8.097745204E+01 -9.919186955E+01  2.147632981E+02  1.250000000E+02  0.00000E+00  9.000E+00
      25     1     1     2     0     0 -1.105117158E+02  7.192261921E+01 -4.075937375E+02  4.462548121E+02  1.250000000E+02  0.00000E+00  9.000E+00
      21     1     1     2   501   512 -8.239703119E+00  9.054832836E+00  1.682563808E+01  2.080828686E+01  0.000000000E+00  0.00000E+00  9.000E+00
#rwgt            1           1   2.7626710685218620E-002           3      152421           0
</event>
<event>
      5   9999  3.19816E-02  1.30688E+02 -1.00000E+00  1.18816E-01
      21    -1     0     0   511   501  0.000000000E+00  0.000000000E+00  1.396538550E+03  1.396538550E+03  0.000000000E+00  0.00000E+00  9.000E+00
      21    -1     0     0   501   502  0.000000000E+00  0.000000000E+00 -1.076381811E+02  1.076381811E+02  0.000000000E+00  0.00000E+00  9.000E+00
      25     1     1     2     0     0 -1.176654004E+02  1.466267943E+02  2.165309058E+02  3.128181524E+02  1.250000000E+02  0.00000E+00  9.000E+00
      25     1     1     2     0     0  5.724672504E+00 -2.140698100E+02  2.277248615E+02  3.366634343E+02  1.250000000E+02  0.00000E+00  9.000E+00
      21     1     1     2   511   502  1.119407279E+02  6.744301571E+01  8.446446012E+02  8.546951440E+02  1.078959322E-05  0.00000E+00  9.000E+00
#rwgt            1           1   3.2110592497219870E-002           3      152607           0
</event>
<event>
      5   9999  3.19816E-02  1.08005E+02 -1.00000E+00  1.22342E-01
      21    -1     0     0   502   501  0.000000000E+00  0.000000000E+00  1.140601114E+02  1.140601114E+02  0.000000000E+00  0.00000E+00  9.000E+00
      21    -1     0     0   512   502  0.000000000E+00  0.000000000E+00 -8.035878362E+02  8.035878362E+02  0.000000000E+00  0.00000E+00  9.000E+00
      25     1     1     2     0     0  1.784815162E+02 -1.561059515E+01 -2.602569798E+02  3.397911680E+02  1.250000000E+02  0.00000E+00  9.000E+00
      25     1     1     2     0     0 -7.379383168E+01 -1.095141655E+01 -1.113200677E+01  1.459944680E+02  1.250000000E+02  0.00000E+00  9.000E+00
      21     1     1     2   512   501 -1.046876845E+02  2.656201171E+01 -4.181387383E+02  4.318623116E+02  9.344061824E-06  0.00000E+00  9.000E+00
#rwgt            1           1   2.5833173480071803E-002           3      152669           0
</event>
<event>
      5   9999  3.19816E-02  4.05599E+01 -1.00000E+00  1.44467E-01
      21    -1     0     0   502   501  0.000000000E+00  0.000000000E+00  1.031484153E+03  1.031484153E+03  0.000000000E+00  0.00000E+00  9.000E+00
      21    -1     0     0   511   502  0.000000000E+00  0.000000000E+00 -4.150295810E+01  4.150295810E+01  0.000000000E+00  0.00000E+00  9.000E+00
      25     1     1     2     0     0  8.075647874E+01 -4.684590871E+01  2.062175336E+02  2.585861930E+02  1.250000000E+02  0.00000E+00  9.000E+00
      25     1     1     2     0     0 -9.238548935E+01  7.988829735E+00  7.334133527E+02  7.497459876E+02  1.250000000E+02  0.00000E+00  9.000E+00
      21     1     1     2   511   501  1.162901062E+01  3.885707897E+01  5.035030893E+01  6.465493085E+01  6.743495762E-07  0.00000E+00  9.000E+00
#rwgt            1           1   2.9656276119259049E-002           3      152723           0
</event>
<event>
      5   9999  3.19816E-02  3.27221E+01 -1.00000E+00  1.50465E-01
      21    -1     0     0   502   501  0.000000000E+00  0.000000000E+00  2.147136060E+02  2.147136060E+02  0.000000000E+00  0.00000E+00  9.000E+00
      21    -1     0     0   512   502  0.000000000E+00  0.000000000E+00 -2.842996058E+02  2.842996058E+02  0.000000000E+00  0.00000E+00  9.000E+00
      25     1     1     2     0     0 -1.249986978E+02  8.785390278E+01 -1.655171092E+02  2.576119099E+02  1.250000000E+02  0.00000E+00  9.000E+00
      25     1     1     2     0     0  9.292620204E+01 -8.136623765E+01  1.082983159E+02  2.064201271E+02  1.250000000E+02  0.00000E+00  9.000E+00
      21     1     1     2   512   501  3.207249581E+01 -6.487665132E+00 -1.236720660E+01  3.498117472E+01  5.331201500E-07  0.00000E+00  9.000E+00
#rwgt            1           1   2.6060065662913363E-002           3      152799           0
</event>
<event>
      5   9999  3.19816E-02  9.89396E+01 -1.00000E+00  1.24037E-01
      21    -1     0     0   511   501  0.000000000E+00  0.000000000E+00  5.077094607E+02  5.077094607E+02  0.000000000E+00  0.00000E+00  9.000E+00
      21    -1     0     0   501   502  0.000000000E+00  0.000000000E+00 -3.307672991E+02  3.307672991E+02  0.000000000E+00  0.00000E+00  9.000E+00
      25     1     1     2     0     0 -3.215040961E+02  8.642504480E+01  3.810306079E+01  3.576464951E+02  1.250000000E+02  0.00000E+00  9.000E+00
      25     1     1     2     0     0  3.388595545E+02  1.098045207E+01  1.122542098E+02  3.783812570E+02  1.250000000E+02  0.00000E+00  9.000E+00
      21     1     1     2   511   502 -1.735545838E+01 -9.740549687E+01  2.658489107E+01  1.024490078E+02  1.719260824E-06  0.00000E+00  9.000E+00
#rwgt            1           1   2.4019228946464161E-002           3      152913           0
</event>
<event>
      5   9999  3.19816E-02  8.93867E+01 -1.00000E+00  1.26060E-01
       1    -1     0     0   502     0  0.000000000E+00  0.000000000E+00  2.296555590E+03  2.296555590E+03  0.000000000E+00  0.00000E+00  9.000E+00
      21    -1     0     0   501   502  0.000000000E+00  0.000000000E+00 -2.492227075E+02  2.492227075E+02  0.000000000E+00  0.00000E+00  9.000E+00
      25     1     1     2     0     0 -5.939984779E+02  2.790489795E+02  6.093436696E+02  9.042274229E+02  1.250000000E+02  0.00000E+00  9.000E+00
      25     1     1     2     0     0  5.097071306E+02 -3.087969902E+02  8.431906509E+02  1.040073273E+03  1.250000000E+02  0.00000E+00  9.000E+00
       1     1     1     2   501     0  8.429134727E+01  2.974801075E+01  5.947985616E+02  6.014776008E+02  0.000000000E+00  0.00000E+00  9.000E+00
#rwgt            1           1   3.0305664827659305E-002           3      153002           0
</event>
<event>
      5   9999  3.19816E-02  2.34143E+02 -1.00000E+00  1.09212E-01
      21    -1     0     0   502   501  0.000000000E+00  0.000000000E+00  2.917751235E+02  2.917751235E+02  0.000000000E+00  0.00000E+00  9.000E+00
       2    -1     0     0   501     0  0.000000000E+00  0.000000000E+00 -3.221960087E+03  3.221960087E+03  0.000000000E+00  0.00000E+00  9.000E+00
      25     1     1     2     0     0  2.326734666E+02 -6.230435308E+02 -6.976993546E+02  9.719720021E+02  1.250000000E+02  0.00000E+00  9.000E+00
      25     1     1     2     0     0 -4.457918138E+01  7.624837862E+02 -2.163353325E+03  2.297627349E+03  1.250000000E+02  0.00000E+00  9.000E+00
       2     1     1     2   502     0 -1.880942852E+02 -1.394402554E+02 -6.913228353E+01  2.441358589E+02  9.536743164E-07  0.00000E+00  9.000E+00
#rwgt            2          13   3.0215810499745113E-003           3      153210           0
</event>
<event>
      5   9999  3.19816E-02  7.29695E+01 -1.00000E+00  1.30313E-01
      21    -1     0     0   502   501  0.000000000E+00  0.000000000E+00  4.317349434E+02  4.317349434E+02  0.000000000E+00  0.00000E+00  9.000E+00
      21    -1     0     0   501   511  0.000000000E+00  0.000000000E+00 -1.795064562E+02  1.795064562E+02  0.000000000E+00  0.00000E+00  9.000E+00
      25     1     1     2     0     0 -6.502330535E+01 -1.441455304E+02 -4.368130939E+01  2.062498993E+02  1.250000000E+02  0.00000E+00  9.000E+00
      25     1     1     2     0     0 -7.066069624E+00  1.328465673E+02  2.731906579E+02  3.285670028E+02  1.250000000E+02  0.00000E+00  9.000E+00
      21     1     1     2   502   511  7.208937497E+01  1.129896309E+01  2.271913869E+01  7.642449747E+01  1.168007728E-06  0.00000E+00  9.000E+00
#rwgt            1           1   2.4424961665402981E-002           3      153244           0
</event>
<event>
      5   9999  3.19816E-02  9.04426E+01 -1.00000E+00  1.25822E-01
      21    -1     0     0   502   501  0.000000000E+00  0.000000000E+00  2.094760363E+03  2.094760363E+03  0.000000000E+00  0.00000E+00  9.000E+00
      21    -1     0     0   512   502  0.000000000E+00  0.000000000E+00 -2.878707537E+02  2.878707537E+02  0.000000000E+00  0.00000E+00  9.000E+00
      25     1     1     2     0     0 -1.080635234E+02  1.443465013E+02  1.980658381E+03  1.992773510E+03  1.250000000E+02  0.00000E+00  9.000E+00
      25     1     1     2     0     0  1.637819128E+02 -7.310515571E+01 -1.993551373E+02  2.958654247E+02  1.250000000E+02  0.00000E+00  9.000E+00
      21     1     1     2   512   501 -5.571838935E+01 -7.124134558E+01  2.558636503E+01  9.399218216E+01  1.877309769E-06  0.00000E+00  9.000E+00
#rwgt            1           1   2.7584087095788169E-002           3      153296           0
</event>
<event>
      5   9999  3.19816E-02  7.81384E+02 -1.00000E+00  9.36390E-02
      21    -1     0     0   502   501  0.000000000E+00  0.000000000E+00  4.760971613E+02  4.760971613E+02  0.000000000E+00  0.00000E+00  9.000E+00
      21    -1     0     0   511   502  0.000000000E+00  0.000000000E+00 -1.660638284E+03  1.660638284E+03  0.000000000E+00  0.00000E+00  9.000E+00
      25     1     1     2     0     0 -8.341684831E+01 -2.283404185E+01 -1.733450149E+02  2.305499040E+02  1.250000000E+02  0.00000E+00  9.000E+00
      25     1     1     2     0     0  6.070500806E+02 -5.571388930E+02 -4.868207331E+02  9.651595581E+02  1.250000000E+02  0.00000E+00  9.000E+00
      21     1     1     2   511   501 -5.236332323E+02  5.799729348E+02 -5.243753743E+02  9.410259828E+02  1.321449896E-05  0.00000E+00  9.000E+00
#rwgt            1           1   2.8987324145358616E-002           3      153409           0
</event>
<event>
      5   9999  3.19816E-02  1.72224E+02 -1.00000E+00  1.14064E-01
       1    -1     0     0   502     0  0.000000000E+00  0.000000000E+00  2.062579038E+02  2.062579038E+02  0.000000000E+00  0.00000E+00  9.000E+00
      21    -1     0     0   501   502  0.000000000E+00  0.000000000E+00 -1.343563531E+03  1.343563531E+03  0.000000000E+00  0.00000E+00  9.000E+00
      25     1     1     2     0     0 -1.614582021E+02 -2.300015504E+02 -6.822893127E+02  7.484070887E+02  1.250000000E+02  0.00000E+00  9.000E+00
      25     1     1     2     0     0  2.765808537E+02  1.019078587E+02 -5.254786931E+02  6.153332732E+02  1.250000000E+02  0.00000E+00  9.000E+00
       1     1     1     2   501     0 -1.151226515E+02  1.280936918E+02  7.046237873E+01  1.860810726E+02  5.800974398E-06  0.00000E+00  9.000E+00
#rwgt            2          17   2.5303292255210344E-004           3      153437           0
</event>
<event>
      5   9999  3.19816E-02  1.70067E+02 -1.00000E+00  1.14273E-01
       2    -1     0     0   502     0  0.000000000E+00  0.000000000E+00  1.662861577E+03  1.662861577E+03  0.000000000E+00  0.00000E+00  9.000E+00
      21    -1     0     0   501   502  0.000000000E+00  0.000000000E+00 -7.641635633E+01  7.641635633E+01  0.000000000E+00  0.00000E+00  9.000E+00
      25     1     1     2     0     0 -1.818008060E+02  1.413139387E+02  6.265347311E+02  6.791111335E+02  1.250000000E+02  0.00000E+00  9.000E+00
      25     1     1     2     0     0  4.199351133E+01 -2.381471941E+02  6.823804311E+02  7.346738010E+02  1.250000000E+02  0.00000E+00  9.000E+00
       2     1     1     2   501     0  1.398072946E+02  9.683325534E+01  2.775300582E+02  3.254929987E+02  3.814697266E-06  0.00000E+00  9.000E+00
#rwgt            1           1   3.1117653129329900E-002           3      153456           0
</event>
<event>
      5   9999  3.19816E-02  2.21780E+02 -1.00000E+00  1.10038E-01
      21    -1     0     0   511   501  0.000000000E+00  0.000000000E+00  1.448895847E+03  1.448895847E+03  0.000000000E+00  0.00000E+00  9.000E+00
      21    -1     0     0   501   502  0.000000000E+00  0.000000000E+00 -6.084732877E+02  6.084732877E+02  0.000000000E+00  0.00000E+00  9.000E+00
      25     1     1     2     0     0  6.243337654E+02  2.011097661E+02  6.958080061E+02  9.643710748E+02  1.250000000E+02  0.00000E+00  9.000E+00
      25     1     1     2     0     0 -7.853601030E+02 -4.860740444E+01 -4.950033956E+01  7.982659048E+02  1.250000000E+02  0.00000E+00  9.000E+00
      21     1     1     2   511   502  1.610263376E+02 -1.525023616E+02  1.941148927E+02  2.947321552E+02  2.697398305E-06  0.00000E+00  9.000E+00
#rwgt            1           1   3.2342218760759052E-002           3      153493           0
</event>
<event>
      5   9999  3.21169E-02  3.28923E+02 -1.00000E+00  1.04309E-01
      21    -1     0     0   512   501  0.000000000E+00  0.000000000E+00  7.069143444E+02  7.069143444E+02  0.000000000E+00  0.00000E+00  9.000E+00
      21    -1     0     0   501   502  0.000000000E+00  0.000000000E+00 -6.264599476E+02  6.264599476E+02  0.000000000E+00  0.00000E+00  9.000E+00
      25     1     1     2     0     0  3.648890250E+02  3.993345734E+02 -2.659388429E+02  6.155977341E+02  1.250000000E+02  0.00000E+00  9.000E+00
      25     1     1     2     0     0 -1.141812993E+02 -1.864118197E+02  1.717757874E+01  2.524020698E+02  1.250000000E+02  0.00000E+00  9.000E+00
      21     1     1     2   512   502 -2.507077257E+02 -2.129227537E+02  3.292156608E+02  4.653744881E+02  7.629394531E-06  0.00000E+00  9.000E+00
#rwgt            1           1   2.9205985560107239E-002           3      153597           0
</event>
<event>
      5   9999  3.19816E-02  4.21834E+01 -1.00000E+00  1.43423E-01
      21    -1     0     0   502   511  0.000000000E+00  0.000000000E+00  2.689949116E+02  2.689949116E+02  0.000000000E+00  0.00000E+00  9.000E+00
      21    -1     0     0   501   502  0.000000000E+00  0.000000000E+00 -4.237204964E+02  4.237204964E+02  0.000000000E+00  0.00000E+00  9.000E+00
      25     1     1     2     0     0 -1.004294093E+02 -3.504940747E+00 -7.734017383E+01  1.780585672E+02  1.250000000E+02  0.00000E+00  9.000E+00
      25     1     1     2     0     0  1.372075770E+02  2.416413853E+01 -2.638395069E+02  3.234905102E+02  1.250000000E+02  0.00000E+00  9.000E+00
      21     1     1     2   501   511 -3.677816767E+01 -2.065919779E+01  1.864540960E+02  1.911663307E+02  0.000000000E+00  0.00000E+00  9.000E+00
#rwgt            1           1   2.6752933850443736E-002           3      153650           0
</event>
<event>
      5   9999  3.19816E-02  6.53848E+01 -1.00000E+00  1.32739E-01
      21    -1     0     0   502   501  0.000000000E+00  0.000000000E+00  1.672413221E+02  1.672413221E+02  0.000000000E+00  0.00000E+00  9.000E+00
      21    -1     0     0   501   512  0.000000000E+00  0.000000000E+00 -4.067136828E+02  4.067136828E+02  0.000000000E+00  0.00000E+00  9.000E+00
      25     1     1     2     0     0 -8.590394568E+01 -1.983365438E+00 -9.475256309E+01  1.788476162E+02  1.250000000E+02  0.00000E+00  9.000E+00
      25     1     1     2     0     0  1.329512929E+02  4.738954753E+01  4.551067545E+01  1.939536983E+02  1.250000000E+02  0.00000E+00  9.000E+00
      21     1     1     2   502   512 -4.704734722E+01 -4.540618210E+01 -1.902304730E+02  2.011536903E+02  0.000000000E+00  0.00000E+00  9.000E+00
#rwgt            1           1   2.5679120797519262E-002           3      153724           0
</event>
<event>
      5   9999  3.19816E-02  4.90991E+01 -1.00000E+00  1.39528E-01
      21    -1     0     0   502   501  0.000000000E+00  0.000000000E+00  9.031137579E+02  9.031137579E+02  0.000000000E+00  0.00000E+00  9.000E+00
      21    -1     0     0   501   511  0.000000000E+00  0.000000000E+00 -6.081011756E+02  6.081011756E+02  0.000000000E+00  0.00000E+00  9.000E+00
      25     1     1     2     0     0  5.047263058E+02 -2.396808858E+02  6.130163809E+02  8.388144336E+02  1.250000000E+02  0.00000E+00  9.000E+00
      25     1     1     2     0     0 -4.925465269E+02  1.921164141E+02 -2.884471964E+02  6.150915239E+02  1.250000000E+02  0.00000E+00  9.000E+00
      21     1     1     2   502   511 -1.217977893E+01  4.756447174E+01 -2.955660223E+01  5.730897593E+01  1.215700987E-06  0.00000E+00  9.000E+00
#rwgt            1           1   3.3461107225930910E-002           3      153770           0
</event>
<event>
      5   9999  3.19816E-02  3.89523E+01 -1.00000E+00  1.45559E-01
      21    -1     0     0   502   512  0.000000000E+00  0.000000000E+00  9.331246447E+02  9.331246447E+02  0.000000000E+00  0.00000E+00  9.000E+00
      21    -1     0     0   501   502  0.000000000E+00  0.000000000E+00 -2.089703433E+03  2.089703433E+03  0.000000000E+00  0.00000E+00  9.000E+00
      25     1     1     2     0     0  1.343637194E+01  7.947279275E+02 -5.773087001E+02  9.902945774E+02  1.250000000E+02  0.00000E+00  9.000E+00
      25     1     1     2     0     0 -4.511451439E+01 -8.173945096E+02 -1.173913033E+03  1.436616132E+03  1.250000000E+02  0.00000E+00  9.000E+00
      21     1     1     2   501   512  3.167814245E+01  2.266658212E+01  5.946429442E+02  5.959173682E+02  7.629394531E-06  0.00000E+00  9.000E+00
#rwgt            1           1   2.6898780033764141E-002           3      153906           0
</event>
<event>
      5   9999  3.19816E-02  7.55106E+01 -1.00000E+00  1.29575E-01
      21    -1     0     0   502   501  0.000000000E+00  0.000000000E+00  6.097490483E+02  6.097490483E+02  0.000000000E+00  0.00000E+00  9.000E+00
      21    -1     0     0   511   502  0.000000000E+00  0.000000000E+00 -1.845204032E+02  1.845204032E+02  0.000000000E+00  0.00000E+00  9.000E+00
      25     1     1     2     0     0 -2.041532918E+02 -3.756995630E+01  3.272086360E+02  4.071615891E+02  1.250000000E+02  0.00000E+00  9.000E+00
      25     1     1     2     0     0  2.416033140E+02  1.031393928E+02  1.092677567E+02  3.107641201E+02  1.250000000E+02  0.00000E+00  9.000E+00
      21     1     1     2   511   501 -3.745002224E+01 -6.556943652E+01 -1.124774751E+01  7.634374235E+01  1.192092896E-06  0.00000E+00  9.000E+00
#rwgt            1           1   2.8366383820868646E-002           3      154047           0
</event>
<event>
      5   9999  3.19816E-02  8.30550E+01 -1.00000E+00  1.27567E-01
      21    -1     0     0   502   501  0.000000000E+00  0.000000000E+00  1.763866613E+02  1.763866613E+02  0.000000000E+00  0.00000E+00  9.000E+00
       2    -1     0     0   501     0  0.000000000E+00  0.000000000E+00 -2.192176401E+03  2.192176401E+03  0.000000000E+00  0.00000E+00  9.000E+00
      25     1     1     2     0     0  3.055477336E+01  8.623933537E+01  1.185501587E+02  1.950639825E+02  1.250000000E+02  0.00000E+00  9.000E+00
      25     1     1     2     0     0  5.292860041E+00 -1.131882535E+01 -1.923764624E+02  2.297603827E+02  1.250000000E+02  0.00000E+00  9.000E+00
       2     1     1     2   502     0 -3.584763340E+01 -7.492051002E+01 -1.941963436E+03  1.943738697E+03  2.157918644E-05  0.00000E+00  9.000E+00
#rwgt            1           1   2.6995617538630542E-002           3      154179           0
</event>
<event>
      5   9999  3.19816E-02  3.12829E+01 -1.00000E+00  1.51787E-01
      21    -1     0     0   502   501  0.000000000E+00  0.000000000E+00  6.279793111E+01  6.279793111E+01  0.000000000E+00  0.00000E+00  9.000E+00
       4    -1     0     0   501     0  0.000000000E+00  0.000000000E+00 -1.525320956E+03  1.525320956E+03  0.000000000E+00  0.00000E+00  9.000E+00
      25     1     1     2     0     0  2.257508304E+02  6.213320952E+01 -4.468360336E+02  5.197224395E+02  1.250000000E+02  0.00000E+00  9.000E+00
      25     1     1     2     0     0 -2.329485781E+02 -9.257678581E+01 -7.451783945E+02  7.960850086E+02  1.250000000E+02  0.00000E+00  9.000E+00
       4     1     1     2   502     0  7.197747723E+00  3.044357628E+01 -2.705085967E+02  2.723114389E+02  3.814697266E-06  0.00000E+00  9.000E+00
#rwgt            1           1   2.8990751472667733E-002           3      154277           0
</event>
<event>
      5   9999  3.19816E-02  8.79112E+01 -1.00000E+00  1.26398E-01
      21    -1     0     0   502   501  0.000000000E+00  0.000000000E+00  3.102625240E+02  3.102625240E+02  0.000000000E+00  0.00000E+00  9.000E+00
       2    -1     0     0   501     0  0.000000000E+00  0.000000000E+00 -2.106021446E+03  2.106021446E+03  0.000000000E+00  0.00000E+00  9.000E+00
      25     1     1     2     0     0 -2.051573441E+01  9.781792683E+01 -1.763059952E+02  2.381135151E+02  1.250000000E+02  0.00000E+00  9.000E+00
      25     1     1     2     0     0  7.190827411E+01 -1.691424511E+02  2.339385420E+02  3.226952279E+02  1.250000000E+02  0.00000E+00  9.000E+00
       2     1     1     2   502     0 -5.139253970E+01  7.132452429E+01 -1.853391469E+03  1.855475227E+03  0.000000000E+00  0.00000E+00  9.000E+00
#rwgt            2          13   6.7887536976425217E-003           3      154546           0
</event>
<event>
      5   9999  3.19816E-02  5.94389E+01 -1.00000E+00  1.34922E-01
      21    -1     0     0   511   501  0.000000000E+00  0.000000000E+00  9.367500009E+02  9.367500009E+02  0.000000000E+00  0.00000E+00  9.000E+00
      21    -1     0     0   501   502  0.000000000E+00  0.000000000E+00 -3.045328570E+02  3.045328570E+02  0.000000000E+00  0.00000E+00  9.000E+00
      25     1     1     2     0     0 -1.382805857E+02 -4.206217795E+02  3.138263258E+02  5.569166585E+02  1.250000000E+02  0.00000E+00  9.000E+00
      25     1     1     2     0     0  8.126192232E+01  4.374101488E+02  1.202618031E+02  4.775133921E+02  1.250000000E+02  0.00000E+00  9.000E+00
      21     1     1     2   511   502  5.701866341E+01 -1.678836934E+01  1.981290149E+02  2.068528073E+02  2.697398305E-06  0.00000E+00  9.000E+00
#rwgt            1           1   3.0840092356088488E-002           3      154565           0
</event>
<event>
      5   9999  3.19816E-02  3.75523E+01 -1.00000E+00  1.46562E-01
      21    -1     0     0   502   501  0.000000000E+00  0.000000000E+00  2.655589824E+02  2.655589824E+02  0.000000000E+00  0.00000E+00  9.000E+00
      21    -1     0     0   512   502  0.000000000E+00  0.000000000E+00 -1.681740772E+03  1.681740772E+03  0.000000000E+00  0.00000E+00  9.000E+00
      25     1     1     2     0     0  3.199588299E+02 -1.489466325E+02  7.258029618E+01  3.813812418E+02  1.250000000E+02  0.00000E+00  9.000E+00
      25     1     1     2     0     0 -3.050468599E+02  1.834112232E+02 -8.987850148E+02  9.747475398E+02  1.250000000E+02  0.00000E+00  9.000E+00
      21     1     1     2   512   501 -1.491196999E+01 -3.446459069E+01 -5.899770707E+02  5.911709725E+02  7.629394531E-06  0.00000E+00  9.000E+00
#rwgt            1           1   3.0922429364148778E-002           3      154646           0
</event>
<event>
      5   9999  3.19816E-02  9.70329E+02 -1.00000E+00  9.13063E-02
      21    -1     0     0   502   511  0.000000000E+00  0.000000000E+00  1.614732094E+03  1.614732094E+03  0.000000000E+00  0.00000E+00  9.000E+00
      21    -1     0     0   501   502  0.000000000E+00  0.000000000E+00 -8.952420253E+02  8.952420253E+02  0.000000000E+00  0.00000E+00  9.000E+00
      25     1     1     2     0     0 -8.002648110E+01  7.652524400E+01 -3.378430652E+02  3.768597715E+02  1.250000000E+02  0.00000E+00  9.000E+00
      25     1     1     2     0     0 -2.655862664E+02  8.301661510E+02  4.565709811E+02  9.918638838E+02  1.250000000E+02  0.00000E+00  9.000E+00
      21     1     1     2   501   511  3.456127475E+02 -9.066913950E+02  6.007621524E+02  1.141250464E+03  1.525878906E-05  0.00000E+00  9.000E+00
#rwgt            2          11   8.8087419710720645E-004           3      154843           0
</event>
<event>
      5   9999  3.19816E-02  4.65647E+01 -1.00000E+00  1.40863E-01
      21    -1     0     0   502   512  0.000000000E+00  0.000000000E+00  1.663821665E+02  1.663821665E+02  0.000000000E+00  0.00000E+00  9.000E+00
      21    -1     0     0   501   502  0.000000000E+00  0.000000000E+00 -4.571216023E+02  4.571216023E+02  0.000000000E+00  0.00000E+00  9.000E+00
      25     1     1     2     0     0 -1.057589843E+01  1.403562534E+02 -2.023425168E+02  2.763679098E+02  1.250000000E+02  0.00000E+00  9.000E+00
      25     1     1     2     0     0 -2.383687022E+01 -1.717255663E+02 -1.563090502E+02  2.647930998E+02  1.250000000E+02  0.00000E+00  9.000E+00
      21     1     1     2   501   512  3.441276865E+01  3.136931293E+01  6.791213108E+01  8.234275917E+01  1.348699152E-06  0.00000E+00  9.000E+00
#rwgt            1           1   2.9290418720233705E-002           3      154878           0
</event>
<event>
      5   9999  3.19816E-02  2.28993E+02 -1.00000E+00  1.09549E-01
      21    -1     0     0   511   501  0.000000000E+00  0.000000000E+00  2.989993344E+02  2.989993344E+02  0.000000000E+00  0.00000E+00  9.000E+00
      21    -1     0     0   501   502  0.000000000E+00  0.000000000E+00 -5.730437374E+02  5.730437374E+02  0.000000000E+00  0.00000E+00  9.000E+00
      25     1     1     2     0     0  1.586383763E+02  3.398007492E+01 -3.295011210E+01  2.074403283E+02  1.250000000E+02  0.00000E+00  9.000E+00
      25     1     1     2     0     0  6.843681824E+01 -6.355706605E+01 -3.701863575E+02  4.017288116E+02  1.250000000E+02  0.00000E+00  9.000E+00
      21     1     1     2   511   502 -2.270751946E+02  2.957699112E+01  1.290920667E+02  2.628739319E+02  2.697398305E-06  0.00000E+00  9.000E+00
#rwgt            2          11   4.5786015579181620E-003           3      154986           0
</event>
<event>
      5   9999  3.19816E-02  8.15730E+01 -1.00000E+00  1.27942E-01
      21    -1     0     0   502   501  0.000000000E+00  0.000000000E+00  1.521659402E+02  1.521659402E+02  0.000000000E+00  0.00000E+00  9.000E+00
      21    -1     0     0   501   512  0.000000000E+00  0.000000000E+00 -8.510517863E+02  8.510517863E+02  0.000000000E+00  0.00000E+00  9.000E+00
      25     1     1     2     0     0 -1.676388880E+02 -6.677579302E+01 -3.303106434E+01  2.219861584E+02  1.250000000E+02  0.00000E+00  9.000E+00
      25     1     1     2     0     0  2.466008775E+02  4.630240804E+01 -3.178923060E+02  4.238353737E+02  1.250000000E+02  0.00000E+00  9.000E+00
      21     1     1     2   502   512 -7.896198947E+01  2.047338498E+01 -3.479624757E+02  3.573961944E+02  8.529922400E-06  0.00000E+00  9.000E+00
#rwgt            2          11   1.7378059432657323E-003           3      155051           0
</event>
<event>
      5   9999  3.19816E-02  9.17102E+01 -1.00000E+00  1.25542E-01
      21    -1     0     0   502   511  0.000000000E+00  0.000000000E+00  1.113709821E+02  1.113709821E+02  0.000000000E+00  0.00000E+00  9.000E+00
      21    -1     0     0   501   502  0.000000000E+00  0.000000000E+00 -1.748944709E+03  1.748944709E+03  0.000000000E+00  0.00000E+00  9.000E+00
      25     1     1     2     0     0  5.567234498E+01  1.535148886E+02 -3.351240671E+01  2.083610146E+02  1.250000000E+02  0.00000E+00  9.000E+00
      25     1     1     2     0     0  2.593527597E+01 -1.116704146E+02 -1.513817226E+03  1.523289373E+03  1.250000000E+02  0.00000E+00  9.000E+00
      21     1     1     2   501   511 -8.160762095E+01 -4.184447396E+01 -9.024409430E+01  1.286653036E+02  3.015782986E-06  0.00000E+00  9.000E+00
#rwgt            2          11   5.1650452640216154E-003           3      155371           0
</event>
<event>
      5   9999  3.19816E-02  7.51090E+01 -1.00000E+00  1.29690E-01
      21    -1     0     0   502   501  0.000000000E+00  0.000000000E+00  1.238030267E+02  1.238030267E+02  0.000000000E+00  0.00000E+00  9.000E+00
       2    -1     0     0   501     0  0.000000000E+00  0.000000000E+00 -1.210601319E+03  1.210601319E+03  0.000000000E+00  0.00000E+00  9.000E+00
      25     1     1     2     0     0 -8.904542931E+01 -2.192987083E+02 -3.066935433E+02  4.070711749E+02  1.250000000E+02  0.00000E+00  9.000E+00
      25     1     1     2     0     0  1.089598079E+02  1.468778633E+02 -9.991478411E+01  2.430088693E+02  1.250000000E+02  0.00000E+00  9.000E+00
       2     1     1     2   502     0 -1.991437856E+01  7.242084490E+01 -6.801899651E+02  6.843243017E+02  0.000000000E+00  0.00000E+00  9.000E+00
#rwgt            1           1   2.8914365403638280E-002           3      155406           0
</event>
<event>
      5   9999  3.19816E-02  6.41341E+01 -1.00000E+00  1.33175E-01
      21    -1     0     0   511   501  0.000000000E+00  0.000000000E+00  1.978088803E+03  1.978088803E+03  0.000000000E+00  0.00000E+00  9.000E+00
      21    -1     0     0   501   502  0.000000000E+00  0.000000000E+00 -2.534787061E+02  2.534787061E+02  0.000000000E+00  0.00000E+00  9.000E+00
      25     1     1     2     0     0 -4.718885880E+02 -2.272041833E+02  1.936665506E+02  5.722170159E+02  1.250000000E+02  0.00000E+00  9.000E+00
      25     1     1     2     0     0  5.265193924E+02  1.936086269E+02  1.344873180E+03  1.462537466E+03  1.250000000E+02  0.00000E+00  9.000E+00
      21     1     1     2   511   502 -5.463080435E+01  3.359555644E+01  1.860703661E+02  1.968130263E+02  0.000000000E+00  0.00000E+00  9.000E+00
#rwgt            1           1   2.8390413398376248E-002           3      155497           0
</event>
<event>
      5   9999  3.19816E-02  1.86552E+02 -1.00000E+00  1.12760E-01
      21    -1     0     0   502   512  0.000000000E+00  0.000000000E+00  6.443236007E+02  6.443236007E+02  0.000000000E+00  0.00000E+00  9.000E+00
      21    -1     0     0   501   502  0.000000000E+00  0.000000000E+00 -2.081182490E+02  2.081182490E+02  0.000000000E+00  0.00000E+00  9.000E+00
      25     1     1     2     0     0  2.189395242E+00 -2.447274295E+02  6.679891390E+01  2.828133715E+02  1.250000000E+02  0.00000E+00  9.000E+00
      25     1     1     2     0     0  4.984981228E+01  6.558079353E+01 -6.642153031E+00  1.498497997E+02  1.250000000E+02  0.00000E+00  9.000E+00
      21     1     1     2   501   512 -5.203920752E+01  1.791466359E+02  3.760485909E+02  4.197786786E+02  5.394796609E-06  0.00000E+00  9.000E+00
#rwgt            1           1   2.7575149004996018E-002           3      155619           0
</event>
<event>
      5   9999  3.19816E-02  9.65022E+01 -1.00000E+00  1.24527E-01
      21    -1     0     0   502   501  0.000000000E+00  0.000000000E+00  4.840901031E+02  4.840901031E+02  0.000000000E+00  0.00000E+00  9.000E+00
      21    -1     0     0   511   502  0.000000000E+00  0.000000000E+00 -3.724832671E+02  3.724832671E+02  0.000000000E+00  0.00000E+00  9.000E+00
      25     1     1     2     0     0 -5.640610455E+01  2.748998234E+02  1.042016033E+02  3.243987294E+02  1.250000000E+02  0.00000E+00  9.000E+00
      25     1     1     2     0     0  1.508701406E+02 -2.551710144E+02  1.539964180E+02  3.566706361E+02  1.250000000E+02  0.00000E+00  9.000E+00
      21     1     1     2   511   501 -9.446403601E+01 -1.972880899E+01 -1.465911853E+02  1.755040046E+02  2.697398305E-06  0.00000E+00  9.000E+00
#rwgt            1           1   2.6154568797115859E-002           3      155689           0
</event>
<event>
      5   9999  3.19816E-02  1.44176E+01 -1.00000E+00  1.79019E-01
      21    -1     0     0   502   501  0.000000000E+00  0.000000000E+00  9.713121307E+02  9.713121307E+02  0.000000000E+00  0.00000E+00  9.000E+00
      21    -1     0     0   501   512  0.000000000E+00  0.000000000E+00 -9.754608043E+02  9.754608043E+02  0.000000000E+00  0.00000E+00  9.000E+00
      25     1     1     2     0     0 -1.150739963E+02 -9.020445886E+02 -3.020603256E+02  9.663290872E+02  1.250000000E+02  0.00000E+00  9.000E+00
      25     1     1     2     0     0  1.183661223E+02  8.880078616E+02  3.152429907E+02  9.578996003E+02  1.250000000E+02  0.00000E+00  9.000E+00
      21     1     1     2   502   512 -3.292125931E+00  1.403672702E+01 -1.733133862E+01  2.254424753E+01  0.000000000E+00  0.00000E+00  9.000E+00
#rwgt            2          11   4.6269681595780864E-003           3      155899           0
</event>
<event>
      5   9999  3.19816E-02  8.83299E+01 -1.00000E+00  1.26301E-01
      21    -1     0     0   502   511  0.000000000E+00  0.000000000E+00  1.114004499E+02  1.114004499E+02  0.000000000E+00  0.00000E+00  9.000E+00
      21    -1     0     0   501   502  0.000000000E+00  0.000000000E+00 -9.271114931E+02  9.271114931E+02  0.000000000E+00  0.00000E+00  9.000E+00
      25     1     1     2     0     0 -1.758233298E+02 -1.451293221E+02 -3.826041592E+02  4.625876199E+02  1.250000000E+02  0.00000E+00  9.000E+00
      25     1     1     2     0     0  1.233554795E+02  2.161877776E+02 -3.854661974E+02  4.755658933E+02  1.250000000E+02  0.00000E+00  9.000E+00
      21     1     1     2   501   511  5.246785026E+01 -7.105845552E+01 -4.764068664E+01  1.003584298E+02  2.236564522E-06  0.00000E+00  9.000E+00
#rwgt            1           1   2.7833949572484164E-002           3      155919           0
</event>
<event>
      5   9999  3.19816E-02  3.30130E+01 -1.00000E+00  1.50208E-01
      21    -1     0     0   502   512  0.000000000E+00  0.000000000E+00  6.294139730E+02  6.294139730E+02  0.000000000E+00  0.00000E+00  9.000E+00
      21    -1     0     0   501   502  0.000000000E+00  0.000000000E+00 -2.856019459E+02  2.856019459E+02  0.000000000E+00  0.00000E+00  9.000E+00
      25     1     1     2     0     0  1.089206598E+02 -5.340649799E+01 -1.500955457E+02  2.299339840E+02  1.250000000E+02  0.00000E+00  9.000E+00
      25     1     1     2     0     0 -8.516100219E+01  7.632669634E+01 -1.956784042E+01  1.705463610E+02  1.250000000E+02  0.00000E+00  9.000E+00
      21     1     1     2   501   512 -2.375965757E+01 -2.292019835E+01  5.134754132E+02  5.145355739E+02  0.000000000E+00  0.00000E+00  9.000E+00
#rwgt            1           1   2.5805165100627088E-002           3      155961           0
</event>
<event>
      5   9999  3.19816E-02  2.97204E+01 -1.00000E+00  1.53323E-01
       2    -1     0     0   502     0  0.000000000E+00  0.000000000E+00  7.324221513E+02  7.324221513E+02  0.000000000E+00  0.00000E+00  9.000E+00
      21    -1     0     0   501   502  0.000000000E+00  0.000000000E+00 -7.993511763E+02  7.993511763E+02  0.000000000E+00  0.00000E+00  9.000E+00
      25     1     1     2     0     0 -1.208461568E+02  1.886234980E+02 -7.156932162E+02  7.602791575E+02  1.250000000E+02  0.00000E+00  9.000E+00
      25     1     1     2     0     0  1.042352200E+02 -2.132685316E+02  2.349555702E+02  3.566196400E+02  1.250000000E+02  0.00000E+00  9.000E+00
       2     1     1     2   501     0  1.661093680E+01  2.464503352E+01  4.138086210E+02  4.148745301E+02  0.000000000E+00  0.00000E+00  9.000E+00
#rwgt            1           1   2.5005801770781343E-002           3      156090           0
</event>
<event>
      5   9999  3.19816E-02  4.15031E+01 -1.00000E+00  1.43854E-01
      21    -1     0     0   511   501  0.000000000E+00  0.000000000E+00  9.937252353E+02  9.937252353E+02  0.000000000E+00  0.00000E+00  9.000E+00
      21    -1     0     0   501   502  0.000000000E+00  0.000000000E+00 -5.413057655E+02  5.413057655E+02  0.000000000E+00  0.00000E+00  9.000E+00
      25     1     1     2     0     0  1.876301745E+02  4.777869223E+02  7.248760132E+02  8.969702670E+02  1.250000000E+02  0.00000E+00  9.000E+00
      25     1     1     2     0     0 -2.183837801E+02 -4.499172225E+02 -2.917040089E+02  5.923117518E+02  1.250000000E+02  0.00000E+00  9.000E+00
      21     1     1     2   511   502  3.075360559E+01 -2.786969974E+01  1.924746561E+01  4.574898199E+01  9.830249847E-07  0.00000E+00  9.000E+00
#rwgt            1           1   3.2007363909493582E-002           3      156279           0
</event>
<event>
      5   9999  3.19816E-02  5.61899E+01 -1.00000E+00  1.36244E-01
      21    -1     0     0   502   501  0.000000000E+00  0.000000000E+00  4.226265567E+02  4.226265567E+02  0.000000000E+00  0.00000E+00  9.000E+00
      21    -1     0     0   501   512  0.000000000E+00  0.000000000E+00 -8.929315559E+01  8.929315559E+01  0.000000000E+00  0.00000E+00  9.000E+00
      25     1     1     2     0     0 -5.204063532E+01  4.294575133E+01  1.856581168E+02  2.337659120E+02  1.250000000E+02  0.00000E+00  9.000E+00
      25     1     1     2     0     0  4.597281117E+01 -9.880707647E+01  1.475349193E+02  2.219637136E+02  1.250000000E+02  0.00000E+00  9.000E+00
      21     1     1     2   502   512  6.067824151E+00  5.586132515E+01  1.403649444E-01  5.619008666E+01  3.795913610E-07  0.00000E+00  9.000E+00
#rwgt            1           1   5.4438116238281764E-002           3      156423           0
</event>
<event>
      5   9999  3.19816E-02  6.30051E+01 -1.00000E+00  1.33579E-01
      21    -1     0     0   511   501  0.000000000E+00  0.000000000E+00  2.581349972E+02  2.581349972E+02  0.000000000E+00  0.00000E+00  9.000E+00
      21    -1     0     0   501   502  0.000000000E+00  0.000000000E+00 -5.561349474E+02  5.561349474E+02  0.000000000E+00  0.00000E+00  9.000E+00
      25     1     1     2     0     0 -5.227788360E+01 -1.330118258E+02 -1.933547378E+02  2.709911024E+02  1.250000000E+02  0.00000E+00  9.000E+00
      25     1     1     2     0     0  1.126754992E+02  1.150738131E+02 -2.860379150E+02  3.512555187E+02  1.250000000E+02  0.00000E+00  9.000E+00
      21     1     1     2   511   502 -6.039761564E+01  1.793801274E+01  1.813927026E+02  1.920233236E+02  3.814697266E-06  0.00000E+00  9.000E+00
#rwgt            1           1   2.9798062572125528E-002           3      156550           0
</event>
<event>
      5   9999  3.19816E-02  1.64380E+02 -1.00000E+00  1.14839E-01
      -1    -1     0     0     0   501  0.000000000E+00  0.000000000E+00  1.371428300E+03  1.371428300E+03  0.000000000E+00  0.00000E+00  9.000E+00
      21    -1     0     0   501   502  0.000000000E+00  0.000000000E+00 -5.483892674E+02  5.483892674E+02  0.000000000E+00  0.00000E+00  9.000E+00
      25     1     1     2     0     0 -9.333835987E+01  3.531424475E+02 -3.445503241E+01  3.876000347E+02  1.250000000E+02  0.00000E+00  9.000E+00
      25     1     1     2     0     0 -7.073462323E+01 -3.431048565E+02 -2.267258276E+02  4.356075417E+02  1.250000000E+02  0.00000E+00  9.000E+00
      -1     1     1     2     0   502  1.640729831E+02 -1.003759096E+01  1.084219893E+03  1.096609991E+03  1.525878906E-05  0.00000E+00  9.000E+00
#rwgt            1           1   3.2238375924478556E-002           3      156683           0
</event>
<event>
      5   9999  3.66549E-02  2.13095E+01 -1.00000E+00  1.64128E-01
      21    -1     0     0   502   501  0.000000000E+00  0.000000000E+00  2.181586258E+03  2.181586258E+03  0.000000000E+00  0.00000E+00  9.000E+00
      21    -1     0     0   511   502  0.000000000E+00  0.000000000E+00 -5.224550690E+01  5.224550690E+01  0.000000000E+00  0.00000E+00  9.000E+00
      25     1     1     2     0     0  2.508788329E+02 -1.624625865E+02  1.013804786E+03  1.064311715E+03  1.250000000E+02  0.00000E+00  9.000E+00
      25     1     1     2     0     0 -2.299245256E+02  1.663373127E+02  1.100720491E+03  1.143566346E+03  1.250000000E+02  0.00000E+00  9.000E+00
      21     1     1     2   511   501 -2.095430730E+01 -3.874726228E+00  1.481547388E+01  2.595370425E+01  6.307962682E-07  0.00000E+00  9.000E+00
#rwgt            1           1  0.10331911655278417                3      156746           0
</event>
<event>
      5   9999  3.19816E-02  7.77065E+00 -1.00000E+00  2.09336E-01
      21    -1     0     0   502   501  0.000000000E+00  0.000000000E+00  6.971506447E+01  6.971506447E+01  0.000000000E+00  0.00000E+00  9.000E+00
      21    -1     0     0   501   512  0.000000000E+00  0.000000000E+00 -9.083745305E+02  9.083745305E+02  0.000000000E+00  0.00000E+00  9.000E+00
      25     1     1     2     0     0 -1.683810348E+02  2.896091467E+01 -1.699402371E+02  2.714693199E+02  1.250000000E+02  0.00000E+00  9.000E+00
      25     1     1     2     0     0  1.740362422E+02 -3.429023581E+01 -6.112122161E+02  6.485906313E+02  1.250000000E+02  0.00000E+00  9.000E+00
      21     1     1     2   502   512 -5.655207433E+00  5.329321142E+00 -5.750701285E+01  5.802964382E+01  6.743495762E-07  0.00000E+00  9.000E+00
#rwgt            1           1   3.1104990721907838E-002           3      156915           0
</event>
<event>
      5   9999  3.19816E-02  3.06813E+01 -1.00000E+00  1.52366E-01
      21    -1     0     0   502   511  0.000000000E+00  0.000000000E+00  5.200656790E+01  5.200656790E+01  0.000000000E+00  0.00000E+00  9.000E+00
      21    -1     0     0   501   502  0.000000000E+00  0.000000000E+00 -1.129017699E+03  1.129017699E+03  0.000000000E+00  0.00000E+00  9.000E+00
      25     1     1     2     0     0 -6.679750047E+01 -9.519204288E+01 -8.458088554E+02  8.628679221E+02  1.250000000E+02  0.00000E+00  9.000E+00
      25     1     1     2     0     0  6.082573004E+01  1.252865938E+02 -1.889458977E+02  2.659361808E+02  1.250000000E+02  0.00000E+00  9.000E+00
      21     1     1     2   501   511  5.971770434E+00 -3.009455095E+01 -4.225637789E+01  5.222016384E+01  4.768371582E-07  0.00000E+00  9.000E+00
#rwgt            1           1   1.8513568354072873E-002           3      157115           0
</event>
<event>
      5   9999  3.19816E-02  5.54424E+00 -1.00000E+00  2.30936E-01
      21    -1     0     0   502   501  0.000000000E+00  0.000000000E+00  4.829428757E+02  4.829428757E+02  0.000000000E+00  0.00000E+00  9.000E+00
      21    -1     0     0   512   502  0.000000000E+00  0.000000000E+00 -1.879451264E+03  1.879451264E+03  0.000000000E+00  0.00000E+00  9.000E+00
      25     1     1     2     0     0 -4.897580485E+02 -6.095473575E+02 -3.020602299E+02  8.475118345E+02  1.250000000E+02  0.00000E+00  9.000E+00
      25     1     1     2     0     0  4.942428321E+02  6.128070094E+02 -5.455344559E+02  9.659406040E+02  1.250000000E+02  0.00000E+00  9.000E+00
      21     1     1     2   512   501 -4.484783667E+00 -3.259651943E+00 -5.489137024E+02  5.489417012E+02  7.629394531E-06  0.00000E+00  9.000E+00
#rwgt            1           1   3.0672554951663784E-002           3      157247           0
</event>
<event>
      5   9999  3.19816E-02  7.89153E+00 -1.00000E+00  2.08449E-01
      21    -1     0     0   502   501  0.000000000E+00  0.000000000E+00  1.266241274E+03  1.266241274E+03  0.000000000E+00  0.00000E+00  9.000E+00
      21    -1     0     0   501   511  0.000000000E+00  0.000000000E+00 -8.111082822E+02  8.111082822E+02  0.000000000E+00  0.00000E+00  9.000E+00
      25     1     1     2     0     0  2.816724776E+02 -3.670695764E+02  1.136091943E+03  1.233048807E+03  1.250000000E+02  0.00000E+00  9.000E+00
      25     1     1     2     0     0 -2.740942687E+02  3.648679726E+02 -6.055833822E+02  7.685131999E+02  1.250000000E+02  0.00000E+00  9.000E+00
      21     1     1     2   502   511 -7.578208884E+00  2.201603781E+00 -7.537556854E+01  7.578754939E+01  0.000000000E+00  0.00000E+00  9.000E+00
#rwgt            1           1   4.0446039282916429E-002           3      157633           0
</event>
<event>
      5   9999  3.19816E-02  5.86616E+01 -1.00000E+00  1.35229E-01
      21    -1     0     0   512   501  0.000000000E+00  0.000000000E+00  8.462765778E+02  8.462765778E+02  0.000000000E+00  0.00000E+00  9.000E+00
      21    -1     0     0   501   502  0.000000000E+00  0.000000000E+00 -5.540744495E+02  5.540744495E+02  0.000000000E+00  0.00000E+00  9.000E+00
      25     1     1     2     0     0  4.305259560E+02  4.368594108E+02  2.058484338E+02  6.589365078E+02  1.250000000E+02  0.00000E+00  9.000E+00
      25     1     1     2     0     0 -4.173836560E+02 -4.940298982E+02  2.896118172E+01  6.593469546E+02  1.250000000E+02  0.00000E+00  9.000E+00
      21     1     1     2   512   502 -1.314230007E+01  5.717048735E+01  5.739251277E+01  8.206756483E+01  1.348699152E-06  0.00000E+00  9.000E+00
#rwgt            1           1   2.9963089530678423E-002           3      158074           0
</event>
<event>
      5   9999  3.19816E-02  1.46931E+02 -1.00000E+00  1.16751E-01
      21    -1     0     0   502   511  0.000000000E+00  0.000000000E+00  1.687607831E+02  1.687607831E+02  0.000000000E+00  0.00000E+00  9.000E+00
      21    -1     0     0   501   502  0.000000000E+00  0.000000000E+00 -2.193526279E+03  2.193526279E+03  0.000000000E+00  0.00000E+00  9.000E+00
      25     1     1     2     0     0  4.049552165E+02 -4.073644809E+01 -6.817076147E+02  8.037402924E+02  1.250000000E+02  0.00000E+00  9.000E+00
      25     1     1     2     0     0 -5.516785940E+02  3.292356360E+01 -1.277761597E+03  1.397759969E+03  1.250000000E+02  0.00000E+00  9.000E+00
      21     1     1     2   501   511  1.467233775E+02  7.812884491E+00 -6.529628460E+01  1.607868012E+02  3.303624740E-06  0.00000E+00  9.000E+00
#rwgt            1           1   3.6000418877215050E-002           3      158148           0
</event>
<event>
      5   9999  3.19816E-02  1.57235E+02 -1.00000E+00  1.15589E-01
       2    -1     0     0   502     0  0.000000000E+00  0.000000000E+00  7.741060687E+02  7.741060687E+02  0.000000000E+00  0.00000E+00  9.000E+00
      21    -1     0     0   501   502  0.000000000E+00  0.000000000E+00 -3.585746260E+02  3.585746260E+02  0.000000000E+00  0.00000E+00  9.000E+00
      25     1     1     2     0     0 -1.794428046E+02 -4.455613014E+02  9.655628379E+01  5.056408897E+02  1.250000000E+02  0.00000E+00  9.000E+00
      25     1     1     2     0     0  5.625549375E+01  3.478495049E+02  1.710292809E+02  4.111447112E+02  1.250000000E+02  0.00000E+00  9.000E+00
       2     1     1     2   501     0  1.231873108E+02  9.771179651E+01  1.479458780E+02  2.158950938E+02  4.264961200E-06  0.00000E+00  9.000E+00
#rwgt            1           1   2.7550453594543414E-002           3      158201           0
</event>
<event>
      5   9999  3.19816E-02  2.22669E+02 -1.00000E+00  1.09976E-01
      21    -1     0     0   502   511  0.000000000E+00  0.000000000E+00  7.352209252E+02  7.352209252E+02  0.000000000E+00  0.00000E+00  9.000E+00
      21    -1     0     0   501   502  0.000000000E+00  0.000000000E+00 -1.018836963E+03  1.018836963E+03  0.000000000E+00  0.00000E+00  9.000E+00
      25     1     1     2     0     0  1.735113916E+02  6.032964933E+01 -1.300191227E+01  2.225756485E+02  1.250000000E+02  0.00000E+00  9.000E+00
      25     1     1     2     0     0 -3.959736796E+02 -6.993257872E+01 -8.292875789E+02  9.300691420E+02  1.250000000E+02  0.00000E+00  9.000E+00
      21     1     1     2   501   511  2.224622880E+02  9.602929392E+00  5.586734537E+02  6.014130974E+02  1.078959322E-05  0.00000E+00  9.000E+00
#rwgt            1           1   2.9471620693425807E-002           3      158259           0
</event>
<event>
      5   9999  3.19816E-02  2.14401E+02 -1.00000E+00  1.10560E-01
      21    -1     0     0   502   501  0.000000000E+00  0.000000000E+00  2.438994614E+02  2.438994614E+02  0.000000000E+00  0.00000E+00  9.000E+00
      21    -1     0     0   512   502  0.000000000E+00  0.000000000E+00 -1.013405020E+03  1.013405020E+03  0.000000000E+00  0.00000E+00  9.000E+00
      25     1     1     2     0     0 -3.738078324E+02 -2.425546637E+02 -4.055560506E+02  6.153582458E+02  1.250000000E+02  0.00000E+00  9.000E+00
      25     1     1     2     0     0  1.762729101E+02  1.592009380E+02 -6.869406442E+01  2.770576691E+02  1.250000000E+02  0.00000E+00  9.000E+00
      21     1     1     2   512   501  1.975349223E+02  8.335372568E+01 -2.952554439E+02  3.648885669E+02  0.000000000E+00  0.00000E+00  9.000E+00
#rwgt            2          11   3.3594390661161114E-003           3      158335           0
</event>
<event>
      5   9999  3.19816E-02  5.20066E+01 -1.00000E+00  1.38107E-01
      21    -1     0     0   502   501  0.000000000E+00  0.000000000E+00  7.254260248E+02  7.254260248E+02  0.000000000E+00  0.00000E+00  9.000E+00
      21    -1     0     0   501   511  0.000000000E+00  0.000000000E+00 -1.217823465E+02  1.217823465E+02  0.000000000E+00  0.00000E+00  9.000E+00
      25     1     1     2     0     0 -1.124369458E+02 -1.267452887E+02  4.944440717E+02  5.374070850E+02  1.250000000E+02  0.00000E+00  9.000E+00
      25     1     1     2     0     0  1.601025177E+02  1.059443759E+02  1.169596408E+02  2.572189427E+02  1.250000000E+02  0.00000E+00  9.000E+00
      21     1     1     2   502   511 -4.766557187E+01  2.080091281E+01 -7.760034217E+00  5.258234348E+01  7.907449699E-07  0.00000E+00  9.000E+00
#rwgt            1           1   2.6356876710264085E-002           3      158370           0
</event>
<event>
      5   9999  3.19816E-02  1.04656E+02 -1.00000E+00  1.22946E-01
       1    -1     0     0   502     0  0.000000000E+00  0.000000000E+00  1.804248266E+03  1.804248266E+03  0.000000000E+00  0.00000E+00  9.000E+00
      21    -1     0     0   501   502  0.000000000E+00  0.000000000E+00 -3.097438226E+02  3.097438226E+02  0.000000000E+00  0.00000E+00  9.000E+00
      25     1     1     2     0     0 -5.795665997E+02  3.382499362E+00  1.187369020E+03  1.327169573E+03  1.250000000E+02  0.00000E+00  9.000E+00
      25     1     1     2     0     0  5.583362235E+02  9.909728037E+01  1.529644856E+02  6.004854231E+02  1.250000000E+02  0.00000E+00  9.000E+00
       1     1     1     2   501     0  2.123037624E+01 -1.024797797E+02  1.541709379E+02  1.863370930E+02  0.000000000E+00  0.00000E+00  9.000E+00
#rwgt            1           1   2.3473195408262856E-002           3      158456           0
</event>
<event>
      5   9999  3.25691E-02  2.49426E+02 -1.00000E+00  1.08264E-01
      21    -1     0     0   502   501  0.000000000E+00  0.000000000E+00  3.378717269E+03  3.378717269E+03  0.000000000E+00  0.00000E+00  9.000E+00
      -2    -1     0     0     0   502  0.000000000E+00  0.000000000E+00 -1.053317644E+03  1.053317644E+03  0.000000000E+00  0.00000E+00  9.000E+00
      25     1     1     2     0     0  2.876651862E+02 -8.514115422E+02  7.693301938E+02  1.189599437E+03  1.250000000E+02  0.00000E+00  9.000E+00
      25     1     1     2     0     0 -4.301395966E+01  8.028424648E+02  2.309581806E+03  2.448713814E+03  1.250000000E+02  0.00000E+00  9.000E+00
      -2     1     1     2     0   501 -2.446512265E+02  4.856907744E+01 -7.535123744E+02  7.937216617E+02  1.525878906E-05  0.00000E+00  9.000E+00
#rwgt            1           1   9.8978524932840858E-002           3      158609           0
</event>
<event>
      5   9999  3.19816E-02  7.83587E+01 -1.00000E+00  1.28787E-01
      -3    -1     0     0     0   501  0.000000000E+00  0.000000000E+00  7.613631041E+01  7.613631041E+01  0.000000000E+00  0.00000E+00  9.000E+00
      21    -1     0     0   501   502  0.000000000E+00  0.000000000E+00 -2.489208572E+03  2.489208572E+03  0.000000000E+00  0.00000E+00  9.000E+00
      25     1     1     2     0     0  9.596251113E+01  1.924391278E+02 -2.080714527E+03  2.095528469E+03  1.250000000E+02  0.00000E+00  9.000E+00
      25     1     1     2     0     0 -1.607264949E+02 -1.483288137E+02 -2.733450120E+02  3.717215877E+02  1.250000000E+02  0.00000E+00  9.000E+00
      -3     1     1     2     0   502  6.476398380E+01 -4.411031411E+01 -5.901272248E+01  9.809482567E+01  2.336015456E-06  0.00000E+00  9.000E+00
#rwgt            1           1   7.7600665060801544E-002           3      158762           0
</event>
<event>
      5   9999  3.19816E-02  9.16312E+01 -1.00000E+00  1.25560E-01
      21    -1     0     0   502   501  0.000000000E+00  0.000000000E+00  1.352268446E+03  1.352268446E+03  0.000000000E+00  0.00000E+00  9.000E+00
      21    -1     0     0   511   502  0.000000000E+00  0.000000000E+00 -4.242220668E+02  4.242220668E+02  0.000000000E+00  0.00000E+00  9.000E+00
      25     1     1     2     0     0 -5.335516642E+02  2.774126496E+02  3.031904386E+02  6.849705093E+02  1.250000000E+02  0.00000E+00  9.000E+00
      25     1     1     2     0     0  4.740788934E+02 -3.471211519E+02  7.343413534E+02  9.487497640E+02  1.250000000E+02  0.00000E+00  9.000E+00
      21     1     1     2   511   501  5.947277074E+01  6.970850233E+01 -1.094854127E+02  1.427702397E+02  0.000000000E+00  0.00000E+00  9.000E+00
#rwgt            1           1   3.0434129052142978E-002           3      158853           0
</event>
<event>
      5   9999  3.19816E-02  1.93374E+01 -1.00000E+00  1.67585E-01
      21    -1     0     0   512   501  0.000000000E+00  0.000000000E+00  1.985958106E+01  1.985958106E+01  0.000000000E+00  0.00000E+00  9.000E+00
      21    -1     0     0   501   502  0.000000000E+00  0.000000000E+00 -3.415897509E+03  3.415897509E+03  0.000000000E+00  0.00000E+00  9.000E+00
      25     1     1     2     0     0  1.225114619E+02  9.238253246E+01 -6.611964812E+02  6.901806846E+02  1.250000000E+02  0.00000E+00  9.000E+00
      25     1     1     2     0     0 -1.316136248E+02 -1.094437913E+02 -2.654170645E+03  2.662620308E+03  1.250000000E+02  0.00000E+00  9.000E+00
      21     1     1     2   512   502  9.102162834E+00  1.706125886E+01 -8.067080152E+01  8.295609767E+01  9.536743164E-07  0.00000E+00  9.000E+00
#rwgt            1           1   8.9555768004762667E-003           3      158971           0
</event>
<event>
      5   9999  3.79520E-02  9.01395E+01 -1.00000E+00  1.25890E-01
      -1    -1     0     0     0   501  0.000000000E+00  0.000000000E+00  1.368074215E+03  1.368074215E+03  0.000000000E+00  0.00000E+00  9.000E+00
      21    -1     0     0   501   502  0.000000000E+00  0.000000000E+00 -1.208665733E+03  1.208665733E+03  0.000000000E+00  0.00000E+00  9.000E+00
      25     1     1     2     0     0 -9.620097117E+02  1.356256492E+02  6.034374219E+02  1.150486299E+03  1.250000000E+02  0.00000E+00  9.000E+00
      25     1     1     2     0     0  1.049156365E+03 -1.586603278E+02 -6.151400253E+02  1.232852152E+03  1.250000000E+02  0.00000E+00  9.000E+00
      -1     1     1     2     0   502 -8.714665318E+01  2.303467859E+01  1.711110856E+02  1.934014974E+02  3.303624740E-06  0.00000E+00  9.000E+00
#rwgt            1           1   9.2212456058203801E-002           3      159086           0
</event>
<event>
      5   9999  3.19816E-02  3.29050E+01 -1.00000E+00  1.50303E-01
      21    -1     0     0   502   501  0.000000000E+00  0.000000000E+00  1.285269485E+03  1.285269485E+03  0.000000000E+00  0.00000E+00  9.000E+00
      21    -1     0     0   511   502  0.000000000E+00  0.000000000E+00 -1.506986824E+02  1.506986824E+02  0.000000000E+00  0.00000E+00  9.000E+00
      25     1     1     2     0     0 -1.437206481E+02  2.761161307E+02  5.722146783E+02  6.632875548E+02  1.250000000E+02  0.00000E+00  9.000E+00
      25     1     1     2     0     0  1.765874864E+02 -2.745316959E+02  6.168637114E+02  7.090110231E+02  1.250000000E+02  0.00000E+00  9.000E+00
      21     1     1     2   511   501 -3.286683834E+01 -1.584434758E+00 -5.450758740E+01  6.366958914E+01  1.168007728E-06  0.00000E+00  9.000E+00
#rwgt            1           1   2.8088983350686898E-002           3      159183           0
</event>
<event>
      5   9999  3.19816E-02  9.71315E+01 -1.00000E+00  1.24399E-01
      21    -1     0     0   512   501  0.000000000E+00  0.000000000E+00  9.581157495E+01  9.581157495E+01  0.000000000E+00  0.00000E+00  9.000E+00
      21    -1     0     0   501   502  0.000000000E+00  0.000000000E+00 -8.665748430E+02  8.665748430E+02  0.000000000E+00  0.00000E+00  9.000E+00
      25     1     1     2     0     0  1.862200484E+02 -6.699767937E-01 -2.267467589E+02  3.189317293E+02  1.250000000E+02  0.00000E+00  9.000E+00
      25     1     1     2     0     0 -1.047821911E+02  5.360769294E+01 -5.138066823E+02  5.417336976E+02  1.250000000E+02  0.00000E+00  9.000E+00
      21     1     1     2   512   502 -8.143785728E+01 -5.293771615E+01 -3.020982687E+01  1.017209911E+02  1.752011592E-06  0.00000E+00  9.000E+00
#rwgt            1           1   2.7489430212822769E-002           3      159336           0
</event>
<event>
      5   9999  3.19816E-02  2.75079E+01 -1.00000E+00  1.55703E-01
      21    -1     0     0   502   501  0.000000000E+00  0.000000000E+00  4.278756879E+02  4.278756879E+02  0.000000000E+00  0.00000E+00  9.000E+00
      21    -1     0     0   511   502  0.000000000E+00  0.000000000E+00 -1.916984014E+02  1.916984014E+02  0.000000000E+00  0.00000E+00  9.000E+00
      25     1     1     2     0     0 -1.565200434E+02 -1.256722790E+02  2.004623407E+02  3.100035414E+02  1.250000000E+02  0.00000E+00  9.000E+00
      25     1     1     2     0     0  1.840279244E+02  1.256460293E+02  7.067023849E+01  2.650895778E+02  1.250000000E+02  0.00000E+00  9.000E+00
      21     1     1     2   511   501 -2.750788104E+01  2.624966638E-02 -3.495529269E+01  4.448097004E+01  6.743495762E-07  0.00000E+00  9.000E+00
#rwgt            1           1   2.9053236632906706E-002           3      159476           0
</event>
<event>
      5   9999  3.19816E-02  7.63804E+01 -1.00000E+00  1.29330E-01
      21    -1     0     0   512   501  0.000000000E+00  0.000000000E+00  8.642260634E+02  8.642260634E+02  0.000000000E+00  0.00000E+00  9.000E+00
      21    -1     0     0   501   502  0.000000000E+00  0.000000000E+00 -1.467329409E+03  1.467329409E+03  0.000000000E+00  0.00000E+00  9.000E+00
      25     1     1     2     0     0 -9.471191127E+02  2.126203784E+02  1.208783533E+02  9.861433036E+02  1.250000000E+02  0.00000E+00  9.000E+00
      25     1     1     2     0     0  1.021137367E+03 -1.937721199E+02 -7.167082549E+02  1.268686281E+03  1.250000000E+02  0.00000E+00  9.000E+00
      21     1     1     2   512   502 -7.401825448E+01 -1.884825854E+01 -7.273443934E+00  7.672588763E+01  1.278377210E-06  0.00000E+00  9.000E+00
#rwgt            1           1   2.2944097845882628E-002           3      159654           0
</event>
<event>
      5   9999  3.19816E-02  6.28266E+01 -1.00000E+00  1.33644E-01
      21    -1     0     0   502   511  0.000000000E+00  0.000000000E+00  1.141374470E+03  1.141374470E+03  0.000000000E+00  0.00000E+00  9.000E+00
      21    -1     0     0   501   502  0.000000000E+00  0.000000000E+00 -3.520724935E+02  3.520724935E+02  0.000000000E+00  0.00000E+00  9.000E+00
      25     1     1     2     0     0  3.623200048E+02  1.678417392E+02 -1.380317005E+02  4.405954898E+02  1.250000000E+02  0.00000E+00  9.000E+00
      25     1     1     2     0     0 -3.000475454E+02 -1.595153688E+02  4.806267334E+02  6.017480695E+02  1.250000000E+02  0.00000E+00  9.000E+00
      21     1     1     2   501   511 -6.227245939E+01 -8.326370492E+00  4.467069436E+02  4.511034040E+02  5.394796609E-06  0.00000E+00  9.000E+00
#rwgt            1           1   2.8741428627626683E-002           3      159751           0
</event>
<event>
      5   9999  3.19816E-02  1.55113E+01 -1.00000E+00  1.76023E-01
      21    -1     0     0   502   501  0.000000000E+00  0.000000000E+00  1.310613001E+03  1.310613001E+03  0.000000000E+00  0.00000E+00  9.000E+00
      21    -1     0     0   512   502  0.000000000E+00  0.000000000E+00 -2.628266961E+02  2.628266961E+02  0.000000000E+00  0.00000E+00  9.000E+00
      25     1     1     2     0     0 -4.179721936E+02 -3.752320475E+02  5.513032271E+02  7.969065769E+02  1.250000000E+02  0.00000E+00  9.000E+00
      25     1     1     2     0     0  4.095034261E+02  3.882274297E+02  4.949798333E+02  7.609491630E+02  1.250000000E+02  0.00000E+00  9.000E+00
      21     1     1     2   512   501  8.468767439E+00 -1.299538226E+01  1.503244582E+00  1.558395733E+01  2.572339252E-07  0.00000E+00  9.000E+00
#rwgt            1           1   2.5012435644491602E-002           3      159828           0
</event>
<event>
      5   9999  3.19816E-02  2.44573E+01 -1.00000E+00  1.59468E-01
      21    -1     0     0   502   501  0.000000000E+00  0.000000000E+00  1.792838353E+02  1.792838353E+02  0.000000000E+00  0.00000E+00  9.000E+00
      21    -1     0     0   501   511  0.000000000E+00  0.000000000E+00 -1.629843841E+02  1.629843841E+02  0.000000000E+00  0.00000E+00  9.000E+00
      25     1     1     2     0     0  2.859279068E+01 -9.441181109E+01 -1.398174337E+01  1.598487626E+02  1.250000000E+02  0.00000E+00  9.000E+00
      25     1     1     2     0     0 -4.146653656E+01  7.361697858E+01  4.001981103E+01  1.560945818E+02  1.250000000E+02  0.00000E+00  9.000E+00
      21     1     1     2   502   511  1.287374588E+01  2.079483251E+01 -9.738616553E+00  2.632487502E+01  4.298152060E-07  0.00000E+00  9.000E+00
#rwgt            1           1   6.7241928381578553E-002           3      159998           0
</event>
<event>
      5   9999  3.19816E-02  9.10857E+01 -1.00000E+00  1.25680E-01
      21    -1     0     0   502   512  0.000000000E+00  0.000000000E+00  1.197585978E+03  1.197585978E+03  0.000000000E+00  0.00000E+00  9.000E+00
      21    -1     0     0   501   502  0.000000000E+00  0.000000000E+00 -6.830344940E+02  6.830344940E+02  0.000000000E+00  0.00000E+00  9.000E+00
      25     1     1     2     0     0 -2.042830284E+02  7.165925515E+02  5.538538193E+02  9.368113437E+02  1.250000000E+02  0.00000E+00  9.000E+00
      25     1     1     2     0     0  2.462576123E+02 -7.974302940E+02 -7.216290267E+01  8.469771956E+02  1.250000000E+02  0.00000E+00  9.000E+00
      21     1     1     2   501   512 -4.197458399E+01  8.083774246E+01  3.286056762E+01  9.683193281E+01  6.743495762E-07  0.00000E+00  9.000E+00
#rwgt            1           1   2.7162291836535790E-002           3      160094           0
</event>
<event>
      5   9999  3.19816E-02  5.87943E+01 -1.00000E+00  1.35176E-01
      21    -1     0     0   502   501  0.000000000E+00  0.000000000E+00  8.087377534E+02  8.087377534E+02  0.000000000E+00  0.00000E+00  9.000E+00
      21    -1     0     0   501   511  0.000000000E+00  0.000000000E+00 -1.770005033E+02  1.770005033E+02  0.000000000E+00  0.00000E+00  9.000E+00
      25     1     1     2     0     0 -2.492662735E+02 -1.455390303E+02  5.046108658E+02  5.946195509E+02  1.250000000E+02  0.00000E+00  9.000E+00
      25     1     1     2     0     0  2.078640777E+02  1.872838121E+02  8.264075019E+01  3.173912328E+02  1.250000000E+02  0.00000E+00  9.000E+00
      21     1     1     2   502   511  4.140219578E+01 -4.174478177E+01  4.448563419E+01  7.372747297E+01  2.132480600E-06  0.00000E+00  9.000E+00
#rwgt            1           1   2.8013977362344625E-002           3      160231           0
</event>
<event>
      5   9999  3.19816E-02  6.49632E+01 -1.00000E+00  1.32884E-01
      21    -1     0     0   512   501  0.000000000E+00  0.000000000E+00  7.220121370E+02  7.220121370E+02  0.000000000E+00  0.00000E+00  9.000E+00
      21    -1     0     0   501   502  0.000000000E+00  0.000000000E+00 -5.575782457E+02  5.575782457E+02  0.000000000E+00  0.00000E+00  9.000E+00
      25     1     1     2     0     0  4.136795281E+02 -1.620859336E+02  4.304702584E+01  4.635522067E+02  1.250000000E+02  0.00000E+00  9.000E+00
      25     1     1     2     0     0 -3.708853854E+02  2.109620504E+02 -2.004464609E+02  4.877137885E+02  1.250000000E+02  0.00000E+00  9.000E+00
      21     1     1     2   512   502 -4.279414266E+01 -4.887611671E+01  3.218333264E+02  3.283243875E+02  5.394796609E-06  0.00000E+00  9.000E+00
#rwgt            1           1   2.6471054068003676E-002           3      160331           0
</event>
<event>
      5   9999  3.19816E-02  2.42799E+02 -1.00000E+00  1.08666E-01
      21    -1     0     0   502   501  0.000000000E+00  0.000000000E+00  3.290124137E+02  3.290124137E+02  0.000000000E+00  0.00000E+00  9.000E+00
       2    -1     0     0   501     0  0.000000000E+00  0.000000000E+00 -6.677852701E+02  6.677852701E+02  0.000000000E+00  0.00000E+00  9.000E+00
      25     1     1     2     0     0 -1.244220485E+02 -5.836981432E+01  1.161817415E+02  2.191143045E+02  1.250000000E+02  0.00000E+00  9.000E+00
      25     1     1     2     0     0  4.711802782E+01  2.885335264E+02 -4.283075683E+02  5.334267311E+02  1.250000000E+02  0.00000E+00  9.000E+00
       2     1     1     2   502     0  7.730402065E+01 -2.301637121E+02 -2.664702961E+01  2.442566482E+02  6.078504936E-06  0.00000E+00  9.000E+00
#rwgt            1           1   2.7999032171073860E-002           3      160383           0
</event>
<event>
      5   9999  3.19816E-02  4.53513E+01 -1.00000E+00  1.41537E-01
      21    -1     0     0   502   511  0.000000000E+00  0.000000000E+00  1.490824809E+03  1.490824809E+03  0.000000000E+00  0.00000E+00  9.000E+00
      21    -1     0     0   501   502  0.000000000E+00  0.000000000E+00 -1.866497658E+02  1.866497658E+02  0.000000000E+00  0.00000E+00  9.000E+00
      25     1     1     2     0     0  1.991623183E+02  2.497916192E+02  1.321761503E+02  3.676370721E+02  1.250000000E+02  0.00000E+00  9.000E+00
      25     1     1     2     0     0 -1.625858665E+02 -2.766040017E+02  3.658329624E+02  5.023969488E+02  1.250000000E+02  0.00000E+00  9.000E+00
      21     1     1     2   501   511 -3.657645180E+01  2.681238246E+01  8.061659306E+02  8.074405540E+02  0.000000000E+00  0.00000E+00  9.000E+00
#rwgt            1           1   2.6614749974436178E-002           3      160420           0
</event>
<event>
      5   9999  3.19816E-02  7.86840E+01 -1.00000E+00  1.28699E-01
      21    -1     0     0   502   501  0.000000000E+00  0.000000000E+00  7.405838374E+02  7.405838374E+02  0.000000000E+00  0.00000E+00  9.000E+00
      21    -1     0     0   512   502  0.000000000E+00  0.000000000E+00 -2.437200491E+02  2.437200491E+02  0.000000000E+00  0.00000E+00  9.000E+00
      25     1     1     2     0     0  2.755925803E+02 -1.442799168E+02  3.253079756E+02  4.671383561E+02  1.250000000E+02  0.00000E+00  9.000E+00
      25     1     1     2     0     0 -3.474688742E+02  1.762950480E+02  1.446717384E+02  4.340155232E+02  1.250000000E+02  0.00000E+00  9.000E+00
      21     1     1     2   512   501  7.187629394E+01 -3.201513122E+01  2.688407426E+01  8.315000725E+01  8.920806376E-07  0.00000E+00  9.000E+00
#rwgt            1           1   2.8875540684339309E-002           3      160505           0
</event>
<event>
      5   9999  3.19816E-02  1.07708E+03 -1.00000E+00  9.02237E-02
       2    -1     0     0   502     0  0.000000000E+00  0.000000000E+00  1.382925813E+03  1.382925813E+03  0.000000000E+00  0.00000E+00  9.000E+00
      21    -1     0     0   501   502  0.000000000E+00  0.000000000E+00 -1.418286143E+03  1.418286143E+03  0.000000000E+00  0.00000E+00  9.000E+00
      25     1     1     2     0     0  9.376816151E+02 -4.468000306E+01  4.390085324E+02  1.043837442E+03  1.250000000E+02  0.00000E+00  9.000E+00
      25     1     1     2     0     0  1.196991523E+02  2.497224317E+02 -6.004478903E+02  6.729426788E+02  1.250000000E+02  0.00000E+00  9.000E+00
       2     1     1     2   501     0 -1.057380767E+03 -2.050424287E+02  1.260790274E+02  1.084431836E+03  5.878843310E-06  0.00000E+00  9.000E+00
#rwgt            2          18   3.4930125847247156E-004           3      160567           0
</event>
<event>
      5   9999  3.19816E-02  1.87573E+02 -1.00000E+00  1.12672E-01
      21    -1     0     0   502   501  0.000000000E+00  0.000000000E+00  8.083556381E+02  8.083556381E+02  0.000000000E+00  0.00000E+00  9.000E+00
      -1    -1     0     0     0   502  0.000000000E+00  0.000000000E+00 -2.210689113E+03  2.210689113E+03  0.000000000E+00  0.00000E+00  9.000E+00
      25     1     1     2     0     0  6.335584463E+02  6.867168343E+02  7.570817279E+01  9.456918329E+02  1.250000000E+02  0.00000E+00  9.000E+00
      25     1     1     2     0     0 -6.430322764E+02 -8.740508633E+02 -7.586225481E+02  1.329882924E+03  1.250000000E+02  0.00000E+00  9.000E+00
      -1     1     1     2     0   501  9.473830126E+00  1.873340289E+02 -7.194190993E+02  7.434699942E+02  1.321449896E-05  0.00000E+00  9.000E+00
#rwgt            1           1   3.2708867958476308E-002           3      160601           0
</event>
<event>
      5   9999  3.19816E-02  4.52243E+02 -1.00000E+00  1.00107E-01
      21    -1     0     0   502   501  0.000000000E+00  0.000000000E+00  3.318093389E+03  3.318093389E+03  0.000000000E+00  0.00000E+00  9.000E+00
      21    -1     0     0   501   511  0.000000000E+00  0.000000000E+00 -1.327221476E+03  1.327221476E+03  0.000000000E+00  0.00000E+00  9.000E+00
      25     1     1     2     0     0 -1.631114132E+03  1.071168320E+03  6.268088887E+02  2.053399442E+03  1.250000000E+02  0.00000E+00  9.000E+00
      25     1     1     2     0     0  1.179122974E+03 -1.086252471E+03  1.408225056E+03  2.137521515E+03  1.250000000E+02  0.00000E+00  9.000E+00
      21     1     1     2   502   511  4.519911582E+02  1.508415081E+01 -4.416203132E+01  4.543939081E+02  1.581489940E-06  0.00000E+00  9.000E+00
#rwgt            1           1   1.7646888954884307E-002           3      160662           0
</event>
<event>
      5   9999  3.19816E-02  3.75532E+01 -1.00000E+00  1.46561E-01
      21    -1     0     0   502   512  0.000000000E+00  0.000000000E+00  1.842312080E+03  1.842312080E+03  0.000000000E+00  0.00000E+00  9.000E+00
      21    -1     0     0   501   502  0.000000000E+00  0.000000000E+00 -8.023258990E+02  8.023258990E+02  0.000000000E+00  0.00000E+00  9.000E+00
      25     1     1     2     0     0  9.982082356E+02  4.902382007E+02  9.097212795E+01  1.122788539E+03  1.250000000E+02  0.00000E+00  9.000E+00
      25     1     1     2     0     0 -1.035475304E+03 -4.856109901E+02  9.036228957E+02  1.462937619E+03  1.250000000E+02  0.00000E+00  9.000E+00
      21     1     1     2   501   512  3.726706877E+01 -4.627210597E+00  4.539115706E+01  5.891182082E+01  6.743495762E-07  0.00000E+00  9.000E+00
#rwgt            1           1   6.4394274587166844E-002           3      160713           0
</event>
<event>
      5   9999  3.19816E-02  1.41482E+01 -1.00000E+00  1.79809E-01
      21    -1     0     0   502   511  0.000000000E+00  0.000000000E+00  2.643419443E+03  2.643419443E+03  0.000000000E+00  0.00000E+00  9.000E+00
      21    -1     0     0   501   502  0.000000000E+00  0.000000000E+00 -1.339449275E+02  1.339449275E+02  0.000000000E+00  0.00000E+00  9.000E+00
      25     1     1     2     0     0 -2.070948109E+02  2.376092435E+01  1.392136734E+03  1.413195856E+03  1.250000000E+02  0.00000E+00  9.000E+00
      25     1     1     2     0     0  1.962655262E+02 -1.465605397E+01 -1.321573739E+01  2.335264704E+02  1.250000000E+02  0.00000E+00  9.000E+00
      21     1     1     2   501   511  1.082928476E+01 -9.104870377E+00  1.130553519E+03  1.130642044E+03  0.000000000E+00  0.00000E+00  9.000E+00
#rwgt            1           1   2.9286867783900709E-002           3      160894           0
</event>
<event>
      5   9999  3.19816E-02  5.58883E+01 -1.00000E+00  1.36372E-01
      21    -1     0     0   512   501  0.000000000E+00  0.000000000E+00  1.589868770E+02  1.589868770E+02  0.000000000E+00  0.00000E+00  9.000E+00
      21    -1     0     0   501   502  0.000000000E+00  0.000000000E+00 -3.589188119E+02  3.589188119E+02  0.000000000E+00  0.00000E+00  9.000E+00
      25     1     1     2     0     0  9.950250501E+01  7.312838884E+01 -7.873769712E+01  1.925438514E+02  1.250000000E+02  0.00000E+00  9.000E+00
      25     1     1     2     0     0 -4.942407661E+01 -4.831596299E+01 -1.893747601E+02  2.372023849E+02  1.250000000E+02  0.00000E+00  9.000E+00
      21     1     1     2   512   502 -5.007842840E+01 -2.481242585E+01  6.818052236E+01  8.815945268E+01  0.000000000E+00  0.00000E+00  9.000E+00
#rwgt            1           1   3.2355757306291727E-002           3      161101           0
</event>
<event>
      5   9999  3.19816E-02  3.24947E+02 -1.00000E+00  1.04477E-01
      21    -1     0     0   502   501  0.000000000E+00  0.000000000E+00  1.902852929E+03  1.902852929E+03  0.000000000E+00  0.00000E+00  9.000E+00
      21    -1     0     0   501   511  0.000000000E+00  0.000000000E+00 -3.206501629E+02  3.206501629E+02  0.000000000E+00  0.00000E+00  9.000E+00
      25     1     1     2     0     0 -3.088448295E+02  5.243026836E+02  1.414938320E+03  1.545300580E+03  1.250000000E+02  0.00000E+00  9.000E+00
      25     1     1     2     0     0  2.093659225E+02 -2.149573780E+02  3.344261593E+01  3.267784760E+02  1.250000000E+02  0.00000E+00  9.000E+00
      21     1     1     2   502   511  9.947890703E+01 -3.093453056E+02  1.338218306E+02  3.514240364E+02  1.907348633E-06  0.00000E+00  9.000E+00
#rwgt            2          11   3.9568229194689771E-003           3      161164           0
</event>
<event>
      5   9999  3.19816E-02  2.42276E+01 -1.00000E+00  1.59779E-01
      21    -1     0     0   502   501  0.000000000E+00  0.000000000E+00  2.321445385E+02  2.321445385E+02  0.000000000E+00  0.00000E+00  9.000E+00
      21    -1     0     0   501   512  0.000000000E+00  0.000000000E+00 -6.729209521E+02  6.729209521E+02  0.000000000E+00  0.00000E+00  9.000E+00
      25     1     1     2     0     0  2.511777576E+02  1.937413599E+01  7.140784431E+01  2.901546196E+02  1.250000000E+02  0.00000E+00  9.000E+00
      25     1     1     2     0     0 -2.628546206E+02 -4.060210727E+01 -3.792564387E+02  4.797932148E+02  1.250000000E+02  0.00000E+00  9.000E+00
      21     1     1     2   502   512  1.167686300E+01  2.122797128E+01 -1.329278192E+02  1.351176562E+02  2.697398305E-06  0.00000E+00  9.000E+00
#rwgt            1           1   2.2545013400138050E-002           3      161184           0
</event>
<event>
      5   9999  3.19816E-02  1.32006E+01 -1.00000E+00  1.82776E-01
      21    -1     0     0   511   501  0.000000000E+00  0.000000000E+00  1.372282707E+02  1.372282707E+02  0.000000000E+00  0.00000E+00  9.000E+00
      21    -1     0     0   501   502  0.000000000E+00  0.000000000E+00 -5.804524253E+02  5.804524253E+02  0.000000000E+00  0.00000E+00  9.000E+00
      25     1     1     2     0     0 -9.847450896E+01 -8.832569487E+01  2.334788061E+01  1.834905469E+02  1.250000000E+02  0.00000E+00  9.000E+00
      25     1     1     2     0     0  9.410542457E+01  1.007823408E+02 -4.803284519E+02  5.151245800E+02  1.250000000E+02  0.00000E+00  9.000E+00
      21     1     1     2   511   502  4.369084390E+00 -1.245664595E+01  1.375641664E+01  1.906556911E+01  3.371747881E-07  0.00000E+00  9.000E+00
#rwgt            1           1   2.9424734838284915E-002           3      161333           0
</event>
<event>
      5   9999  3.19816E-02  1.47558E+02 -1.00000E+00  1.16677E-01
      21    -1     0     0   512   501  0.000000000E+00  0.000000000E+00  5.731293337E+02  5.731293337E+02  0.000000000E+00  0.00000E+00  9.000E+00
      21    -1     0     0   501   502  0.000000000E+00  0.000000000E+00 -1.670034815E+02  1.670034815E+02  0.000000000E+00  0.00000E+00  9.000E+00
      25     1     1     2     0     0 -1.207593458E+02 -8.262064942E+01  3.125639266E+02  3.670561258E+02  1.250000000E+02  0.00000E+00  9.000E+00
      25     1     1     2     0     0  9.289973953E+01 -6.228337041E+01 -4.177034663E+01  1.728564193E+02  1.250000000E+02  0.00000E+00  9.000E+00
      21     1     1     2   512   502  2.785960631E+01  1.449040198E+02  1.353322722E+02  2.002202700E+02  2.697398305E-06  0.00000E+00  9.000E+00
#rwgt            1           1   2.9388856369050202E-002           3      161541           0
</event>
<event>
      5   9999  3.19816E-02  1.27484E+02 -1.00000E+00  1.19263E-01
      21    -1     0     0   511   501  0.000000000E+00  0.000000000E+00  1.549422491E+02  1.549422491E+02  0.000000000E+00  0.00000E+00  9.000E+00
      21    -1     0     0   501   502  0.000000000E+00  0.000000000E+00 -1.417424429E+03  1.417424429E+03  0.000000000E+00  0.00000E+00  9.000E+00
      25     1     1     2     0     0  3.766949365E+01 -3.043194536E+02 -1.069342912E+03  1.119441193E+03  1.250000000E+02  0.00000E+00  9.000E+00
      25     1     1     2     0     0  4.701431722E+01  2.090254997E+02 -2.091305842E+02  3.244419930E+02  1.250000000E+02  0.00000E+00  9.000E+00
      21     1     1     2   511   502 -8.468381087E+01  9.529395388E+01  1.599131682E+01  1.284834919E+02  3.135906801E-06  0.00000E+00  9.000E+00
#rwgt            1           1   2.9104421076273090E-002           3      161639           0
</event>
<event>
      5   9999  3.19816E-02  7.61627E+01 -1.00000E+00  1.29391E-01
      21    -1     0     0   512   501  0.000000000E+00  0.000000000E+00  5.504219551E+02  5.504219551E+02  0.000000000E+00  0.00000E+00  9.000E+00
      21    -1     0     0   501   502  0.000000000E+00  0.000000000E+00 -8.168985753E+02  8.168985753E+02  0.000000000E+00  0.00000E+00  9.000E+00
      25     1     1     2     0     0 -2.718680892E+01 -4.015562527E+02  2.612860813E+02  4.958648636E+02  1.250000000E+02  0.00000E+00  9.000E+00
      25     1     1     2     0     0  6.366826771E+01  4.684132654E+02 -5.948053962E+02  7.699890226E+02  1.250000000E+02  0.00000E+00  9.000E+00
      21     1     1     2   512   502 -3.648145878E+01 -6.685701273E+01  6.704269467E+01  1.014666442E+02  1.651812370E-06  0.00000E+00  9.000E+00
#rwgt            1           1   2.7119345088440348E-002           3      161712           0
</event>
<event>
      5   9999  3.19816E-02  3.99910E+01 -1.00000E+00  1.44846E-01
      21    -1     0     0   511   501  0.000000000E+00  0.000000000E+00  9.741940922E+02  9.741940922E+02  0.000000000E+00  0.00000E+00  9.000E+00
      21    -1     0     0   501   502  0.000000000E+00  0.000000000E+00 -7.911436068E+01  7.911436068E+01  0.000000000E+00  0.00000E+00  9.000E+00
      25     1     1     2     0     0  9.526817149E+01 -2.628474409E+01  3.262971922E+01  1.626548826E+02  1.250000000E+02  0.00000E+00  9.000E+00
      25     1     1     2     0     0 -9.812240783E+01 -1.360426556E+01  4.732268744E+02  4.993813749E+02  1.250000000E+02  0.00000E+00  9.000E+00
      21     1     1     2   511   502  2.854236342E+00  3.988900965E+01  3.892231379E+02  3.912721953E+02  7.629394531E-06  0.00000E+00  9.000E+00
#rwgt            1           1   3.2895464512893859E-002           3      161808           0
</event>
<event>
      5   9999  3.19816E-02  1.07836E+01 -1.00000E+00  1.92045E-01
      21    -1     0     0   512   501  0.000000000E+00  0.000000000E+00  2.376461568E+03  2.376461568E+03  0.000000000E+00  0.00000E+00  9.000E+00
      21    -1     0     0   501   502  0.000000000E+00  0.000000000E+00 -4.955469158E+01  4.955469158E+01  0.000000000E+00  0.00000E+00  9.000E+00
      25     1     1     2     0     0  1.771701792E+02  1.558035171E+02  1.020202825E+03  1.054562854E+03  1.250000000E+02  0.00000E+00  9.000E+00
      25     1     1     2     0     0 -1.879533718E+02 -1.558922360E+02  5.494702871E+02  6.141428625E+02  1.250000000E+02  0.00000E+00  9.000E+00
      21     1     1     2   512   502  1.078319260E+01  8.871883536E-02  7.572337641E+02  7.573105431E+02  1.078959322E-05  0.00000E+00  9.000E+00
#rwgt            1           1   4.0396040764845077E-002           3      161874           0
</event>
<event>
      5   9999  3.19816E-02  3.25423E+01 -1.00000E+00  1.50626E-01
      21    -1     0     0   502   501  0.000000000E+00  0.000000000E+00  6.977128556E+01  6.977128556E+01  0.000000000E+00  0.00000E+00  9.000E+00
       2    -1     0     0   501     0  0.000000000E+00  0.000000000E+00 -2.564191377E+03  2.564191377E+03  0.000000000E+00  0.00000E+00  9.000E+00
      25     1     1     2     0     0 -9.807128686E+01 -1.971926920E+02 -7.533771312E+02  7.947987398E+02  1.250000000E+02  0.00000E+00  9.000E+00
      25     1     1     2     0     0  8.712441167E+01  1.665468131E+02 -2.116782958E+02  3.094530740E+02  1.250000000E+02  0.00000E+00  9.000E+00
       2     1     1     2   502     0  1.094687519E+01  3.064587884E+01 -1.529364665E+03  1.529710849E+03  0.000000000E+00  0.00000E+00  9.000E+00
#rwgt            1           1   3.0978153398738450E-002           3      162112           0
</event>
<event>
      5   9999  3.19816E-02  3.26983E+01 -1.00000E+00  1.50486E-01
      21    -1     0     0   502   501  0.000000000E+00  0.000000000E+00  6.037690826E+02  6.037690826E+02  0.000000000E+00  0.00000E+00  9.000E+00
      -3    -1     0     0     0   502  0.000000000E+00  0.000000000E+00 -5.164200823E+02  5.164200823E+02  0.000000000E+00  0.00000E+00  9.000E+00
      25     1     1     2     0     0 -4.720799520E+01 -1.630901370E+02  4.769910666E+02  5.215097940E+02  1.250000000E+02  0.00000E+00  9.000E+00
      25     1     1     2     0     0  6.705848449E+01  1.371066980E+02  1.015924020E+01  1.975431526E+02  1.250000000E+02  0.00000E+00  9.000E+00
      -3     1     1     2     0   501 -1.985048929E+01  2.598343898E+01 -3.998013065E+02  4.011362184E+02  5.394796609E-06  0.00000E+00  9.000E+00
#rwgt            1           1   2.7999174643110785E-002           3      162217           0
</event>
<event>
      5   9999  3.19816E-02  7.93892E+01 -1.00000E+00  1.28511E-01
      21    -1     0     0   511   501  0.000000000E+00  0.000000000E+00  1.450775503E+03  1.450775503E+03  0.000000000E+00  0.00000E+00  9.000E+00
      21    -1     0     0   501   502  0.000000000E+00  0.000000000E+00 -1.377529002E+02  1.377529002E+02  0.000000000E+00  0.00000E+00  9.000E+00
      25     1     1     2     0     0 -3.412275608E+02 -3.362447760E+01  5.259832235E+02  6.401954430E+02  1.250000000E+02  0.00000E+00  9.000E+00
      25     1     1     2     0     0  4.151235814E+02  6.264215897E+01  5.817206416E+02  7.282002010E+02  1.250000000E+02  0.00000E+00  9.000E+00
      21     1     1     2   511   502 -7.389602054E+01 -2.901768138E+01  2.053187376E+02  2.201327593E+02  0.000000000E+00  0.00000E+00  9.000E+00
#rwgt            1           1   2.9767533789939984E-002           3      162314           0
</event>
<event>
      5   9999  3.19816E-02  3.30277E+01 -1.00000E+00  1.50195E-01
      21    -1     0     0   502   501  0.000000000E+00  0.000000000E+00  3.086639879E+02  3.086639879E+02  0.000000000E+00  0.00000E+00  9.000E+00
       1    -1     0     0   501     0  0.000000000E+00  0.000000000E+00 -9.670652427E+02  9.670652427E+02  0.000000000E+00  0.00000E+00  9.000E+00
      25     1     1     2     0     0  8.135445877E+01  2.276213568E+02  1.455276270E+02  3.085989635E+02  1.250000000E+02  0.00000E+00  9.000E+00
      25     1     1     2     0     0 -5.075504311E+01 -2.151913088E+02 -1.173967845E+02  2.798041794E+02  1.250000000E+02  0.00000E+00  9.000E+00
       1     1     1     2   502     0 -3.059941566E+01 -1.243004802E+01 -6.865320972E+02  6.873260877E+02  0.000000000E+00  0.00000E+00  9.000E+00
#rwgt            1           1   2.7609497878737791E-002           3      162443           0
</event>
<event>
      5   9999  3.19816E-02  4.02180E+01 -1.00000E+00  1.44694E-01
      21    -1     0     0   502   501  0.000000000E+00  0.000000000E+00  9.551680818E+01  9.551680818E+01  0.000000000E+00  0.00000E+00  9.000E+00
      21    -1     0     0   511   502  0.000000000E+00  0.000000000E+00 -6.256609124E+02  6.256609124E+02  0.000000000E+00  0.00000E+00  9.000E+00
      25     1     1     2     0     0  1.566186217E+02 -2.369643751E+01 -1.287381936E+02  2.393521178E+02  1.250000000E+02  0.00000E+00  9.000E+00
      25     1     1     2     0     0 -1.711492455E+02 -1.380483034E+01 -2.649569545E+02  3.395730044E+02  1.250000000E+02  0.00000E+00  9.000E+00
      21     1     1     2   511   501  1.453062379E+01  3.750126785E+01 -1.364489561E+02  1.422525983E+02  1.907348633E-06  0.00000E+00  9.000E+00
#rwgt            1           1   2.9552341459404476E-002           3      162552           0
</event>
<event>
      5   9999  3.19816E-02  2.34897E+02 -1.00000E+00  1.09163E-01
      21    -1     0     0   502   501  0.000000000E+00  0.000000000E+00  2.274188472E+02  2.274188472E+02  0.000000000E+00  0.00000E+00  9.000E+00
      21    -1     0     0   512   502  0.000000000E+00  0.000000000E+00 -1.224207877E+03  1.224207877E+03  0.000000000E+00  0.00000E+00  9.000E+00
      25     1     1     2     0     0  3.752366838E+01  3.252704817E+02 -8.520628826E+02  9.213278830E+02  1.250000000E+02  0.00000E+00  9.000E+00
      25     1     1     2     0     0 -3.177741709E+01 -9.044335217E+01  1.035491428E+02  1.885132069E+02  1.250000000E+02  0.00000E+00  9.000E+00
      21     1     1     2   512   501 -5.746251285E+00 -2.348271296E+02 -2.482752897E+02  3.417856340E+02  3.814697266E-06  0.00000E+00  9.000E+00
#rwgt            1           1   2.5864061414989935E-002           3      162658           0
</event>
<event>
      5   9999  3.19816E-02  2.19241E+02 -1.00000E+00  1.10215E-01
      21    -1     0     0   511   501  0.000000000E+00  0.000000000E+00  1.883452366E+02  1.883452366E+02  0.000000000E+00  0.00000E+00  9.000E+00
      21    -1     0     0   501   502  0.000000000E+00  0.000000000E+00 -6.584768043E+02  6.584768043E+02  0.000000000E+00  0.00000E+00  9.000E+00
      25     1     1     2     0     0 -1.672849858E+01 -2.208455251E+02 -4.298121644E+02  4.994157439E+02  1.250000000E+02  0.00000E+00  9.000E+00
      25     1     1     2     0     0  6.802596832E+00  1.829158619E+00 -4.667751310E+00  1.252853106E+02  1.250000000E+02  0.00000E+00  9.000E+00
      21     1     1     2   511   502  9.925901745E+00  2.190163664E+02 -3.565165203E+01  2.221209864E+02  4.768371582E-07  0.00000E+00  9.000E+00
#rwgt            1           1   2.7023222091209997E-002           3      162690           0
</event>
<event>
      5   9999  3.19816E-02  6.66001E+01 -1.00000E+00  1.32325E-01
      21    -1     0     0   512   501  0.000000000E+00  0.000000000E+00  4.175569337E+02  4.175569337E+02  0.000000000E+00  0.00000E+00  9.000E+00
      21    -1     0     0   501   502  0.000000000E+00  0.000000000E+00 -1.276664575E+03  1.276664575E+03  0.000000000E+00  0.00000E+00  9.000E+00
      25     1     1     2     0     0  4.372030980E+02 -2.892453455E+02  1.053611818E+02  5.491223884E+02  1.250000000E+02  0.00000E+00  9.000E+00
      25     1     1     2     0     0 -4.186937546E+02  2.252689626E+02 -9.597524892E+02  1.078332234E+03  1.250000000E+02  0.00000E+00  9.000E+00
      21     1     1     2   512   502 -1.850934335E+01  6.397638292E+01 -4.716334173E+00  6.676688679E+01  4.298152060E-07  0.00000E+00  9.000E+00
#rwgt            1           1   2.3273235779420063E-002           3      162720           0
</event>
<event>
      5   9999  3.19816E-02  2.70239E+01 -1.00000E+00  1.56260E-01
      21    -1     0     0   502   501  0.000000000E+00  0.000000000E+00  3.138717528E+03  3.138717528E+03  0.000000000E+00  0.00000E+00  9.000E+00
      21    -1     0     0   501   511  0.000000000E+00  0.000000000E+00 -2.908233280E+01  2.908233280E+01  0.000000000E+00  0.00000E+00  9.000E+00
      25     1     1     2     0     0 -6.409242833E+01  1.519607110E+02  4.592511712E+02  5.037226770E+02  1.250000000E+02  0.00000E+00  9.000E+00
      25     1     1     2     0     0  5.679124219E+01 -1.779796685E+02  2.557013550E+03  2.566874618E+03  1.250000000E+02  0.00000E+00  9.000E+00
      21     1     1     2   502   511  7.301186140E+00  2.601895748E+01  9.337047442E+01  9.720256664E+01  3.015782986E-06  0.00000E+00  9.000E+00
#rwgt            1           1   2.6766241264707388E-002           3      162858           0
</event>
<event>
      5   9999  3.19816E-02  2.38670E+01 -1.00000E+00  1.60274E-01
      21    -1     0     0   512   501  0.000000000E+00  0.000000000E+00  2.021617922E+03  2.021617922E+03  0.000000000E+00  0.00000E+00  9.000E+00
      21    -1     0     0   501   502  0.000000000E+00  0.000000000E+00 -6.875019305E+02  6.875019305E+02  0.000000000E+00  0.00000E+00  9.000E+00
      25     1     1     2     0     0 -3.265083620E+02  4.339460934E+02  1.690015945E+03  1.779521233E+03  1.250000000E+02  0.00000E+00  9.000E+00
      25     1     1     2     0     0  3.160252477E+02 -4.553875998E+02 -5.161088099E+02  7.676217342E+02  1.250000000E+02  0.00000E+00  9.000E+00
      21     1     1     2   512   502  1.048311436E+01  2.144150637E+01  1.602088562E+02  1.619768857E+02  1.907348633E-06  0.00000E+00  9.000E+00
#rwgt            1           1   2.3892699137026734E-002           3      162993           0
</event>
<event>
      5   9999  3.19816E-02  3.11760E+01 -1.00000E+00  1.51889E-01
      21    -1     0     0   511   501  0.000000000E+00  0.000000000E+00  7.297901198E+02  7.297901198E+02  0.000000000E+00  0.00000E+00  9.000E+00
      21    -1     0     0   501   502  0.000000000E+00  0.000000000E+00 -1.229286471E+02  1.229286471E+02  0.000000000E+00  0.00000E+00  9.000E+00
      25     1     1     2     0     0 -2.261612320E+02  7.793907208E+01  1.382124073E+02  3.032343505E+02  1.250000000E+02  0.00000E+00  9.000E+00
      25     1     1     2     0     0  1.992884734E+02 -9.374400787E+01  3.913695821E+02  4.661533915E+02  1.250000000E+02  0.00000E+00  9.000E+00
      21     1     1     2   511   502  2.687275862E+01  1.580493579E+01  7.727948338E+01  8.333102485E+01  1.348699152E-06  0.00000E+00  9.000E+00
#rwgt            1           1   2.6507490225543762E-002           3      163196           0
</event>
<event>
      5   9999  3.19816E-02  5.26022E+01 -1.00000E+00  1.37830E-01
      21    -1     0     0   502   501  0.000000000E+00  0.000000000E+00  4.309801913E+02  4.309801913E+02  0.000000000E+00  0.00000E+00  9.000E+00
      21    -1     0     0   501   512  0.000000000E+00  0.000000000E+00 -4.237072245E+02  4.237072245E+02  0.000000000E+00  0.00000E+00  9.000E+00
      25     1     1     2     0     0 -1.615969826E+02  1.396746544E+02 -2.026342016E+02  3.198565515E+02  1.250000000E+02  0.00000E+00  9.000E+00
      25     1     1     2     0     0  2.124073437E+02 -1.532870053E+02  3.081980551E+02  4.233495326E+02  1.250000000E+02  0.00000E+00  9.000E+00
      21     1     1     2   502   512 -5.081036106E+01  1.361235089E+01 -9.829088668E+01  1.114813316E+02  0.000000000E+00  0.00000E+00  9.000E+00
#rwgt            1           1   2.7977057502790725E-002           3      163320           0
</event>
<event>
      5   9999  3.19816E-02  2.85293E+01 -1.00000E+00  1.54572E-01
      21    -1     0     0   502   501  0.000000000E+00  0.000000000E+00  1.293734377E+02  1.293734377E+02  0.000000000E+00  0.00000E+00  9.000E+00
      -1    -1     0     0     0   502  0.000000000E+00  0.000000000E+00 -8.962694920E+02  8.962694920E+02  0.000000000E+00  0.00000E+00  9.000E+00
      25     1     1     2     0     0  1.457175408E+02  2.121938735E+02 -4.591922191E+02  5.410566844E+02  1.250000000E+02  0.00000E+00  9.000E+00
      25     1     1     2     0     0 -1.690267118E+02 -2.286439300E+02 -1.914088839E+02  3.648430304E+02  1.250000000E+02  0.00000E+00  9.000E+00
      -1     1     1     2     0   501  2.330917094E+01  1.645005646E+01 -1.162949513E+02  1.197432149E+02  0.000000000E+00  0.00000E+00  9.000E+00
#rwgt            1           1   2.7538206018553994E-002           3      163424           0
</event>
<event>
      5   9999  3.19816E-02  1.54872E+01 -1.00000E+00  1.76086E-01
      21    -1     0     0   502   501  0.000000000E+00  0.000000000E+00  3.057988847E+02  3.057988847E+02  0.000000000E+00  0.00000E+00  9.000E+00
      21    -1     0     0   501   511  0.000000000E+00  0.000000000E+00 -2.019993895E+03  2.019993895E+03  0.000000000E+00  0.00000E+00  9.000E+00
      25     1     1     2     0     0  4.088704966E+02  9.436589437E+01  1.034682355E+02  4.499007454E+02  1.250000000E+02  0.00000E+00  9.000E+00
      25     1     1     2     0     0 -4.164277655E+02 -1.078840298E+02 -1.768033321E+03  1.823901827E+03  1.250000000E+02  0.00000E+00  9.000E+00
      21     1     1     2   502   511  7.557268922E+00  1.351813542E+01 -4.962992481E+01  5.199020807E+01  9.536743164E-07  0.00000E+00  9.000E+00
#rwgt            1           1   2.9007807619515994E-002           3      163611           0
</event>
<event>
      5   9999  3.19816E-02  4.46312E+01 -1.00000E+00  1.41950E-01
      21    -1     0     0   502   501  0.000000000E+00  0.000000000E+00  1.929707269E+02  1.929707269E+02  0.000000000E+00  0.00000E+00  9.000E+00
       1    -1     0     0   501     0  0.000000000E+00  0.000000000E+00 -8.351742438E+02  8.351742438E+02  0.000000000E+00  0.00000E+00  9.000E+00
      25     1     1     2     0     0 -9.520643186E+01 -1.460307266E+02 -1.486569107E+02  2.609848940E+02  1.250000000E+02  0.00000E+00  9.000E+00
      25     1     1     2     0     0  6.191552316E+01  1.757572035E+02  4.324577127E+01  2.285154772E+02  1.250000000E+02  0.00000E+00  9.000E+00
       1     1     1     2   502     0  3.329090871E+01 -2.972647684E+01 -5.367923776E+02  5.386445996E+02  7.629394531E-06  0.00000E+00  9.000E+00
#rwgt            1           1   2.9061321118343673E-002           3      163902           0
</event>
<event>
      5   9999  3.19816E-02  2.72191E+01 -1.00000E+00  1.56033E-01
      21    -1     0     0   511   501  0.000000000E+00  0.000000000E+00  3.332869506E+02  3.332869506E+02  0.000000000E+00  0.00000E+00  9.000E+00
      21    -1     0     0   501   502  0.000000000E+00  0.000000000E+00 -1.113453273E+03  1.113453273E+03  0.000000000E+00  0.00000E+00  9.000E+00
      25     1     1     2     0     0 -1.849732604E+02 -1.473639688E+02 -3.919532171E+02  4.745351101E+02  1.250000000E+02  0.00000E+00  9.000E+00
      25     1     1     2     0     0  1.908835552E+02  1.207942530E+02 -6.549944985E+02  7.040387604E+02  1.250000000E+02  0.00000E+00  9.000E+00
      21     1     1     2   511   502 -5.910294785E+00  2.656971578E+01  2.667813929E+02  2.681663532E+02  3.814697266E-06  0.00000E+00  9.000E+00
#rwgt            1           1   2.3487335016492573E-002           3      164013           0
</event>
<event>
      5   9999  3.19816E-02  1.13832E+01 -1.00000E+00  1.89470E-01
      21    -1     0     0   502   501  0.000000000E+00  0.000000000E+00  1.861895297E+02  1.861895297E+02  0.000000000E+00  0.00000E+00  9.000E+00
      21    -1     0     0   512   502  0.000000000E+00  0.000000000E+00 -8.494559799E+02  8.494559799E+02  0.000000000E+00  0.00000E+00  9.000E+00
      25     1     1     2     0     0 -2.017502829E+02  8.762107771E+01  6.525320310E+01  2.612730572E+02  1.250000000E+02  0.00000E+00  9.000E+00
      25     1     1     2     0     0  1.916326241E+02 -9.283747392E+01 -7.163450903E+02  7.577051852E+02  1.250000000E+02  0.00000E+00  9.000E+00
      21     1     1     2   512   501  1.011765880E+01  5.216396213E+00 -1.217456299E+01  1.666726712E+01  3.371747881E-07  0.00000E+00  9.000E+00
#rwgt            1           1   3.3430064961990830E-002           3      164147           0
</event>
<event>
      5   9999  3.19816E-02  4.14827E+01 -1.00000E+00  1.43867E-01
      21    -1     0     0   502   511  0.000000000E+00  0.000000000E+00  5.463300224E+02  5.463300224E+02  0.000000000E+00  0.00000E+00  9.000E+00
      21    -1     0     0   501   502  0.000000000E+00  0.000000000E+00 -2.431085485E+02  2.431085485E+02  0.000000000E+00  0.00000E+00  9.000E+00
      25     1     1     2     0     0 -2.455733217E+02 -5.757387326E+01 -6.429631645E+01  2.887559930E+02  1.250000000E+02  0.00000E+00  9.000E+00
      25     1     1     2     0     0  2.496967044E+02  9.885116721E+01  3.011517458E+02  4.224184790E+02  1.250000000E+02  0.00000E+00  9.000E+00
      21     1     1     2   501   511 -4.123382710E+00 -4.127729395E+01  6.636604466E+01  7.826409882E+01  0.000000000E+00  0.00000E+00  9.000E+00
#rwgt            1           1   2.8587205621698298E-002           3      164347           0
</event>
<event>
      5   9999  3.19816E-02  1.25930E+02 -1.00000E+00  1.19486E-01
      21    -1     0     0   502   501  0.000000000E+00  0.000000000E+00  2.383254328E+02  2.383254328E+02  0.000000000E+00  0.00000E+00  9.000E+00
       2    -1     0     0   501     0  0.000000000E+00  0.000000000E+00 -1.006361716E+03  1.006361716E+03  0.000000000E+00  0.00000E+00  9.000E+00
      25     1     1     2     0     0 -1.390217355E+02  6.194155685E+01  1.431349326E+02  2.434674687E+02  1.250000000E+02  0.00000E+00  9.000E+00
      25     1     1     2     0     0  1.073150437E+02 -1.838142282E+02 -3.643885320E+02  4.401229275E+02  1.250000000E+02  0.00000E+00  9.000E+00
       2     1     1     2   502     0  3.170669185E+01  1.218726714E+02 -5.467826834E+02  5.610967521E+02  0.000000000E+00  0.00000E+00  9.000E+00
#rwgt            1           1   3.0850076174893472E-002           3      164476           0
</event>
<event>
      5   9999  3.19816E-02  1.31085E+01 -1.00000E+00  1.83082E-01
      21    -1     0     0   502   511  0.000000000E+00  0.000000000E+00  1.984702886E+02  1.984702886E+02  0.000000000E+00  0.00000E+00  9.000E+00
      21    -1     0     0   501   502  0.000000000E+00  0.000000000E+00 -2.950014724E+02  2.950014724E+02  0.000000000E+00  0.00000E+00  9.000E+00
      25     1     1     2     0     0 -1.526126930E+02  2.237973876E+01 -1.720660714E+02  2.627227049E+02  1.250000000E+02  0.00000E+00  9.000E+00
      25     1     1     2     0     0  1.481219229E+02 -1.006450248E+01  4.750838912E+01  1.998085215E+02  1.250000000E+02  0.00000E+00  9.000E+00
      21     1     1     2   501   511  4.490770144E+00 -1.231523628E+01  2.802649842E+01  3.094053449E+01  3.371747881E-07  0.00000E+00  9.000E+00
#rwgt            1           1   2.9624390902056215E-002           3      164528           0
</event>
<event>
      5   9999  3.19816E-02  1.32763E+02 -1.00000E+00  1.18534E-01
      21    -1     0     0   502   501  0.000000000E+00  0.000000000E+00  4.362015110E+02  4.362015110E+02  0.000000000E+00  0.00000E+00  9.000E+00
      21    -1     0     0   512   502  0.000000000E+00  0.000000000E+00 -2.231915225E+03  2.231915225E+03  0.000000000E+00  0.00000E+00  9.000E+00
      25     1     1     2     0     0  6.129750448E+02  2.515512653E+01 -8.030329711E+02  1.018262313E+03  1.250000000E+02  0.00000E+00  9.000E+00
      25     1     1     2     0     0 -6.850304826E+02  8.635343197E+01 -5.610444174E+01  7.039150416E+02  1.250000000E+02  0.00000E+00  9.000E+00
      21     1     1     2   512   501  7.205543779E+01 -1.115085585E+02 -9.365763015E+02  9.459393814E+02  1.078959322E-05  0.00000E+00  9.000E+00
#rwgt            1           1   3.1192702348869686E-002           3      164794           0
</event>
<event>
      5   9999  3.19816E-02  1.19053E+02 -1.00000E+00  1.20514E-01
      21    -1     0     0   502   501  0.000000000E+00  0.000000000E+00  2.964393513E+02  2.964393513E+02  0.000000000E+00  0.00000E+00  9.000E+00
      21    -1     0     0   511   502  0.000000000E+00  0.000000000E+00 -5.235535435E+02  5.235535435E+02  0.000000000E+00  0.00000E+00  9.000E+00
      25     1     1     2     0     0 -1.690497016E+02 -7.172660353E+01  1.365296561E+02  2.607448068E+02  1.250000000E+02  0.00000E+00  9.000E+00
      25     1     1     2     0     0  1.964669882E+02  1.875797462E+02 -2.124330268E+02  3.667945331E+02  1.250000000E+02  0.00000E+00  9.000E+00
      21     1     1     2   511   501 -2.741728660E+01 -1.158531427E+02 -1.512108215E+02  1.924535549E+02  3.303624740E-06  0.00000E+00  9.000E+00
#rwgt            1           1   2.8926990695686827E-002           3      164867           0
</event>
<event>
      5   9999  3.19816E-02  3.71107E+01 -1.00000E+00  1.46889E-01
       4    -1     0     0   502     0  0.000000000E+00  0.000000000E+00  2.328519021E+02  2.328519021E+02  0.000000000E+00  0.00000E+00  9.000E+00
      21    -1     0     0   501   502  0.000000000E+00  0.000000000E+00 -2.181926227E+03  2.181926227E+03  0.000000000E+00  0.00000E+00  9.000E+00
      25     1     1     2     0     0 -8.704128127E+01  1.111645755E+02 -5.985467914E+01  1.978416794E+02  1.250000000E+02  0.00000E+00  9.000E+00
      25     1     1     2     0     0  6.001452164E+01 -1.365960218E+02 -2.046297815E+03  2.055533985E+03  1.250000000E+02  0.00000E+00  9.000E+00
       4     1     1     2   501     0  2.702675962E+01  2.543144624E+01  1.570781695E+02  1.614024645E+02  6.031565972E-06  0.00000E+00  9.000E+00
#rwgt            1           1   2.2739370070036204E-002           3      164899           0
</event>
<event>
      5   9999  3.19816E-02  3.40091E+01 -1.00000E+00  1.49350E-01
      21    -1     0     0   502   501  0.000000000E+00  0.000000000E+00  4.882684692E+02  4.882684692E+02  0.000000000E+00  0.00000E+00  9.000E+00
      21    -1     0     0   501   511  0.000000000E+00  0.000000000E+00 -1.773029972E+03  1.773029972E+03  0.000000000E+00  0.00000E+00  9.000E+00
      25     1     1     2     0     0 -8.276984767E+02 -3.355624663E+02 -4.668495804E+02  1.015509955E+03  1.250000000E+02  0.00000E+00  9.000E+00
      25     1     1     2     0     0  8.423613689E+02  3.048766209E+02 -7.756770140E+02  1.191562948E+03  1.250000000E+02  0.00000E+00  9.000E+00
      21     1     1     2   502   511 -1.466289217E+01  3.068584538E+01 -4.223490877E+01  5.422553856E+01  9.536743164E-07  0.00000E+00  9.000E+00
#rwgt            1           1   2.5952007778815844E-002           3      165001           0
</event>
<event>
      5   9999  3.19816E-02  5.24077E+02 -1.00000E+00  9.82752E-02
      21    -1     0     0   512   501  0.000000000E+00  0.000000000E+00  1.344708349E+03  1.344708349E+03  0.000000000E+00  0.00000E+00  9.000E+00
      21    -1     0     0   501   502  0.000000000E+00  0.000000000E+00 -6.380332905E+02  6.380332905E+02  0.000000000E+00  0.00000E+00  9.000E+00
      25     1     1     2     0     0 -9.064920164E+01  2.403439129E+01 -3.628229523E+02  3.950448385E+02  1.250000000E+02  0.00000E+00  9.000E+00
      25     1     1     2     0     0  5.945879040E+02  1.198507002E+02  3.990642819E+02  7.367335115E+02  1.250000000E+02  0.00000E+00  9.000E+00
      21     1     1     2   512   502 -5.039387023E+02 -1.438850915E+02  6.704337292E+02  8.509632898E+02  7.629394531E-06  0.00000E+00  9.000E+00
#rwgt            2          11   1.4649031462322210E-003           3      165153           0
</event>
<event>
      5   9999  3.19816E-02  3.08905E+01 -1.00000E+00  1.52163E-01
      21    -1     0     0   502   501  0.000000000E+00  0.000000000E+00  1.387036176E+03  1.387036176E+03  0.000000000E+00  0.00000E+00  9.000E+00
      21    -1     0     0   511   502  0.000000000E+00  0.000000000E+00 -3.877682129E+02  3.877682129E+02  0.000000000E+00  0.00000E+00  9.000E+00
      25     1     1     2     0     0  4.687754411E+02  3.390905255E+02  9.764677637E+02  1.141861240E+03  1.250000000E+02  0.00000E+00  9.000E+00
      25     1     1     2     0     0 -4.389633461E+02 -3.471815216E+02  6.876616903E+01  5.775617838E+02  1.250000000E+02  0.00000E+00  9.000E+00
      21     1     1     2   511   501 -2.981209506E+01  8.090996037E+00 -4.596596949E+01  5.538136492E+01  0.000000000E+00  0.00000E+00  9.000E+00
#rwgt            1           1   3.5588241610273672E-002           3      165173           0
</event>
<event>
      5   9999  3.19816E-02  1.01904E+01 -1.00000E+00  1.94815E-01
      21    -1     0     0   502   501  0.000000000E+00  0.000000000E+00  1.414796993E+02  1.414796993E+02  0.000000000E+00  0.00000E+00  9.000E+00
      21    -1     0     0   501   512  0.000000000E+00  0.000000000E+00 -9.393435289E+02  9.393435289E+02  0.000000000E+00  0.00000E+00  9.000E+00
      25     1     1     2     0     0  9.999554434E+01  6.730389763E+01 -8.625137125E+02  8.798203384E+02  1.250000000E+02  0.00000E+00  9.000E+00
      25     1     1     2     0     0 -8.980650005E+01 -6.713811476E+01  7.721582861E+01  1.848242898E+02  1.250000000E+02  0.00000E+00  9.000E+00
      21     1     1     2   502   512 -1.018904429E+01 -1.657828641E-01 -1.256594574E+01  1.617860006E+01  0.000000000E+00  0.00000E+00  9.000E+00
#rwgt            1           1   2.7083623889877652E-002           3      165354           0
</event>
<event>
      5   9999  3.19816E-02  8.68418E+00 -1.00000E+00  2.03117E-01
      21    -1     0     0   502   501  0.000000000E+00  0.000000000E+00  1.339554089E+03  1.339554089E+03  0.000000000E+00  0.00000E+00  9.000E+00
      21    -1     0     0   501   511  0.000000000E+00  0.000000000E+00 -3.029477451E+01  3.029477451E+01  0.000000000E+00  0.00000E+00  9.000E+00
      25     1     1     2     0     0 -3.685836773E+00 -1.109457679E+02  1.024749362E+03  1.038296106E+03  1.250000000E+02  0.00000E+00  9.000E+00
      25     1     1     2     0     0  3.289618029E+00  1.022706302E+02  2.690029627E+02  3.137796955E+02  1.250000000E+02  0.00000E+00  9.000E+00
      21     1     1     2   502   511  3.962187439E-01  8.675137680E+00  1.550699055E+01  1.777306274E+01  2.920019320E-07  0.00000E+00  9.000E+00
#rwgt            1           1   3.6853647574395312E-002           3      165667           0
</event>
<event>
      5   9999  3.19816E-02  3.06902E+01 -1.00000E+00  1.52357E-01
      21    -1     0     0   502   501  0.000000000E+00  0.000000000E+00  8.727497592E+02  8.727497592E+02  0.000000000E+00  0.00000E+00  9.000E+00
      21    -1     0     0   512   502  0.000000000E+00  0.000000000E+00 -2.984962101E+02  2.984962101E+02  0.000000000E+00  0.00000E+00  9.000E+00
      25     1     1     2     0     0 -2.381029411E+01  1.449503566E+02  5.300691228E+02  5.640707499E+02  1.250000000E+02  0.00000E+00  9.000E+00
      25     1     1     2     0     0 -4.372939256E+00 -1.328015552E+02  2.991403231E+02  3.503788073E+02  1.250000000E+02  0.00000E+00  9.000E+00
      21     1     1     2   512   501  2.818323337E+01 -1.214880136E+01 -2.549558968E+02  2.567964122E+02  0.000000000E+00  0.00000E+00  9.000E+00
#rwgt            1           1   3.2488742008003585E-002           3      165896           0
</event>
<event>
      5   9999  3.19816E-02  2.07896E+01 -1.00000E+00  1.64993E-01
      21    -1     0     0   502   501  0.000000000E+00  0.000000000E+00  1.437520765E+03  1.437520765E+03  0.000000000E+00  0.00000E+00  9.000E+00
      21    -1     0     0   511   502  0.000000000E+00  0.000000000E+00 -5.697333638E+02  5.697333638E+02  0.000000000E+00  0.00000E+00  9.000E+00
      25     1     1     2     0     0  2.273325740E+02  2.897478985E+02  4.149915077E+02  5.687502926E+02  1.250000000E+02  0.00000E+00  9.000E+00
      25     1     1     2     0     0 -2.365794280E+02 -2.711279303E+02  9.070412383E+02  9.837829986E+02  1.250000000E+02  0.00000E+00  9.000E+00
      21     1     1     2   511   501  9.246854003E+00 -1.861996820E+01 -4.542453445E+02  4.547208380E+02  7.629394531E-06  0.00000E+00  9.000E+00
#rwgt            1           1   3.2234609654443337E-002           3      165993           0
</event>
<event>
      5   9999  3.19816E-02  4.65976E+01 -1.00000E+00  1.40845E-01
      21    -1     0     0   502   501  0.000000000E+00  0.000000000E+00  1.224140095E+03  1.224140095E+03  0.000000000E+00  0.00000E+00  9.000E+00
      21    -1     0     0   512   502  0.000000000E+00  0.000000000E+00 -2.208359850E+02  2.208359850E+02  0.000000000E+00  0.00000E+00  9.000E+00
      25     1     1     2     0     0  1.097111094E+02  3.296851736E+02  9.257767609E+02  9.967027904E+02  1.250000000E+02  0.00000E+00  9.000E+00
      25     1     1     2     0     0 -6.725491272E+01 -3.488895099E+02  1.089154151E+02  3.920901441E+02  1.250000000E+02  0.00000E+00  9.000E+00
      21     1     1     2   512   501 -4.245619667E+01  1.920433636E+01 -3.138806601E+01  5.618314568E+01  1.168007728E-06  0.00000E+00  9.000E+00
#rwgt            1           1   2.8894072417527509E-002           3      166202           0
</event>
<event>
      5   9999  3.19816E-02  4.72413E+01 -1.00000E+00  1.40497E-01
      21    -1     0     0   502   501  0.000000000E+00  0.000000000E+00  5.934861461E+02  5.934861461E+02  0.000000000E+00  0.00000E+00  9.000E+00
      21    -1     0     0   501   511  0.000000000E+00  0.000000000E+00 -1.375969977E+03  1.375969977E+03  0.000000000E+00  0.00000E+00  9.000E+00
      25     1     1     2     0     0 -3.913540194E+02 -9.809793781E+01  2.121310785E+02  4.726581940E+02  1.250000000E+02  0.00000E+00  9.000E+00
      25     1     1     2     0     0  3.446785832E+02  1.053879288E+02  1.053890757E+02  3.957799876E+02  1.250000000E+02  0.00000E+00  9.000E+00
      21     1     1     2   502   511  4.667543616E+01 -7.289991022E+00 -1.100003985E+03  1.101017942E+03  1.525878906E-05  0.00000E+00  9.000E+00
#rwgt            1           1   2.3312866248140687E-002           3      166322           0
</event>
<event>
      5   9999  3.19816E-02  3.66942E+01 -1.00000E+00  1.47202E-01
      21    -1     0     0   502   501  0.000000000E+00  0.000000000E+00  1.335964796E+03  1.335964796E+03  0.000000000E+00  0.00000E+00  9.000E+00
       1    -1     0     0   501     0  0.000000000E+00  0.000000000E+00 -2.264078608E+03  2.264078608E+03  0.000000000E+00  0.00000E+00  9.000E+00
      25     1     1     2     0     0  6.718808430E+02 -1.248278715E+02  2.497469306E+02  7.382441291E+02  1.250000000E+02  0.00000E+00  9.000E+00
      25     1     1     2     0     0 -6.635485769E+02  1.605635674E+02  6.987309415E+02  9.848488726E+02  1.250000000E+02  0.00000E+00  9.000E+00
       1     1     1     2   502     0 -8.332266100E+00 -3.573569596E+01 -1.876591683E+03  1.876950402E+03  2.157918644E-05  0.00000E+00  9.000E+00
#rwgt            1           1   2.9868741993319840E-002           3      166459           0
</event>
<event>
      5   9999  3.19816E-02  3.92358E+01 -1.00000E+00  1.45362E-01
      21    -1     0     0   511   501  0.000000000E+00  0.000000000E+00  1.012759654E+03  1.012759654E+03  0.000000000E+00  0.00000E+00  9.000E+00
      21    -1     0     0   501   502  0.000000000E+00  0.000000000E+00 -2.136261140E+02  2.136261140E+02  0.000000000E+00  0.00000E+00  9.000E+00
      25     1     1     2     0     0 -8.254632318E+01 -1.359493279E+02  7.279993168E+02  7.555819747E+02  1.250000000E+02  0.00000E+00  9.000E+00
      25     1     1     2     0     0  9.227069759E+01  1.739610140E+02 -1.292197942E+02  2.666440910E+02  1.250000000E+02  0.00000E+00  9.000E+00
      21     1     1     2   511   502 -9.724374413E+00 -3.801168606E+01  2.003540177E+02  2.041597025E+02  3.814697266E-06  0.00000E+00  9.000E+00
#rwgt            2          11   1.5912274264299688E-003           3      166665           0
</event>
<event>
      5   9999  3.19816E-02  7.36289E+01 -1.00000E+00  1.30119E-01
      21    -1     0     0   512   501  0.000000000E+00  0.000000000E+00  3.050839315E+02  3.050839315E+02  0.000000000E+00  0.00000E+00  9.000E+00
      21    -1     0     0   501   502  0.000000000E+00  0.000000000E+00 -7.270805674E+02  7.270805674E+02  0.000000000E+00  0.00000E+00  9.000E+00
      25     1     1     2     0     0 -4.284579538E+02  1.109127422E+02 -2.316436881E+02  5.149384942E+02  1.250000000E+02  0.00000E+00  9.000E+00
      25     1     1     2     0     0  3.557526659E+02 -9.928681060E+01 -2.073944669E+02  4.416506480E+02  1.250000000E+02  0.00000E+00  9.000E+00
      21     1     1     2   512   502  7.270528790E+01 -1.162593163E+01  1.704151914E+01  7.557535676E+01  1.369610464E-06  0.00000E+00  9.000E+00
#rwgt            1           1   2.7423452347456113E-002           3      166715           0
</event>
<event>
      5   9999  3.19816E-02  5.09865E+01 -1.00000E+00  1.38593E-01
      21    -1     0     0   502   511  0.000000000E+00  0.000000000E+00  2.189272660E+02  2.189272660E+02  0.000000000E+00  0.00000E+00  9.000E+00
      21    -1     0     0   501   502  0.000000000E+00  0.000000000E+00 -2.043651819E+02  2.043651819E+02  0.000000000E+00  0.00000E+00  9.000E+00
      25     1     1     2     0     0  1.134652806E+02  1.090997891E+02  1.282388720E+01  2.014114842E+02  1.250000000E+02  0.00000E+00  9.000E+00
      25     1     1     2     0     0 -7.429956937E+01 -7.645524063E+01 -2.179009548E+01  1.657276021E+02  1.250000000E+02  0.00000E+00  9.000E+00
      21     1     1     2   501   511 -3.916571122E+01 -3.264454848E+01  2.352829242E+01  5.615336166E+01  8.920806376E-07  0.00000E+00  9.000E+00
#rwgt            1           1   2.4365207924101732E-002           3      166834           0
</event>
<event>
      5   9999  3.19816E-02  5.06551E+01 -1.00000E+00  1.38754E-01
      21    -1     0     0   502   501  0.000000000E+00  0.000000000E+00  1.332497896E+03  1.332497896E+03  0.000000000E+00  0.00000E+00  9.000E+00
      21    -1     0     0   501   512  0.000000000E+00  0.000000000E+00 -3.061220566E+02  3.061220566E+02  0.000000000E+00  0.00000E+00  9.000E+00
      25     1     1     2     0     0  8.040227554E+01  3.732444643E+01 -1.628720709E+02  2.236290493E+02  1.250000000E+02  0.00000E+00  9.000E+00
      25     1     1     2     0     0 -7.582373899E+01  1.312331955E+01  1.292063205E+03  1.300374479E+03  1.250000000E+02  0.00000E+00  9.000E+00
      21     1     1     2   502   512 -4.578536554E+00 -5.044776598E+01 -1.028152940E+02  1.146164245E+02  1.907348633E-06  0.00000E+00  9.000E+00
#rwgt            1           1   2.8795091148432015E-002           3      166938           0
</event>
<event>
      5   9999  3.19816E-02  2.36007E+02 -1.00000E+00  1.09092E-01
      21    -1     0     0   502   501  0.000000000E+00  0.000000000E+00  2.527068263E+02  2.527068263E+02  0.000000000E+00  0.00000E+00  9.000E+00
      -3    -1     0     0     0   502  0.000000000E+00  0.000000000E+00 -8.857570818E+02  8.857570818E+02  0.000000000E+00  0.00000E+00  9.000E+00
      25     1     1     2     0     0  1.408003123E+02 -1.798551005E+01  1.139043355E+02  2.207881432E+02  1.250000000E+02  0.00000E+00  9.000E+00
      25     1     1     2     0     0  2.899180555E+01  1.819057267E+02 -1.315627614E+02  2.585806999E+02  1.250000000E+02  0.00000E+00  9.000E+00
      -3     1     1     2     0   501 -1.697921179E+02 -1.639202166E+02 -6.153918296E+02  6.590950650E+02  1.321449896E-05  0.00000E+00  9.000E+00
#rwgt            1           1   3.5874100545902246E-002           3      167071           0
</event>
<event>
      5   9999  3.19816E-02  5.95814E+01 -1.00000E+00  1.34866E-01
      21    -1     0     0   502   511  0.000000000E+00  0.000000000E+00  9.385450253E+02  9.385450253E+02  0.000000000E+00  0.00000E+00  9.000E+00
      21    -1     0     0   501   502  0.000000000E+00  0.000000000E+00 -7.205374274E+01  7.205374274E+01  0.000000000E+00  0.00000E+00  9.000E+00
      25     1     1     2     0     0 -1.201102968E+01 -1.284612829E+02  9.854621465E+01  2.048973461E+02  1.250000000E+02  0.00000E+00  9.000E+00
      25     1     1     2     0     0  6.574910494E+01  1.027287585E+02  6.564540360E+02  6.792886308E+02  1.250000000E+02  0.00000E+00  9.000E+00
      21     1     1     2   501   511 -5.373807526E+01  2.573252438E+01  1.114910319E+02  1.264127910E+02  1.348699152E-06  0.00000E+00  9.000E+00
#rwgt            1           1   2.6589900966102715E-002           3      167106           0
</event>
<event>
      5   9999  3.19816E-02  2.08643E+01 -1.00000E+00  1.64867E-01
      21    -1     0     0   512   501  0.000000000E+00  0.000000000E+00  1.409745647E+02  1.409745647E+02  0.000000000E+00  0.00000E+00  9.000E+00
      21    -1     0     0   501   502  0.000000000E+00  0.000000000E+00 -1.365287922E+03  1.365287922E+03  0.000000000E+00  0.00000E+00  9.000E+00
      25     1     1     2     0     0  4.091314797E+02 -4.934843448E+01 -6.408563499E+02  7.721047188E+02  1.250000000E+02  0.00000E+00  9.000E+00
      25     1     1     2     0     0 -4.047829370E+02  2.894228426E+01 -5.594676154E+02  7.023645026E+02  1.250000000E+02  0.00000E+00  9.000E+00
      21     1     1     2   512   502 -4.348542717E+00  2.040615023E+01 -2.398939242E+01  3.179326563E+01  5.840038640E-07  0.00000E+00  9.000E+00
#rwgt            1           1   2.8902602349175091E-002           3      167168           0
</event>
<event>
      5   9999  3.19816E-02  3.42837E+01 -1.00000E+00  1.49120E-01
      21    -1     0     0   502   501  0.000000000E+00  0.000000000E+00  4.302698312E+02  4.302698312E+02  0.000000000E+00  0.00000E+00  9.000E+00
      21    -1     0     0   501   511  0.000000000E+00  0.000000000E+00 -3.038881889E+02  3.038881889E+02  0.000000000E+00  0.00000E+00  9.000E+00
      25     1     1     2     0     0 -9.036671639E+01 -1.337806928E+02  2.426655495E+01  2.056144034E+02  1.250000000E+02  0.00000E+00  9.000E+00
      25     1     1     2     0     0  1.234176452E+02  1.428916013E+02  2.727514627E+02  3.544972289E+02  1.250000000E+02  0.00000E+00  9.000E+00
      21     1     1     2   502   511 -3.305092876E+01 -9.110908514E+00 -1.706363753E+02  1.740463879E+02  0.000000000E+00  0.00000E+00  9.000E+00
#rwgt            1           1   2.4631541956807456E-002           3      167364           0
</event>
<event>
      5   9999  3.19816E-02  4.27202E+01 -1.00000E+00  1.43090E-01
      21    -1     0     0   502   501  0.000000000E+00  0.000000000E+00  5.679849543E+01  5.679849543E+01  0.000000000E+00  0.00000E+00  9.000E+00
       2    -1     0     0   501     0  0.000000000E+00  0.000000000E+00 -2.510720370E+03  2.510720370E+03  0.000000000E+00  0.00000E+00  9.000E+00
      25     1     1     2     0     0  8.925121243E+00 -1.643476598E+02 -1.608013658E+02  2.618623500E+02  1.250000000E+02  0.00000E+00  9.000E+00
      25     1     1     2     0     0  1.043384918E+01  1.262655692E+02 -1.365135521E+03  1.376688727E+03  1.250000000E+02  0.00000E+00  9.000E+00
       2     1     1     2   502     0 -1.935897043E+01  3.808209056E+01 -9.279849877E+02  9.289677889E+02  1.078959322E-05  0.00000E+00  9.000E+00
#rwgt            1           1   3.1053734728451150E-002           3      167512           0
</event>
<event>
      5   9999  3.22814E-02  3.61442E+01 -1.00000E+00  1.47624E-01
      21    -1     0     0   511   501  0.000000000E+00  0.000000000E+00  6.162606516E+02  6.162606516E+02  0.000000000E+00  0.00000E+00  9.000E+00
      21    -1     0     0   501   502  0.000000000E+00  0.000000000E+00 -1.987966255E+02  1.987966255E+02  0.000000000E+00  0.00000E+00  9.000E+00
      25     1     1     2     0     0 -5.800113697E+01  1.449870995E+02  4.479019394E+02  4.905369897E+02  1.250000000E+02  0.00000E+00  9.000E+00
      25     1     1     2     0     0  9.397367470E+01 -1.485060501E+02 -1.063380046E+02  2.404534667E+02  1.250000000E+02  0.00000E+00  9.000E+00
      21     1     1     2   511   502 -3.597253773E+01  3.518950571E+00  7.590009129E+01  8.406682069E+01  1.651812370E-06  0.00000E+00  9.000E+00
#rwgt            1           1   2.8749935727710382E-002           3      167636           0
</event>
<event>
      5   9999  3.19816E-02  1.52736E+02 -1.00000E+00  1.16083E-01
      21    -1     0     0   502   501  0.000000000E+00  0.000000000E+00  4.701983573E+02  4.701983573E+02  0.000000000E+00  0.00000E+00  9.000E+00
      21    -1     0     0   512   502  0.000000000E+00  0.000000000E+00 -1.434456443E+03  1.434456443E+03  0.000000000E+00  0.00000E+00  9.000E+00
      25     1     1     2     0     0 -4.552633503E+02  2.793750280E+02 -4.312238112E+02  6.977779731E+02  1.250000000E+02  0.00000E+00  9.000E+00
      25     1     1     2     0     0  5.093471753E+02 -1.365349974E+02  1.039632819E+02  5.518239887E+02  1.250000000E+02  0.00000E+00  9.000E+00
      21     1     1     2   512   501 -5.408382502E+01 -1.428400306E+02 -6.369975560E+02  6.550528382E+02  0.000000000E+00  0.00000E+00  9.000E+00
#rwgt            1           1   2.3653093654687103E-002           3      167724           0
</event>
<event>
      5   9999  3.19816E-02  8.63959E+01 -1.00000E+00  1.26753E-01
      21    -1     0     0   502   501  0.000000000E+00  0.000000000E+00  1.433119215E+02  1.433119215E+02  0.000000000E+00  0.00000E+00  9.000E+00
      21    -1     0     0   511   502  0.000000000E+00  0.000000000E+00 -1.018972369E+03  1.018972369E+03  0.000000000E+00  0.00000E+00  9.000E+00
      25     1     1     2     0     0  1.523641413E+02 -2.589523842E+02 -6.304618354E+02  7.094915748E+02  1.250000000E+02  0.00000E+00  9.000E+00
      25     1     1     2     0     0 -8.886633612E+01  2.003666985E+02 -7.718700873E+01  2.638690469E+02  1.250000000E+02  0.00000E+00  9.000E+00
      21     1     1     2   511   501 -6.349780516E+01  5.858568564E+01 -1.680116036E+02  1.889236691E+02  1.907348633E-06  0.00000E+00  9.000E+00
#rwgt            1           1   2.9786539271851042E-002           3      167825           0
</event>
<event>
      5   9999  3.19816E-02  3.25285E+01 -1.00000E+00  1.50638E-01
      21    -1     0     0   502   512  0.000000000E+00  0.000000000E+00  1.595231030E+02  1.595231030E+02  0.000000000E+00  0.00000E+00  9.000E+00
      21    -1     0     0   501   502  0.000000000E+00  0.000000000E+00 -3.205371096E+03  3.205371096E+03  0.000000000E+00  0.00000E+00  9.000E+00
      25     1     1     2     0     0  2.069663480E+02 -2.689037649E+01 -2.813053934E+03  2.823553718E+03  1.250000000E+02  0.00000E+00  9.000E+00
      25     1     1     2     0     0 -1.889550673E+02  5.397726934E+01 -3.496084153E+02  4.200816672E+02  1.250000000E+02  0.00000E+00  9.000E+00
      21     1     1     2   501   512 -1.801128064E+01 -2.708689285E+01  1.168143566E+02  1.212588138E+02  6.468133910E-06  0.00000E+00  9.000E+00
#rwgt            1           1   2.8089658658562524E-002           3      167891           0
</event>
<event>
      5   9999  3.19816E-02  2.25807E+01 -1.00000E+00  1.62134E-01
      21    -1     0     0   502   501  0.000000000E+00  0.000000000E+00  7.833807525E+01  7.833807525E+01  0.000000000E+00  0.00000E+00  9.000E+00
      21    -1     0     0   511   502  0.000000000E+00  0.000000000E+00 -8.063043614E+02  8.063043614E+02  0.000000000E+00  0.00000E+00  9.000E+00
      25     1     1     2     0     0 -1.523629226E+01 -1.216666778E+02 -6.034254851E+01  1.852056917E+02  1.250000000E+02  0.00000E+00  9.000E+00
      25     1     1     2     0     0  3.750414267E+01  1.254125429E+02 -5.320108877E+02  5.619568055E+02  1.250000000E+02  0.00000E+00  9.000E+00
      21     1     1     2   511   501 -2.226785041E+01 -3.745865131E+00 -1.356128499E+02  1.374799394E+02  0.000000000E+00  0.00000E+00  9.000E+00
#rwgt            1           1   3.2548339139509434E-002           3      167983           0
</event>
<event>
      5   9999  3.19816E-02  1.30955E+02 -1.00000E+00  1.18780E-01
      21    -1     0     0   502   512  0.000000000E+00  0.000000000E+00  1.862940916E+02  1.862940916E+02  0.000000000E+00  0.00000E+00  9.000E+00
      21    -1     0     0   501   502  0.000000000E+00  0.000000000E+00 -8.601596760E+02  8.601596760E+02  0.000000000E+00  0.00000E+00  9.000E+00
      25     1     1     2     0     0 -9.215442758E+01 -1.380683991E+02 -3.284109808E+02  3.886310509E+02  1.250000000E+02  0.00000E+00  9.000E+00
      25     1     1     2     0     0  2.003745339E+02  6.432773205E+01 -4.350294425E+02  4.991629261E+02  1.250000000E+02  0.00000E+00  9.000E+00
      21     1     1     2   501   512 -1.082201063E+02  7.374066710E+01  8.957483886E+01  1.586597906E+02  2.523185073E-06  0.00000E+00  9.000E+00
#rwgt            2          11   4.3134567548730489E-003           3      168161           0
</event>
<event>
      5   9999  3.19816E-02  9.44450E+01 -1.00000E+00  1.24955E-01
      21    -1     0     0   502   501  0.000000000E+00  0.000000000E+00  4.332574202E+02  4.332574202E+02  0.000000000E+00  0.00000E+00  9.000E+00
      21    -1     0     0   501   511  0.000000000E+00  0.000000000E+00 -3.240193865E+02  3.240193865E+02  0.000000000E+00  0.00000E+00  9.000E+00
      25     1     1     2     0     0  1.770806934E+02 -1.195732831E+01 -1.984124665E+02  2.940970189E+02  1.250000000E+02  0.00000E+00  9.000E+00
      25     1     1     2     0     0 -1.256493233E+02 -6.725544073E+01  3.158589750E+02  3.683787981E+02  1.250000000E+02  0.00000E+00  9.000E+00
      21     1     1     2   502   511 -5.143137005E+01  7.921276904E+01 -8.208474845E+00  9.480098978E+01  1.079486029E-06  0.00000E+00  9.000E+00
#rwgt            2          11   3.3409364214265838E-003           3      168181           0
</event>
<event>
      5   9999  3.19816E-02  1.14311E+02 -1.00000E+00  1.21270E-01
      21    -1     0     0   502   501  0.000000000E+00  0.000000000E+00  6.565668353E+02  6.565668353E+02  0.000000000E+00  0.00000E+00  9.000E+00
      21    -1     0     0   501   512  0.000000000E+00  0.000000000E+00 -6.760401024E+02  6.760401024E+02  0.000000000E+00  0.00000E+00  9.000E+00
      25     1     1     2     0     0  3.004406647E+02 -1.706280542E+02  4.005744197E+02  5.435654437E+02  1.250000000E+02  0.00000E+00  9.000E+00
      25     1     1     2     0     0 -1.866190626E+02  1.811949166E+02  6.068929150E+01  2.949007671E+02  1.250000000E+02  0.00000E+00  9.000E+00
      21     1     1     2   502   512 -1.138216021E+02 -1.056686241E+01 -4.807369783E+02  4.941407269E+02  7.629394531E-06  0.00000E+00  9.000E+00
#rwgt            2          11   4.4904838874492000E-003           3      168201           0
</event>
<event>
      5   9999  3.19816E-02  3.03707E+02 -1.00000E+00  1.05419E-01
      21    -1     0     0   502   511  0.000000000E+00  0.000000000E+00  1.606120157E+03  1.606120157E+03  0.000000000E+00  0.00000E+00  9.000E+00
      21    -1     0     0   501   502  0.000000000E+00  0.000000000E+00 -2.503806453E+02  2.503806453E+02  0.000000000E+00  0.00000E+00  9.000E+00
      25     1     1     2     0     0 -4.478568898E+01  4.891811787E+02  5.503498080E+02  7.482071202E+02  1.250000000E+02  0.00000E+00  9.000E+00
      25     1     1     2     0     0  2.989033511E+02 -3.228618158E+02  4.698801353E+02  6.557402740E+02  1.250000000E+02  0.00000E+00  9.000E+00
      21     1     1     2   501   511 -2.541176621E+02 -1.663193629E+02  3.355095683E+02  4.525534080E+02  7.629394531E-06  0.00000E+00  9.000E+00
#rwgt            2          11   2.9177176792830294E-003           3      168221           0
</event>
<event>
      5   9999  3.19816E-02  5.22169E+00 -1.00000E+00  2.35271E-01
      21    -1     0     0   502   501  0.000000000E+00  0.000000000E+00  9.342001994E+01  9.342001994E+01  0.000000000E+00  0.00000E+00  9.000E+00
      21    -1     0     0   512   502  0.000000000E+00  0.000000000E+00 -7.017635658E+02  7.017635658E+02  0.000000000E+00  0.00000E+00  9.000E+00
      25     1     1     2     0     0  2.110837749E+02 -4.094091796E+01 -2.690985618E+02  3.664308321E+02  1.250000000E+02  0.00000E+00  9.000E+00
      25     1     1     2     0     0 -2.107268209E+02  3.573144610E+01 -2.991876255E+02  3.883564915E+02  1.250000000E+02  0.00000E+00  9.000E+00
      21     1     1     2   512   501 -3.569540364E-01  5.209471851E+00 -4.005735859E+01  4.039626208E+01  4.768371582E-07  0.00000E+00  9.000E+00
#rwgt            1           1   2.9080403829061564E-002           3      168271           0
</event>
<event>
      5   9999  3.19816E-02  4.28187E+01 -1.00000E+00  1.43030E-01
      21    -1     0     0   502   501  0.000000000E+00  0.000000000E+00  2.580982128E+03  2.580982128E+03  0.000000000E+00  0.00000E+00  9.000E+00
      21    -1     0     0   511   502  0.000000000E+00  0.000000000E+00 -5.501048934E+01  5.501048934E+01  0.000000000E+00  0.00000E+00  9.000E+00
      25     1     1     2     0     0 -3.986875581E+01  3.191054808E+02  1.314897739E+03  1.359411229E+03  1.250000000E+02  0.00000E+00  9.000E+00
      25     1     1     2     0     0  8.253147624E+01 -3.227571328E+02  1.132701704E+03  1.187274931E+03  1.250000000E+02  0.00000E+00  9.000E+00
      21     1     1     2   511   501 -4.266272043E+01  3.651651968E+00  7.837219553E+01  8.930645726E+01  9.536743164E-07  0.00000E+00  9.000E+00
#rwgt            1           1   6.4858555404310000E-002           3      168532           0
</event>
<event>
      5   9999  3.19816E-02  8.48580E+00 -1.00000E+00  2.04378E-01
      21    -1     0     0   512   501  0.000000000E+00  0.000000000E+00  6.776528363E+02  6.776528363E+02  0.000000000E+00  0.00000E+00  9.000E+00
      21    -1     0     0   501   502  0.000000000E+00  0.000000000E+00 -9.167473512E+01  9.167473512E+01  0.000000000E+00  0.00000E+00  9.000E+00
      25     1     1     2     0     0 -3.274258838E+01 -4.645725855E+01  2.736119641E+02  3.061353636E+02  1.250000000E+02  0.00000E+00  9.000E+00
      25     1     1     2     0     0  2.592630893E+01  4.140284877E+01 -1.560559961E+01  1.351107106E+02  1.250000000E+02  0.00000E+00  9.000E+00
      21     1     1     2   512   502  6.816279446E+00  5.054409781E+00  3.279717367E+02  3.280814972E+02  0.000000000E+00  0.00000E+00  9.000E+00
#rwgt            1           1   3.1706209786394920E-002           3      168623           0
</event>
<event>
      5   9999  3.19816E-02  4.95805E+01 -1.00000E+00  1.39285E-01
      21    -1     0     0   502   501  0.000000000E+00  0.000000000E+00  6.382666143E+01  6.382666143E+01  0.000000000E+00  0.00000E+00  9.000E+00
       2    -1     0     0   501     0  0.000000000E+00  0.000000000E+00 -1.224500789E+03  1.224500789E+03  0.000000000E+00  0.00000E+00  9.000E+00
      25     1     1     2     0     0 -1.230737544E+02  7.260547781E+01 -4.724198514E+02  5.091406686E+02  1.250000000E+02  0.00000E+00  9.000E+00
      25     1     1     2     0     0  7.616145391E+01 -5.655991462E+01 -9.411317173E+01  1.829805457E+02  1.250000000E+02  0.00000E+00  9.000E+00
       2     1     1     2   502     0  4.691230050E+01 -1.604556319E+01 -5.941411044E+02  5.962062362E+02  7.629394531E-06  0.00000E+00  9.000E+00
#rwgt            1           1   2.6598269013118930E-002           3      168824           0
</event>
<event>
      5   9999  3.19816E-02  4.94477E+01 -1.00000E+00  1.39351E-01
      21    -1     0     0   502   511  0.000000000E+00  0.000000000E+00  4.968191216E+02  4.968191216E+02  0.000000000E+00  0.00000E+00  9.000E+00
      21    -1     0     0   501   502  0.000000000E+00  0.000000000E+00 -3.440517099E+02  3.440517099E+02  0.000000000E+00  0.00000E+00  9.000E+00
      25     1     1     2     0     0 -1.223041433E+02  3.001033481E+02 -6.274325742E+01  3.529618101E+02  1.250000000E+02  0.00000E+00  9.000E+00
      25     1     1     2     0     0  1.716635743E+02 -2.971503701E+02  1.272877874E+02  3.867737142E+02  1.250000000E+02  0.00000E+00  9.000E+00
      21     1     1     2   501   511 -4.935943096E+01 -2.952978012E+00  8.822288167E+01  1.011353072E+02  0.000000000E+00  0.00000E+00  9.000E+00
#rwgt            2          11   2.3854488338662873E-003           3      168905           0
</event>
<event>
      5   9999  3.19816E-02  4.93402E+01 -1.00000E+00  1.39405E-01
      21    -1     0     0   512   501  0.000000000E+00  0.000000000E+00  1.112816050E+02  1.112816050E+02  0.000000000E+00  0.00000E+00  9.000E+00
      21    -1     0     0   501   502  0.000000000E+00  0.000000000E+00 -1.303910664E+03  1.303910664E+03  0.000000000E+00  0.00000E+00  9.000E+00
      25     1     1     2     0     0 -2.620017823E+02 -5.317363096E+00 -8.056551632E+02  8.563751808E+02  1.250000000E+02  0.00000E+00  9.000E+00
      25     1     1     2     0     0  2.988240284E+02  3.815903303E+01 -3.911635438E+02  5.092993518E+02  1.250000000E+02  0.00000E+00  9.000E+00
      21     1     1     2   512   502 -3.682224609E+01 -3.284166994E+01  4.189647799E+00  4.951773662E+01  4.693274423E-07  0.00000E+00  9.000E+00
#rwgt            1           1   2.4887257563168189E-002           3      168925           0
</event>
<event>
      5   9999  3.19816E-02  3.69104E+01 -1.00000E+00  1.47039E-01
      21    -1     0     0   502   501  0.000000000E+00  0.000000000E+00  2.204907916E+02  2.204907916E+02  0.000000000E+00  0.00000E+00  9.000E+00
      21    -1     0     0   511   502  0.000000000E+00  0.000000000E+00 -1.838501721E+03  1.838501721E+03  0.000000000E+00  0.00000E+00  9.000E+00
      25     1     1     2     0     0  1.670469257E+02 -2.941177006E+02  3.781768249E+01  3.625811279E+02  1.250000000E+02  0.00000E+00  9.000E+00
      25     1     1     2     0     0 -1.670274550E+02  2.572072582E+02 -1.519732240E+03  1.555398607E+03  1.250000000E+02  0.00000E+00  9.000E+00
      21     1     1     2   511   501 -1.947064417E-02  3.691044238E+01 -1.360963715E+02  1.410127777E+02  1.907348633E-06  0.00000E+00  9.000E+00
#rwgt            1           1   3.5742351077574341E-002           3      169077           0
</event>
<event>
      5   9999  3.19816E-02  9.77839E+01 -1.00000E+00  1.24267E-01
      21    -1     0     0   502   512  0.000000000E+00  0.000000000E+00  1.419629838E+03  1.419629838E+03  0.000000000E+00  0.00000E+00  9.000E+00
      21    -1     0     0   501   502  0.000000000E+00  0.000000000E+00 -9.842113449E+01  9.842113449E+01  0.000000000E+00  0.00000E+00  9.000E+00
      25     1     1     2     0     0 -1.117903595E+02  8.869511380E+01  9.344810129E+02  9.535426950E+02  1.250000000E+02  0.00000E+00  9.000E+00
      25     1     1     2     0     0  1.814749200E+02 -1.572936014E+02  1.526047461E+02  3.107855083E+02  1.250000000E+02  0.00000E+00  9.000E+00
      21     1     1     2   501   512 -6.968456057E+01  6.859848757E+01  2.341229449E+02  2.537227696E+02  4.672030912E-06  0.00000E+00  9.000E+00
#rwgt            1           1   2.7759498106861180E-002           3      169202           0
</event>
<event>
      5   9999  3.19816E-02  3.58241E+02 -1.00000E+00  1.03147E-01
      21    -1     0     0   511   501  0.000000000E+00  0.000000000E+00  1.087289101E+03  1.087289101E+03  0.000000000E+00  0.00000E+00  9.000E+00
      21    -1     0     0   501   502  0.000000000E+00  0.000000000E+00 -3.381592144E+02  3.381592144E+02  0.000000000E+00  0.00000E+00  9.000E+00
      25     1     1     2     0     0 -8.490193621E+01 -1.652727710E+02  2.573545283E+02  3.411448092E+02  1.250000000E+02  0.00000E+00  9.000E+00
      25     1     1     2     0     0  2.728407952E+02  4.702571200E+02  1.251806693E+02  5.717333805E+02  1.250000000E+02  0.00000E+00  9.000E+00
      21     1     1     2   511   502 -1.879388589E+02 -3.049843490E+02  3.665946888E+02  5.125701256E+02  5.394796609E-06  0.00000E+00  9.000E+00
#rwgt            2          11   2.6507203570910153E-003           3      169289           0
</event>
<event>
      5   9999  3.19816E-02  3.52735E+01 -1.00000E+00  1.48310E-01
      21    -1     0     0   502   501  0.000000000E+00  0.000000000E+00  1.708124006E+02  1.708124006E+02  0.000000000E+00  0.00000E+00  9.000E+00
      21    -1     0     0   501   512  0.000000000E+00  0.000000000E+00 -3.541945206E+02  3.541945206E+02  0.000000000E+00  0.00000E+00  9.000E+00
      25     1     1     2     0     0  1.071698126E+02  8.704145750E+01 -2.262080271E+01  1.876120592E+02  1.250000000E+02  0.00000E+00  9.000E+00
      25     1     1     2     0     0 -8.844108628E+01 -5.715071876E+01  9.308030343E+00  1.637060470E+02  1.250000000E+02  0.00000E+00  9.000E+00
      21     1     1     2   502   512 -1.872872632E+01 -2.989073874E+01 -1.700693476E+02  1.736888150E+02  2.697398305E-06  0.00000E+00  9.000E+00
#rwgt            1           1   2.4810482250446485E-002           3      169309           0
</event>
<event>
      5   9999  3.19816E-02  2.01192E+02 -1.00000E+00  1.11554E-01
      21    -1     0     0   502   501  0.000000000E+00  0.000000000E+00  1.726651488E+03  1.726651488E+03  0.000000000E+00  0.00000E+00  9.000E+00
      21    -1     0     0   511   502  0.000000000E+00  0.000000000E+00 -2.832166220E+02  2.832166220E+02  0.000000000E+00  0.00000E+00  9.000E+00
      25     1     1     2     0     0 -4.987179381E+02  6.730318782E+01  1.016052667E+02  5.283918348E+02  1.250000000E+02  0.00000E+00  9.000E+00
      25     1     1     2     0     0  3.256477834E+02  3.528742024E+01  1.154556068E+03  1.206613606E+03  1.250000000E+02  0.00000E+00  9.000E+00
      21     1     1     2   511   501  1.730701547E+02 -1.025906081E+02  1.872735319E+02  2.748626694E+02  6.031565972E-06  0.00000E+00  9.000E+00
#rwgt            2          11   5.0445637464922406E-003           3      169378           0
</event>
<event>
      5   9999  3.19816E-02  1.24031E+02 -1.00000E+00  1.19762E-01
      21    -1     0     0   502   501  0.000000000E+00  0.000000000E+00  5.331812154E+02  5.331812154E+02  0.000000000E+00  0.00000E+00  9.000E+00
      21    -1     0     0   501   512  0.000000000E+00  0.000000000E+00 -6.226856021E+02  6.226856021E+02  0.000000000E+00  0.00000E+00  9.000E+00
      25     1     1     2     0     0 -1.802028391E+02  4.414120878E+02 -2.011785573E+02  5.323678299E+02  1.250000000E+02  0.00000E+00  9.000E+00
      25     1     1     2     0     0  6.459676351E+01 -3.964807739E+02  2.052724521E+02  4.681148636E+02  1.250000000E+02  0.00000E+00  9.000E+00
      21     1     1     2   502   512  1.156060756E+02 -4.493131390E+01 -9.359828157E+01  1.553841240E+02  3.303624740E-06  0.00000E+00  9.000E+00
#rwgt            1           1   2.9177303271047006E-002           3      169398           0
</event>
<event>
      5   9999  3.19816E-02  6.55803E+01 -1.00000E+00  1.32671E-01
       2    -1     0     0   502     0  0.000000000E+00  0.000000000E+00  4.115638794E+03  4.115638794E+03  0.000000000E+00  0.00000E+00  9.000E+00
      21    -1     0     0   501   502  0.000000000E+00  0.000000000E+00 -3.337914130E+01  3.337914130E+01  0.000000000E+00  0.00000E+00  9.000E+00
      25     1     1     2     0     0  9.366152881E+01  8.651825561E+01  1.581834329E+03  1.591880251E+03  1.250000000E+02  0.00000E+00  9.000E+00
      25     1     1     2     0     0 -1.067910027E+02 -2.226570119E+01  2.188879852E+02  2.746580233E+02  1.250000000E+02  0.00000E+00  9.000E+00
       2     1     1     2   501     0  1.312947386E+01 -6.425255443E+01  2.281537338E+03  2.282479660E+03  3.051757812E-05  0.00000E+00  9.000E+00
#rwgt            1           1   2.2521819367097379E-002           3      169460           0
</event>
<event>
      5   9999  3.19816E-02  8.57135E+01 -1.00000E+00  1.26916E-01
      21    -1     0     0   511   501  0.000000000E+00  0.000000000E+00  6.483896663E+02  6.483896663E+02  0.000000000E+00  0.00000E+00  9.000E+00
      21    -1     0     0   501   502  0.000000000E+00  0.000000000E+00 -2.621556264E+02  2.621556264E+02  0.000000000E+00  0.00000E+00  9.000E+00
      25     1     1     2     0     0  1.769399124E+02  8.079282288E+01 -1.651701192E+02  2.841502791E+02  1.250000000E+02  0.00000E+00  9.000E+00
      25     1     1     2     0     0 -1.074321967E+02 -1.309473200E+02  3.681266015E+02  4.240649387E+02  1.250000000E+02  0.00000E+00  9.000E+00
      21     1     1     2   511   502 -6.950771571E+01  5.015449716E+01  1.832775576E+02  2.023300750E+02  3.814697266E-06  0.00000E+00  9.000E+00
#rwgt            1           1   2.7720523181256951E-002           3      169504           0
</event>
<event>
      5   9999  3.19816E-02  2.10664E+02 -1.00000E+00  1.10833E-01
      21    -1     0     0   502   501  0.000000000E+00  0.000000000E+00  9.218248814E+02  9.218248814E+02  0.000000000E+00  0.00000E+00  9.000E+00
      21    -1     0     0   501   512  0.000000000E+00  0.000000000E+00 -4.753092255E+02  4.753092255E+02  0.000000000E+00  0.00000E+00  9.000E+00
      25     1     1     2     0     0  6.074238875E+01  2.105122818E+02  7.869289742E+02  8.263699348E+02  1.250000000E+02  0.00000E+00  9.000E+00
      25     1     1     2     0     0 -6.542772623E+01  9.926202269E-02 -3.310860793E+02  3.598941360E+02  1.250000000E+02  0.00000E+00  9.000E+00
      21     1     1     2   502   512  4.685337485E+00 -2.106115439E+02 -9.327239099E+00  2.108700362E+02  4.187623994E-06  0.00000E+00  9.000E+00
#rwgt            1           1   3.1261840267621473E-002           3      169623           0
</event>
<event>
      5   9999  3.19816E-02  6.47625E+01 -1.00000E+00  1.32954E-01
      -1    -1     0     0     0   501  0.000000000E+00  0.000000000E+00  3.850078487E+02  3.850078487E+02  0.000000000E+00  0.00000E+00  9.000E+00
      21    -1     0     0   501   502  0.000000000E+00  0.000000000E+00 -2.055526684E+02  2.055526684E+02  0.000000000E+00  0.00000E+00  9.000E+00
      25     1     1     2     0     0  5.532482166E+00 -1.041285907E+02 -9.932191454E+01  1.906914116E+02  1.250000000E+02  0.00000E+00  9.000E+00
      25     1     1     2     0     0 -2.833623930E+01  1.647435141E+02  1.543613441E+02  2.596069961E+02  1.250000000E+02  0.00000E+00  9.000E+00
      -1     1     1     2     0   502  2.280375713E+01 -6.061492337E+01  1.244157508E+02  1.402621094E+02  0.000000000E+00  0.00000E+00  9.000E+00
#rwgt            1           1   2.6787190502285004E-002           3      169693           0
</event>
<event>
      5   9999  3.19816E-02  1.24265E+01 -1.00000E+00  1.85447E-01
      21    -1     0     0   511   501  0.000000000E+00  0.000000000E+00  1.270113666E+03  1.270113666E+03  0.000000000E+00  0.00000E+00  9.000E+00
      21    -1     0     0   501   502  0.000000000E+00  0.000000000E+00 -1.884133358E+02  1.884133358E+02  0.000000000E+00  0.00000E+00  9.000E+00
      25     1     1     2     0     0 -3.145315457E+02 -2.412428624E+01  4.775504150E+01  3.426625431E+02  1.250000000E+02  0.00000E+00  9.000E+00
      25     1     1     2     0     0  3.267734665E+02  2.625796763E+01  7.126926219E+02  7.943715457E+02  1.250000000E+02  0.00000E+00  9.000E+00
      21     1     1     2   511   502 -1.224192071E+01 -2.133681397E+00  3.212526664E+02  3.214929126E+02  5.394796609E-06  0.00000E+00  9.000E+00
#rwgt            1           1   2.5747204186688841E-002           3      169797           0
</event>
<event>
      5   9999  3.19816E-02  2.09202E+01 -1.00000E+00  1.64773E-01
      21    -1     0     0   502   501  0.000000000E+00  0.000000000E+00  3.508153850E+02  3.508153850E+02  0.000000000E+00  0.00000E+00  9.000E+00
      21    -1     0     0   512   502  0.000000000E+00  0.000000000E+00 -4.390237054E+02  4.390237054E+02  0.000000000E+00  0.00000E+00  9.000E+00
      25     1     1     2     0     0 -3.048123853E+02  3.233855657E+01 -2.134528457E+02  3.938825838E+02  1.250000000E+02  0.00000E+00  9.000E+00
      25     1     1     2     0     0  3.232287305E+02 -4.226301501E+01  1.330637863E+02  3.736227320E+02  1.250000000E+02  0.00000E+00  9.000E+00
      21     1     1     2   512   501 -1.841634513E+01  9.924458445E+00 -7.819261034E+00  2.233377457E+01  1.192092896E-07  0.00000E+00  9.000E+00
#rwgt            1           1   2.6988466558228841E-002           3      170003           0
</event>
<event>
      5   9999  3.19816E-02  1.16933E+02 -1.00000E+00  1.20848E-01
      21    -1     0     0   502   501  0.000000000E+00  0.000000000E+00  9.620326143E+02  9.620326143E+02  0.000000000E+00  0.00000E+00  9.000E+00
      21    -1     0     0   511   502  0.000000000E+00  0.000000000E+00 -1.718503691E+02  1.718503691E+02  0.000000000E+00  0.00000E+00  9.000E+00
      25     1     1     2     0     0  1.856636389E+02 -5.909452295E+01  5.994408714E+02  6.425865761E+02  1.250000000E+02  0.00000E+00  9.000E+00
      25     1     1     2     0     0 -2.504212834E+02  1.564582155E+02  8.051774333E+01  3.306026306E+02  1.250000000E+02  0.00000E+00  9.000E+00
      21     1     1     2   511   501  6.475764448E+01 -9.736369253E+01  1.102236305E+02  1.606937767E+02  1.348699152E-06  0.00000E+00  9.000E+00
#rwgt            1           1   3.1749778940266843E-002           3      170160           0
</event>
<event>
      5   9999  3.19816E-02  7.66244E+01 -1.00000E+00  1.29262E-01
      21    -1     0     0   502   501  0.000000000E+00  0.000000000E+00  3.952821191E+02  3.952821191E+02  0.000000000E+00  0.00000E+00  9.000E+00
      21    -1     0     0   512   502  0.000000000E+00  0.000000000E+00 -1.068861833E+03  1.068861833E+03  0.000000000E+00  0.00000E+00  9.000E+00
      25     1     1     2     0     0  1.091142952E+02  5.787576640E+01 -7.758456330E+02  7.954979447E+02  1.250000000E+02  0.00000E+00  9.000E+00
      25     1     1     2     0     0 -7.901092351E+01 -1.283391655E+02  3.545272774E+02  4.050040220E+02  1.250000000E+02  0.00000E+00  9.000E+00
      21     1     1     2   512   501 -3.010337172E+01  7.046339907E+01 -2.522613587E+02  2.636419859E+02  2.697398305E-06  0.00000E+00  9.000E+00
#rwgt            1           1   2.9822594611108443E-002           3      170284           0
</event>
<event>
      5   9999  3.19816E-02  1.49619E+02 -1.00000E+00  1.16437E-01
      21    -1     0     0   502   511  0.000000000E+00  0.000000000E+00  6.838682831E+02  6.838682831E+02  0.000000000E+00  0.00000E+00  9.000E+00
      21    -1     0     0   501   502  0.000000000E+00  0.000000000E+00 -8.186290645E+02  8.186290645E+02  0.000000000E+00  0.00000E+00  9.000E+00
      25     1     1     2     0     0  2.800352970E+02  4.257789908E+02 -3.978860919E+02  6.585179260E+02  1.250000000E+02  0.00000E+00  9.000E+00
      25     1     1     2     0     0 -2.091193003E+02 -5.575242379E+02  8.982314276E+01  6.150263040E+02  1.250000000E+02  0.00000E+00  9.000E+00
      21     1     1     2   501   511 -7.091599678E+01  1.317452471E+02  1.733021678E+02  2.289531177E+02  1.907348633E-06  0.00000E+00  9.000E+00
#rwgt            1           1   2.7510544695120778E-002           3      170357           0
</event>
<event>
      5   9999  3.19816E-02  2.47670E+01 -1.00000E+00  1.59056E-01
      21    -1     0     0   502   512  0.000000000E+00  0.000000000E+00  2.662197879E+02  2.662197879E+02  0.000000000E+00  0.00000E+00  9.000E+00
      21    -1     0     0   501   502  0.000000000E+00  0.000000000E+00 -1.711844901E+03  1.711844901E+03  0.000000000E+00  0.00000E+00  9.000E+00
      25     1     1     2     0     0 -2.705004991E+02 -4.981276161E+02 -3.091484452E+02  6.576468681E+02  1.250000000E+02  0.00000E+00  9.000E+00
      25     1     1     2     0     0  2.716015505E+02  5.228701315E+02 -1.145383672E+03  1.294097883E+03  1.250000000E+02  0.00000E+00  9.000E+00
      21     1     1     2   501   512 -1.101051411E+00 -2.474251546E+01  8.907003770E+00  2.631993734E+01  3.576278687E-07  0.00000E+00  9.000E+00
#rwgt            1           1   2.3629443033448171E-002           3      170437           0
</event>
<event>
      5   9999  3.19816E-02  2.22516E+01 -1.00000E+00  1.62635E-01
      21    -1     0     0   502   501  0.000000000E+00  0.000000000E+00  2.482224948E+02  2.482224948E+02  0.000000000E+00  0.00000E+00  9.000E+00
      21    -1     0     0   511   502  0.000000000E+00  0.000000000E+00 -2.575405491E+02  2.575405491E+02  0.000000000E+00  0.00000E+00  9.000E+00
      25     1     1     2     0     0 -3.051147514E+01  4.244773365E+01  1.932630729E+02  2.360262179E+02  1.250000000E+02  0.00000E+00  9.000E+00
      25     1     1     2     0     0  3.924369031E+01 -6.291438794E+01 -1.341782633E+02  1.978056970E+02  1.250000000E+02  0.00000E+00  9.000E+00
      21     1     1     2   511   501 -8.732215178E+00  2.046665429E+01 -6.840286389E+01  7.193112892E+01  9.536743164E-07  0.00000E+00  9.000E+00
#rwgt            1           1   2.6648912884923347E-002           3      170622           0
</event>
<event>
      5   9999  3.19816E-02  9.88517E+01 -1.00000E+00  1.24054E-01
      21    -1     0     0   502   501  0.000000000E+00  0.000000000E+00  8.825294672E+02  8.825294672E+02  0.000000000E+00  0.00000E+00  9.000E+00
       2    -1     0     0   501     0  0.000000000E+00  0.000000000E+00 -4.679166802E+02  4.679166802E+02  0.000000000E+00  0.00000E+00  9.000E+00
      25     1     1     2     0     0  1.762580804E+02 -1.483588717E+02 -3.200973738E+02  4.137204303E+02  1.250000000E+02  0.00000E+00  9.000E+00
      25     1     1     2     0     0 -7.747835776E+01  1.445872758E+02  7.947473855E+02  8.210705103E+02  1.250000000E+02  0.00000E+00  9.000E+00
       2     1     1     2   502     0 -9.877972259E+01  3.771595903E+00 -6.003722455E+01  1.156552068E+02  1.348699152E-06  0.00000E+00  9.000E+00
#rwgt            1           1   2.7231790700564303E-002           3      170770           0
</event>
<event>
      5   9999  3.19816E-02  5.44445E+02 -1.00000E+00  9.78126E-02
      21    -1     0     0   502   501  0.000000000E+00  0.000000000E+00  2.837604612E+03  2.837604612E+03  0.000000000E+00  0.00000E+00  9.000E+00
      21    -1     0     0   511   502  0.000000000E+00  0.000000000E+00 -5.131430886E+02  5.131430886E+02  0.000000000E+00  0.00000E+00  9.000E+00
      25     1     1     2     0     0  3.368587103E+02  1.138933528E+03  1.004790525E+03  1.560728154E+03  1.250000000E+02  0.00000E+00  9.000E+00
      25     1     1     2     0     0 -1.949007110E+02 -6.133210943E+02  8.307737519E+02  1.058281191E+03  1.250000000E+02  0.00000E+00  9.000E+00
      21     1     1     2   511   501 -1.419579993E+02 -5.256124335E+02  4.888972468E+02  7.317383561E+02  1.525878906E-05  0.00000E+00  9.000E+00
#rwgt            2          11   1.7976058231129926E-003           3      170894           0
</event>
<event>
      5   9999  3.19816E-02  5.78222E+01 -1.00000E+00  1.35567E-01
      21    -1     0     0   502   501  0.000000000E+00  0.000000000E+00  7.969613578E+01  7.969613578E+01  0.000000000E+00  0.00000E+00  9.000E+00
      21    -1     0     0   501   512  0.000000000E+00  0.000000000E+00 -1.289912075E+03  1.289912075E+03  0.000000000E+00  0.00000E+00  9.000E+00
      25     1     1     2     0     0  2.230258849E+01 -7.128109922E+01 -7.473752759E+00  1.458055470E+02  1.250000000E+02  0.00000E+00  9.000E+00
      25     1     1     2     0     0  3.259137844E+01  8.944867620E+01 -1.022795946E+03  1.034794574E+03  1.250000000E+02  0.00000E+00  9.000E+00
      21     1     1     2   502   512 -5.489396693E+01 -1.816757698E+01 -1.799462401E+02  1.890080892E+02  2.697398305E-06  0.00000E+00  9.000E+00
#rwgt            1           1   3.1716112279451883E-002           3      170929           0
</event>
<event>
      5   9999  3.19816E-02  1.14611E+02 -1.00000E+00  1.21221E-01
      21    -1     0     0   502   501  0.000000000E+00  0.000000000E+00  7.390652466E+01  7.390652466E+01  0.000000000E+00  0.00000E+00  9.000E+00
       2    -1     0     0   501     0  0.000000000E+00  0.000000000E+00 -4.396128274E+03  4.396128274E+03  0.000000000E+00  0.00000E+00  9.000E+00
      25     1     1     2     0     0 -2.061858595E+02 -6.511160329E+01 -5.891255187E+02  6.398796812E+02  1.250000000E+02  0.00000E+00  9.000E+00
      25     1     1     2     0     0  1.368379043E+02  1.563616358E+02 -2.613373438E+02  3.565049515E+02  1.250000000E+02  0.00000E+00  9.000E+00
       2     1     1     2   502     0  6.934795522E+01 -9.125003250E+01 -3.471758887E+03  3.473650166E+03  6.103515625E-05  0.00000E+00  9.000E+00
#rwgt            1           1   2.8504566189238217E-002           3      170998           0
</event>
<event>
      5   9999  3.19816E-02  3.46292E+01 -1.00000E+00  1.48834E-01
      21    -1     0     0   502   501  0.000000000E+00  0.000000000E+00  2.320767268E+03  2.320767268E+03  0.000000000E+00  0.00000E+00  9.000E+00
      21    -1     0     0   511   502  0.000000000E+00  0.000000000E+00 -1.133625432E+03  1.133625432E+03  0.000000000E+00  0.00000E+00  9.000E+00
      25     1     1     2     0     0 -8.595977230E+02  1.198037235E+03  1.184325218E+03  1.895376660E+03  1.250000000E+02  0.00000E+00  9.000E+00
      25     1     1     2     0     0  8.726783203E+02 -1.230100893E+03  3.200646646E+01  1.513725560E+03  1.250000000E+02  0.00000E+00  9.000E+00
      21     1     1     2   511   501 -1.308059725E+01  3.206365869E+01 -2.918984905E+01  4.529047936E+01  3.371747881E-07  0.00000E+00  9.000E+00
#rwgt            1           1   3.5038334976066260E-002           3      171069           0
</event>
<event>
      5   9999  3.19816E-02  6.02104E+01 -1.00000E+00  1.34622E-01
      21    -1     0     0   502   501  0.000000000E+00  0.000000000E+00  1.301571290E+02  1.301571290E+02  0.000000000E+00  0.00000E+00  9.000E+00
      21    -1     0     0   501   512  0.000000000E+00  0.000000000E+00 -1.065565652E+03  1.065565652E+03  0.000000000E+00  0.00000E+00  9.000E+00
      25     1     1     2     0     0  1.229503252E+02  2.037583908E+02 -6.351465848E+02  6.896886605E+02  1.250000000E+02  0.00000E+00  9.000E+00
      25     1     1     2     0     0 -1.382439679E+02 -2.619941321E+02 -1.726841275E+02  3.649618169E+02  1.250000000E+02  0.00000E+00  9.000E+00
      21     1     1     2   502   512  1.529364276E+01  5.823574129E+01 -1.275778107E+02  1.410723036E+02  1.348699152E-06  0.00000E+00  9.000E+00
#rwgt            1           1   2.4470923751539773E-002           3      171235           0
</event>
<event>
      5   9999  3.19816E-02  4.46669E+01 -1.00000E+00  1.41929E-01
      21    -1     0     0   502   501  0.000000000E+00  0.000000000E+00  1.979715206E+03  1.979715206E+03  0.000000000E+00  0.00000E+00  9.000E+00
      21    -1     0     0   501   511  0.000000000E+00  0.000000000E+00 -3.330104763E+02  3.330104763E+02  0.000000000E+00  0.00000E+00  9.000E+00
      25     1     1     2     0     0  7.248282743E+02 -1.564306489E+02  1.138265652E+03  1.364228818E+03  1.250000000E+02  0.00000E+00  9.000E+00
      25     1     1     2     0     0 -7.146360671E+02  1.999191155E+02  4.987224174E+02  9.027853625E+02  1.250000000E+02  0.00000E+00  9.000E+00
      21     1     1     2   502   511 -1.019220721E+01 -4.348846666E+01  9.716660142E+00  4.571150079E+01  6.194296387E-07  0.00000E+00  9.000E+00
#rwgt            2          11   2.3735979152577098E-002           3      171323           0
</event>
<event>
      5   9999  3.19816E-02  1.24070E+01 -1.00000E+00  1.85518E-01
      21    -1     0     0   502   501  0.000000000E+00  0.000000000E+00  9.192669316E+01  9.192669316E+01  0.000000000E+00  0.00000E+00  9.000E+00
      21    -1     0     0   512   502  0.000000000E+00  0.000000000E+00 -1.812272772E+03  1.812272772E+03  0.000000000E+00  0.00000E+00  9.000E+00
      25     1     1     2     0     0 -1.526639534E+02  4.007544928E+01 -1.231341198E+03  1.247693259E+03  1.250000000E+02  0.00000E+00  9.000E+00
      25     1     1     2     0     0  1.619592299E+02 -3.185764318E+01 -4.443949886E+01  2.117677280E+02  1.250000000E+02  0.00000E+00  9.000E+00
      21     1     1     2   512   501 -9.295276480E+00 -8.217806101E+00 -4.445653824E+02  4.447384779E+02  5.394796609E-06  0.00000E+00  9.000E+00
#rwgt            1           1   2.8405792698628043E-002           3      171343           0
</event>
<event>
      5   9999  3.19816E-02  8.58447E+01 -1.00000E+00  1.26885E-01
      21    -1     0     0   502   501  0.000000000E+00  0.000000000E+00  5.373153737E+02  5.373153737E+02  0.000000000E+00  0.00000E+00  9.000E+00
      21    -1     0     0   511   502  0.000000000E+00  0.000000000E+00 -5.425815874E+02  5.425815874E+02  0.000000000E+00  0.00000E+00  9.000E+00
      25     1     1     2     0     0 -1.489238435E+02  1.532792634E+02  1.730914784E+02  3.020902243E+02  1.250000000E+02  0.00000E+00  9.000E+00
      25     1     1     2     0     0  1.790147813E+02 -7.288115487E+01  2.506431532E+02  3.403012561E+02  1.250000000E+02  0.00000E+00  9.000E+00
      21     1     1     2   511   501 -3.009093785E+01 -8.039810853E+01 -4.290008452E+02  4.375054807E+02  5.394796609E-06  0.00000E+00  9.000E+00
#rwgt            1           1   2.9418837479536650E-002           3      171587           0
</event>
<event>
      5   9999  3.19816E-02  4.97906E+01 -1.00000E+00  1.39180E-01
       2    -1     0     0   502     0  0.000000000E+00  0.000000000E+00  1.998945068E+03  1.998945068E+03  0.000000000E+00  0.00000E+00  9.000E+00
      21    -1     0     0   501   502  0.000000000E+00  0.000000000E+00 -5.608400609E+02  5.608400609E+02  0.000000000E+00  0.00000E+00  9.000E+00
      25     1     1     2     0     0 -1.379949694E+02 -3.488228597E+01  5.054723351E+01  1.960597059E+02  1.250000000E+02  0.00000E+00  9.000E+00
      25     1     1     2     0     0  1.457310004E+02  8.406819083E+01 -4.652326969E+02  5.102660555E+02  1.250000000E+02  0.00000E+00  9.000E+00
       2     1     1     2   501     0 -7.736031021E+00 -4.918590486E+01  1.852790470E+03  1.853459367E+03  3.737624730E-05  0.00000E+00  9.000E+00
#rwgt            1           1   2.5235846886539012E-002           3      171674           0
</event>
<event>
      5   9999  3.19816E-02  5.77674E+01 -1.00000E+00  1.35589E-01
      21    -1     0     0   502   501  0.000000000E+00  0.000000000E+00  2.643116642E+02  2.643116642E+02  0.000000000E+00  0.00000E+00  9.000E+00
      21    -1     0     0   501   511  0.000000000E+00  0.000000000E+00 -6.164859453E+02  6.164859453E+02  0.000000000E+00  0.00000E+00  9.000E+00
      25     1     1     2     0     0 -2.562306703E+02  1.740601648E+02 -3.078570508E+02  4.542599048E+02  1.250000000E+02  0.00000E+00  9.000E+00
      25     1     1     2     0     0  1.993313835E+02 -1.640832705E+02  7.280652964E+01  2.959427493E+02  1.250000000E+02  0.00000E+00  9.000E+00
      21     1     1     2   502   511  5.689928680E+01 -9.976894330E+00 -1.171237599E+02  1.305949554E+02  1.348699152E-06  0.00000E+00  9.000E+00
#rwgt            1           1   2.6518315036012444E-002           3      171784           0
</event>
<event>
      5   9999  3.19816E-02  1.49837E+02 -1.00000E+00  1.16412E-01
      21    -1     0     0   502   512  0.000000000E+00  0.000000000E+00  3.384802957E+02  3.384802957E+02  0.000000000E+00  0.00000E+00  9.000E+00
      21    -1     0     0   501   502  0.000000000E+00  0.000000000E+00 -8.196835121E+02  8.196835121E+02  0.000000000E+00  0.00000E+00  9.000E+00
      25     1     1     2     0     0  2.506647370E+02 -1.419627562E+01 -2.854659414E+02  4.001876414E+02  1.250000000E+02  0.00000E+00  9.000E+00
      25     1     1     2     0     0 -1.573763716E+02 -1.030572037E+02 -4.266289843E+02  4.827270448E+02  1.250000000E+02  0.00000E+00  9.000E+00
      21     1     1     2   501   512 -9.328836545E+01  1.172534793E+02  2.308917092E+02  2.752491216E+02  7.136645101E-06  0.00000E+00  9.000E+00
#rwgt            1           1   2.8482097952783701E-002           3      171887           0
</event>
<event>
      5   9999  3.19816E-02  3.92467E+01 -1.00000E+00  1.45354E-01
      21    -1     0     0   502   501  0.000000000E+00  0.000000000E+00  7.062626456E+01  7.062626456E+01  0.000000000E+00  0.00000E+00  9.000E+00
       2    -1     0     0   501     0  0.000000000E+00  0.000000000E+00 -1.527634037E+03  1.527634037E+03  0.000000000E+00  0.00000E+00  9.000E+00
      25     1     1     2     0     0  7.799475112E+01 -1.912810159E+02 -5.456915135E+02  5.967209031E+02  1.250000000E+02  0.00000E+00  9.000E+00
      25     1     1     2     0     0 -3.885135171E+01  1.941264033E+02 -2.633333485E+02  3.523690401E+02  1.250000000E+02  0.00000E+00  9.000E+00
       2     1     1     2   502     0 -3.914339941E+01 -2.845387403E+00 -6.479829107E+02  6.491703586E+02  7.629394531E-06  0.00000E+00  9.000E+00
#rwgt            1           1   2.7809100115685013E-002           3      171931           0
</event>
<event>
      5   9999  3.19816E-02  1.62823E+01 -1.00000E+00  1.74092E-01
      21    -1     0     0   502   501  0.000000000E+00  0.000000000E+00  1.491585928E+02  1.491585928E+02  0.000000000E+00  0.00000E+00  9.000E+00
      21    -1     0     0   511   502  0.000000000E+00  0.000000000E+00 -3.076985806E+02  3.076985806E+02  0.000000000E+00  0.00000E+00  9.000E+00
      25     1     1     2     0     0 -8.663497670E+01 -6.670460566E+01 -1.660516171E+02  2.348473188E+02  1.250000000E+02  0.00000E+00  9.000E+00
      25     1     1     2     0     0  9.423603120E+01  8.110379914E+01  4.429517956E+01  1.817837142E+02  1.250000000E+02  0.00000E+00  9.000E+00
      21     1     1     2   511   501 -7.601054493E+00 -1.439919348E+01 -3.678355024E+01  4.022614039E+01  4.768371582E-07  0.00000E+00  9.000E+00
#rwgt            1           1   3.3664743534091837E-002           3      172003           0
</event>
<event>
      5   9999  3.19816E-02  1.78879E+02 -1.00000E+00  1.13441E-01
      21    -1     0     0   502   501  0.000000000E+00  0.000000000E+00  6.521421230E+02  6.521421230E+02  0.000000000E+00  0.00000E+00  9.000E+00
      21    -1     0     0   501   512  0.000000000E+00  0.000000000E+00 -1.489062594E+03  1.489062594E+03  0.000000000E+00  0.00000E+00  9.000E+00
      25     1     1     2     0     0  1.921568717E+00 -1.309416079E+01 -1.001865825E+03  1.009720398E+03  1.250000000E+02  0.00000E+00  9.000E+00
      25     1     1     2     0     0 -1.628974078E+01  1.913952260E+02  6.101052284E+02  6.517291446E+02  1.250000000E+02  0.00000E+00  9.000E+00
      21     1     1     2   502   512  1.436817206E+01 -1.783010652E+02 -4.451598738E+02  4.797551745E+02  5.394796609E-06  0.00000E+00  9.000E+00
#rwgt            2          11   3.3661546472528643E-003           3      172165           0
</event>
<event>
      5   9999  3.19816E-02  1.81198E+01 -1.00000E+00  1.69986E-01
      21    -1     0     0   502   511  0.000000000E+00  0.000000000E+00  1.229785105E+02  1.229785105E+02  0.000000000E+00  0.00000E+00  9.000E+00
      21    -1     0     0   501   502  0.000000000E+00  0.000000000E+00 -7.829147806E+02  7.829147806E+02  0.000000000E+00  0.00000E+00  9.000E+00
      25     1     1     2     0     0 -1.548824404E+02  1.275434364E+02 -5.947228264E+02  6.399813581E+02  1.250000000E+02  0.00000E+00  9.000E+00
      25     1     1     2     0     0  1.663398860E+02 -1.135057960E+02 -4.995909940E+01  2.422259999E+02  1.250000000E+02  0.00000E+00  9.000E+00
      21     1     1     2   501   511 -1.145744569E+01 -1.403764035E+01 -1.525434424E+01  2.368593310E+01  1.685873940E-07  0.00000E+00  9.000E+00
#rwgt            1           1   2.9186003910374139E-002           3      172185           0
</event>
<event>
      5   9999  3.19816E-02  9.82179E+01 -1.00000E+00  1.24180E-01
      21    -1     0     0   502   512  0.000000000E+00  0.000000000E+00  1.054891554E+03  1.054891554E+03  0.000000000E+00  0.00000E+00  9.000E+00
      21    -1     0     0   501   502  0.000000000E+00  0.000000000E+00 -6.093862423E+02  6.093862423E+02  0.000000000E+00  0.00000E+00  9.000E+00
      25     1     1     2     0     0  5.088034278E+02  2.907439053E+02 -3.040470936E+02  6.719245357E+02  1.250000000E+02  0.00000E+00  9.000E+00
      25     1     1     2     0     0 -4.847850308E+02 -1.955080266E+02  6.994422771E+02  8.820909327E+02  1.250000000E+02  0.00000E+00  9.000E+00
      21     1     1     2   501   512 -2.401839696E+01 -9.523587873E+01  5.011012825E+01  1.102623279E+02  6.743495762E-07  0.00000E+00  9.000E+00
#rwgt            1           1   3.2584529058057400E-002           3      172316           0
</event>
<event>
      5   9999  3.19816E-02  1.12108E+01 -1.00000E+00  1.90189E-01
      21    -1     0     0   502   501  0.000000000E+00  0.000000000E+00  3.453540903E+02  3.453540903E+02  0.000000000E+00  0.00000E+00  9.000E+00
      21    -1     0     0   501   511  0.000000000E+00  0.000000000E+00 -1.587946862E+02  1.587946862E+02  0.000000000E+00  0.00000E+00  9.000E+00
      25     1     1     2     0     0  5.805617076E+01  8.664435619E+01 -3.440976467E+01  1.663934954E+02  1.250000000E+02  0.00000E+00  9.000E+00
      25     1     1     2     0     0 -5.305457602E+01 -7.661107035E+01  2.566819132E+02  3.003242393E+02  1.250000000E+02  0.00000E+00  9.000E+00
      21     1     1     2   502   511 -5.001594739E+00 -1.003328584E+01 -3.571274441E+01  3.743104177E+01  6.743495762E-07  0.00000E+00  9.000E+00
#rwgt            1           1   3.2385484456149256E-002           3      172410           0
</event>
<event>
      5   9999  3.19816E-02  3.92670E+01 -1.00000E+00  1.45340E-01
      21    -1     0     0   502   501  0.000000000E+00  0.000000000E+00  3.035224839E+02  3.035224839E+02  0.000000000E+00  0.00000E+00  9.000E+00
      21    -1     0     0   512   502  0.000000000E+00  0.000000000E+00 -2.917800101E+02  2.917800101E+02  0.000000000E+00  0.00000E+00  9.000E+00
      25     1     1     2     0     0  4.826279118E+01  2.554176561E+02 -5.404340473E+01  2.934504484E+02  1.250000000E+02  0.00000E+00  9.000E+00
      25     1     1     2     0     0 -3.586411645E+01 -2.181594920E+02  6.664231961E+01  2.625756987E+02  1.250000000E+02  0.00000E+00  9.000E+00
      21     1     1     2   512   501 -1.239867473E+01 -3.725816414E+01 -8.564411239E-01  3.927634685E+01  7.812103408E-07  0.00000E+00  9.000E+00
#rwgt            1           1   2.7501548081826036E-002           3      172719           0
</event>
<event>
      5   9999  3.19816E-02  6.36270E+02 -1.00000E+00  9.59667E-02
      21    -1     0     0   511   501  0.000000000E+00  0.000000000E+00  3.423514856E+03  3.423514856E+03  0.000000000E+00  0.00000E+00  9.000E+00
      21    -1     0     0   501   502  0.000000000E+00  0.000000000E+00 -1.900175514E+02  1.900175514E+02  0.000000000E+00  0.00000E+00  9.000E+00
      25     1     1     2     0     0 -4.325692165E+02  3.434605846E+02  5.300044632E+02  7.756358883E+02  1.250000000E+02  0.00000E+00  9.000E+00
      25     1     1     2     0     0 -9.099797625E+01  1.808726070E+01  1.926141966E+02  2.476550210E+02  1.250000000E+02  0.00000E+00  9.000E+00
      21     1     1     2   511   502  5.235671928E+02 -3.615478453E+02  2.510878645E+03  2.590241499E+03  5.285799584E-05  0.00000E+00  9.000E+00
#rwgt            2          11   2.0347698920819054E-003           3      172807           0
</event>
<event>
      5   9999  3.34521E-02  9.86516E+00 -1.00000E+00  1.96441E-01
      21    -1     0     0   502   501  0.000000000E+00  0.000000000E+00  5.532432521E+01  5.532432521E+01  0.000000000E+00  0.00000E+00  9.000E+00
      21    -1     0     0   512   502  0.000000000E+00  0.000000000E+00 -4.901361639E+02  4.901361639E+02  0.000000000E+00  0.00000E+00  9.000E+00
      25     1     1     2     0     0 -3.523809150E+01 -9.155113719E+01 -1.643241826E+02  2.285842750E+02  1.250000000E+02  0.00000E+00  9.000E+00
      25     1     1     2     0     0  3.937481525E+01  8.259519437E+01 -2.493886400E+02  2.935848020E+02  1.250000000E+02  0.00000E+00  9.000E+00
      21     1     1     2   512   501 -4.136723757E+00  8.955942823E+00 -2.109901610E+01  2.329141206E+01  2.384185791E-07  0.00000E+00  9.000E+00
#rwgt            1           1   8.4584285028574194E-002           3      172887           0
</event>
<event>
      5   9999  3.19816E-02  2.57063E+01 -1.00000E+00  1.57850E-01
      21    -1     0     0   502   501  0.000000000E+00  0.000000000E+00  1.064878973E+02  1.064878973E+02  0.000000000E+00  0.00000E+00  9.000E+00
       1    -1     0     0   501     0  0.000000000E+00  0.000000000E+00 -8.238225615E+02  8.238225615E+02  0.000000000E+00  0.00000E+00  9.000E+00
      25     1     1     2     0     0 -1.108213173E+02 -1.467433473E+02 -4.892293077E+02  5.373874671E+02  1.250000000E+02  0.00000E+00  9.000E+00
      25     1     1     2     0     0  1.034322153E+02  1.221218764E+02 -4.496532724E+01  2.079876355E+02  1.250000000E+02  0.00000E+00  9.000E+00
       1     1     1     2   502     0  7.389102064E+00  2.462147085E+01 -1.831400293E+02  1.849353563E+02  2.697398305E-06  0.00000E+00  9.000E+00
#rwgt            1           1   2.8480016083242951E-002           3      173056           0
</event>
<event>
      5   9999  3.19816E-02  6.25119E+01 -1.00000E+00  1.33758E-01
      21    -1     0     0   502   501  0.000000000E+00  0.000000000E+00  6.438990479E+01  6.438990479E+01  0.000000000E+00  0.00000E+00  9.000E+00
      21    -1     0     0   501   511  0.000000000E+00  0.000000000E+00 -1.036656372E+03  1.036656372E+03  0.000000000E+00  0.00000E+00  9.000E+00
      25     1     1     2     0     0  6.190318166E-01 -1.012195194E+02 -5.373260895E+02  5.608833219E+02  1.250000000E+02  0.00000E+00  9.000E+00
      25     1     1     2     0     0  5.610672264E+01  7.495317364E+01 -7.216804411E+01  1.720440907E+02  1.250000000E+02  0.00000E+00  9.000E+00
      21     1     1     2   502   511 -5.672575445E+01  2.626634578E+01 -3.627723339E+02  3.681188645E+02  0.000000000E+00  0.00000E+00  9.000E+00
#rwgt            1           1   3.3180193583710993E-002           3      173240           0
</event>
<event>
      5   9999  3.19816E-02  2.56669E+02 -1.00000E+00  1.07841E-01
      21    -1     0     0   502   501  0.000000000E+00  0.000000000E+00  5.112876828E+02  5.112876828E+02  0.000000000E+00  0.00000E+00  9.000E+00
      21    -1     0     0   501   512  0.000000000E+00  0.000000000E+00 -1.556305172E+03  1.556305172E+03  0.000000000E+00  0.00000E+00  9.000E+00
      25     1     1     2     0     0  1.626563122E+02  1.709616956E+02  2.519988170E+02  3.671694174E+02  1.250000000E+02  0.00000E+00  9.000E+00
      25     1     1     2     0     0 -3.783654481E+02 -3.186354932E+01 -2.256938454E+01  4.003874064E+02  1.250000000E+02  0.00000E+00  9.000E+00
      21     1     1     2   502   512  2.157091359E+02 -1.390981463E+02 -1.274446922E+03  1.300036031E+03  1.525878906E-05  0.00000E+00  9.000E+00
#rwgt            1           1   3.1477818228742113E-002           3      173327           0
</event>
<event>
      5   9999  3.19816E-02  1.32715E+01 -1.00000E+00  1.82544E-01
      21    -1     0     0   502   501  0.000000000E+00  0.000000000E+00  1.121424403E+02  1.121424403E+02  0.000000000E+00  0.00000E+00  9.000E+00
      21    -1     0     0   501   511  0.000000000E+00  0.000000000E+00 -4.637149812E+02  4.637149812E+02  0.000000000E+00  0.00000E+00  9.000E+00
      25     1     1     2     0     0 -1.544809523E+02 -8.856777375E+01 -2.025251097E+02  2.972373382E+02  1.250000000E+02  0.00000E+00  9.000E+00
      25     1     1     2     0     0  1.633627411E+02  7.870641537E+01 -1.311350899E+02  2.563269334E+02  1.250000000E+02  0.00000E+00  9.000E+00
      21     1     1     2   502   511 -8.881788778E+00  9.861358381E+00 -1.791234135E+01  2.229314992E+01  3.371747881E-07  0.00000E+00  9.000E+00
#rwgt            1           1   2.7056115510738037E-002           3      173410           0
</event>
<event>
      5   9999  3.19816E-02  1.35286E+02 -1.00000E+00  1.18199E-01
      21    -1     0     0   512   501  0.000000000E+00  0.000000000E+00  3.639359695E+02  3.639359695E+02  0.000000000E+00  0.00000E+00  9.000E+00
      21    -1     0     0   501   502  0.000000000E+00  0.000000000E+00 -8.751959726E+02  8.751959726E+02  0.000000000E+00  0.00000E+00  9.000E+00
      25     1     1     2     0     0 -1.745516677E+02  1.353786385E+02  1.503521084E+02  2.950024016E+02  1.250000000E+02  0.00000E+00  9.000E+00
      25     1     1     2     0     0  1.823640000E+02 -3.186152217E-01 -7.504115293E+02  7.823037730E+02  1.250000000E+02  0.00000E+00  9.000E+00
      21     1     1     2   512   502 -7.812332303E+00 -1.350600233E+02  8.879941773E+01  1.618257674E+02  9.536743164E-07  0.00000E+00  9.000E+00
#rwgt            1           1   2.8880454467241624E-002           3      173600           0
</event>
<event>
      5   9999  3.19816E-02  9.66565E+01 -1.00000E+00  1.24496E-01
      21    -1     0     0   502   501  0.000000000E+00  0.000000000E+00  1.823930554E+02  1.823930554E+02  0.000000000E+00  0.00000E+00  9.000E+00
       2    -1     0     0   501     0  0.000000000E+00  0.000000000E+00 -3.424332228E+03  3.424332228E+03  0.000000000E+00  0.00000E+00  9.000E+00
      25     1     1     2     0     0 -4.043522492E+02  3.403300162E+02 -1.147173181E+03  1.269234639E+03  1.250000000E+02  0.00000E+00  9.000E+00
      25     1     1     2     0     0  3.512219969E+02 -2.595856019E+02 -3.096789697E+02  5.497887231E+02  1.250000000E+02  0.00000E+00  9.000E+00
       2     1     1     2   502     0  5.313025231E+01 -8.074441430E+01 -1.785087022E+03  1.787701922E+03  3.051757812E-05  0.00000E+00  9.000E+00
#rwgt            1           1   2.6401758137935275E-002           3      173690           0
</event>
<event>
      5   9999  3.75789E-02  3.47100E+01 -1.00000E+00  1.48767E-01
       3    -1     0     0   502     0  0.000000000E+00  0.000000000E+00  3.699841205E+01  3.699841205E+01  0.000000000E+00  0.00000E+00  9.000E+00
      21    -1     0     0   501   502  0.000000000E+00  0.000000000E+00 -1.634296922E+03  1.634296922E+03  0.000000000E+00  0.00000E+00  9.000E+00
      25     1     1     2     0     0 -1.013652957E+02 -2.095583373E+01 -9.871203253E+02  1.000372734E+03  1.250000000E+02  0.00000E+00  9.000E+00
      25     1     1     2     0     0  1.262291978E+02 -3.263315701E+00 -6.108909574E+02  6.362053296E+02  1.250000000E+02  0.00000E+00  9.000E+00
       3     1     1     2   501     0 -2.486390204E+01  2.421914943E+01  7.127728134E-01  3.471727047E+01  4.037087317E-07  0.00000E+00  9.000E+00
#rwgt            1           1  0.11519473801892489                3      173793           0
</event>
<event>
      5   9999  3.19816E-02  1.01962E+01 -1.00000E+00  1.94787E-01
      21    -1     0     0   511   501  0.000000000E+00  0.000000000E+00  3.474046594E+02  3.474046594E+02  0.000000000E+00  0.00000E+00  9.000E+00
      21    -1     0     0   501   502  0.000000000E+00  0.000000000E+00 -1.921906485E+02  1.921906485E+02  0.000000000E+00  0.00000E+00  9.000E+00
      25     1     1     2     0     0  3.506126141E+01 -1.363498002E+02 -1.049489179E+02  2.155454371E+02  1.250000000E+02  0.00000E+00  9.000E+00
      25     1     1     2     0     0 -3.032039261E+01  1.273227937E+02  2.329769003E+02  2.950146709E+02  1.250000000E+02  0.00000E+00  9.000E+00
      21     1     1     2   511   502 -4.740868795E+00  9.027006522E+00  2.718602857E+01  2.903519990E+01  4.768371582E-07  0.00000E+00  9.000E+00
#rwgt            1           1   2.5523568252934833E-002           3      173869           0
</event>
<event>
      5   9999  3.19816E-02  2.77478E+02 -1.00000E+00  1.06705E-01
      21    -1     0     0   502   512  0.000000000E+00  0.000000000E+00  8.797692913E+02  8.797692913E+02  0.000000000E+00  0.00000E+00  9.000E+00
      21    -1     0     0   501   502  0.000000000E+00  0.000000000E+00 -2.357873614E+02  2.357873614E+02  0.000000000E+00  0.00000E+00  9.000E+00
      25     1     1     2     0     0 -2.283186395E+02  2.307237854E+02  3.344051308E+01  3.494368816E+02  1.250000000E+02  0.00000E+00  9.000E+00
      25     1     1     2     0     0  8.003368144E+01  3.809504607E+00  8.311478034E+01  1.701557204E+02  1.250000000E+02  0.00000E+00  9.000E+00
      21     1     1     2   501   512  1.482849581E+02 -2.345332900E+02  5.274266365E+02  5.959640507E+02  0.000000000E+00  0.00000E+00  9.000E+00
#rwgt            1           1   2.8940969354457370E-002           3      174057           0
</event>
<event>
      5   9999  3.19816E-02  2.16368E+01 -1.00000E+00  1.63599E-01
      21    -1     0     0   502   511  0.000000000E+00  0.000000000E+00  6.828612150E+02  6.828612150E+02  0.000000000E+00  0.00000E+00  9.000E+00
      21    -1     0     0   501   502  0.000000000E+00  0.000000000E+00 -4.619377369E+02  4.619377369E+02  0.000000000E+00  0.00000E+00  9.000E+00
      25     1     1     2     0     0 -3.621951516E+02 -3.364496948E+02  1.687052379E+02  5.370942024E+02  1.250000000E+02  0.00000E+00  9.000E+00
      25     1     1     2     0     0  3.799364740E+02  3.240644184E+02 -3.680469359E+01  5.160901637E+02  1.250000000E+02  0.00000E+00  9.000E+00
      21     1     1     2   501   511 -1.774132245E+01  1.238527641E+01  8.902293386E+01  9.161458588E+01  1.651812370E-06  0.00000E+00  9.000E+00
#rwgt            1           1   3.0404205302183674E-002           3      174104           0
</event>
<event>
      5   9999  3.19816E-02  1.75552E+01 -1.00000E+00  1.71181E-01
      21    -1     0     0   502   501  0.000000000E+00  0.000000000E+00  1.515130794E+03  1.515130794E+03  0.000000000E+00  0.00000E+00  9.000E+00
      21    -1     0     0   501   512  0.000000000E+00  0.000000000E+00 -1.311558678E+02  1.311558678E+02  0.000000000E+00  0.00000E+00  9.000E+00
      25     1     1     2     0     0  6.735883763E+01 -2.027557906E+02  1.314906416E+03  1.338002618E+03  1.250000000E+02  0.00000E+00  9.000E+00
      25     1     1     2     0     0 -6.671417329E+01  2.202991223E+02  9.357073985E+01  2.781419917E+02  1.250000000E+02  0.00000E+00  9.000E+00
      21     1     1     2   502   512 -6.446643423E-01 -1.754333177E+01 -2.450222919E+01  3.014205230E+01  9.536743164E-07  0.00000E+00  9.000E+00
#rwgt            1           1   2.8794192475625344E-002           3      174217           0
</event>
<event>
      5   9999  3.19816E-02  3.86609E+01 -1.00000E+00  1.45763E-01
      21    -1     0     0   502   511  0.000000000E+00  0.000000000E+00  6.693243871E+01  6.693243871E+01  0.000000000E+00  0.00000E+00  9.000E+00
      21    -1     0     0   501   502  0.000000000E+00  0.000000000E+00 -7.415779269E+02  7.415779269E+02  0.000000000E+00  0.00000E+00  9.000E+00
      25     1     1     2     0     0  1.469426158E+02  2.747191329E+01 -4.418404949E+02  4.829025381E+02  1.250000000E+02  0.00000E+00  9.000E+00
      25     1     1     2     0     0 -1.127732394E+02 -9.385483828E+00 -2.321738396E+02  2.869417757E+02  1.250000000E+02  0.00000E+00  9.000E+00
      21     1     1     2   501   511 -3.416937641E+01 -1.808642947E+01 -6.311537764E-01  3.866605191E+01  6.027146702E-07  0.00000E+00  9.000E+00
#rwgt            1           1   3.2733748132075566E-002           3      174383           0
</event>
<event>
      5   9999  3.19816E-02  4.79864E+02 -1.00000E+00  9.93618E-02
       2    -1     0     0   502     0  0.000000000E+00  0.000000000E+00  2.543169006E+03  2.543169006E+03  0.000000000E+00  0.00000E+00  9.000E+00
      21    -1     0     0   501   502  0.000000000E+00  0.000000000E+00 -5.139491505E+02  5.139491505E+02  0.000000000E+00  0.00000E+00  9.000E+00
      25     1     1     2     0     0 -8.671795196E+02  4.419881634E+02  9.764696879E+02  1.384366970E+03  1.250000000E+02  0.00000E+00  9.000E+00
      25     1     1     2     0     0  4.280483944E+02 -6.354648340E+02  8.518630751E+02  1.152534894E+03  1.250000000E+02  0.00000E+00  9.000E+00
       2     1     1     2   501     0  4.391311252E+02  1.934766706E+02  2.008870925E+02  5.202162926E+02  1.112165812E-05  0.00000E+00  9.000E+00
#rwgt            1           1   3.0667753411776511E-002           3      174489           0
</event>
<event>
      5   9999  3.53269E-02  4.12481E+01 -1.00000E+00  1.44017E-01
      21    -1     0     0   502   511  0.000000000E+00  0.000000000E+00  1.849726855E+02  1.849726855E+02  0.000000000E+00  0.00000E+00  9.000E+00
      21    -1     0     0   501   502  0.000000000E+00  0.000000000E+00 -3.924397707E+02  3.924397707E+02  0.000000000E+00  0.00000E+00  9.000E+00
      25     1     1     2     0     0 -6.546211097E-01 -1.972313619E+02 -5.697147184E+01  2.403567915E+02  1.250000000E+02  0.00000E+00  9.000E+00
      25     1     1     2     0     0  3.458069325E+01  1.737702318E+02 -1.836338959E+02  2.841449023E+02  1.250000000E+02  0.00000E+00  9.000E+00
      21     1     1     2   501   511 -3.392607214E+01  2.346113011E+01  3.313828257E+01  5.291076232E+01  0.000000000E+00  0.00000E+00  9.000E+00
#rwgt            1           1   3.1337262933087383E-002           3      174545           0
</event>
<event>
      5   9999  3.19816E-02  2.66699E+02 -1.00000E+00  1.07279E-01
      21    -1     0     0   502   501  0.000000000E+00  0.000000000E+00  1.130319080E+02  1.130319080E+02  0.000000000E+00  0.00000E+00  9.000E+00
       1    -1     0     0   501     0  0.000000000E+00  0.000000000E+00 -2.907392467E+03  2.907392467E+03  0.000000000E+00  0.00000E+00  9.000E+00
      25     1     1     2     0     0 -6.964770943E+01  1.482144867E+02 -8.490664132E+02  8.737031026E+02  1.250000000E+02  0.00000E+00  9.000E+00
      25     1     1     2     0     0  2.010953828E+02 -3.802702923E+02 -4.768698177E+02  6.542741560E+02  1.250000000E+02  0.00000E+00  9.000E+00
       1     1     1     2   502     0 -1.314476734E+02  2.320558056E+02 -1.468424328E+03  1.492447116E+03  0.000000000E+00  0.00000E+00  9.000E+00
#rwgt            1           1   3.5285779179283834E-002           3      174709           0
</event>
<event>
      5   9999  3.19816E-02  1.02496E+01 -1.00000E+00  1.94528E-01
      21    -1     0     0   511   501  0.000000000E+00  0.000000000E+00  1.129163861E+02  1.129163861E+02  0.000000000E+00  0.00000E+00  9.000E+00
      21    -1     0     0   501   502  0.000000000E+00  0.000000000E+00 -4.271269866E+02  4.271269866E+02  0.000000000E+00  0.00000E+00  9.000E+00
      25     1     1     2     0     0 -1.046996029E+02  9.087756594E+01 -2.710276670E+02  3.290922897E+02  1.250000000E+02  0.00000E+00  9.000E+00
      25     1     1     2     0     0  1.127648452E+02 -9.720260429E+01 -4.703101728E+01  2.000029329E+02  1.250000000E+02  0.00000E+00  9.000E+00
      21     1     1     2   511   502 -8.065242232E+00  6.325038346E+00  3.848083818E+00  1.094815014E+01  2.064765462E-07  0.00000E+00  9.000E+00
#rwgt            1           1   2.8199514702996011E-002           3      174738           0
</event>
<event>
      5   9999  3.19816E-02  8.72782E+01 -1.00000E+00  1.26545E-01
      21    -1     0     0   502   501  0.000000000E+00  0.000000000E+00  5.911412182E+02  5.911412182E+02  0.000000000E+00  0.00000E+00  9.000E+00
      21    -1     0     0   512   502  0.000000000E+00  0.000000000E+00 -8.450034612E+02  8.450034612E+02  0.000000000E+00  0.00000E+00  9.000E+00
      25     1     1     2     0     0 -1.948936284E+02 -8.787315888E+01  3.668985280E+02  4.426564675E+02  1.250000000E+02  0.00000E+00  9.000E+00
      25     1     1     2     0     0  1.257385457E+02  3.462795176E+01  1.394948929E+02  2.282391335E+02  1.250000000E+02  0.00000E+00  9.000E+00
      21     1     1     2   512   501  6.915508264E+01  5.324520712E+01 -7.602556638E+02  7.652490784E+02  1.078959322E-05  0.00000E+00  9.000E+00
#rwgt            1           1   2.5190406929029747E-002           3      174999           0
</event>
<event>
      5   9999  3.19816E-02  2.35821E+01 -1.00000E+00  1.60674E-01
      21    -1     0     0   502   501  0.000000000E+00  0.000000000E+00  7.269056745E+01  7.269056745E+01  0.000000000E+00  0.00000E+00  9.000E+00
      21    -1     0     0   511   502  0.000000000E+00  0.000000000E+00 -7.439158148E+02  7.439158148E+02  0.000000000E+00  0.00000E+00  9.000E+00
      25     1     1     2     0     0 -6.124796276E+01 -9.814211044E+01 -7.175349566E+01  1.848154510E+02  1.250000000E+02  0.00000E+00  9.000E+00
      25     1     1     2     0     0  3.774662582E+01  1.000927114E+02 -4.250204344E+02  4.557529246E+02  1.250000000E+02  0.00000E+00  9.000E+00
      21     1     1     2   511   501  2.350133694E+01 -1.950600924E+00 -1.744513173E+02  1.760380066E+02  1.907348633E-06  0.00000E+00  9.000E+00
#rwgt            1           1   2.2683169679917219E-002           3      175065           0
</event>
<event>
      5   9999  3.19816E-02  5.28424E+01 -1.00000E+00  1.37719E-01
      21    -1     0     0   502   501  0.000000000E+00  0.000000000E+00  1.045869410E+03  1.045869410E+03  0.000000000E+00  0.00000E+00  9.000E+00
      21    -1     0     0   512   502  0.000000000E+00  0.000000000E+00 -8.588282343E+01  8.588282343E+01  0.000000000E+00  0.00000E+00  9.000E+00
      25     1     1     2     0     0 -2.459714342E+01 -8.056289064E+01  1.057486386E+02  1.841281439E+02  1.250000000E+02  0.00000E+00  9.000E+00
      25     1     1     2     0     0  5.084578111E+01  1.264249961E+02  8.723735044E+02  8.917561911E+02  1.250000000E+02  0.00000E+00  9.000E+00
      21     1     1     2   512   501 -2.624863769E+01 -4.586210543E+01 -1.813555627E+01  5.586789862E+01  5.331201500E-07  0.00000E+00  9.000E+00
#rwgt            1           1   3.0501290510216553E-002           3      175192           0
</event>
<event>
      5   9999  3.19816E-02  8.07456E+01 -1.00000E+00  1.28155E-01
      21    -1     0     0   511   501  0.000000000E+00  0.000000000E+00  1.176835477E+03  1.176835477E+03  0.000000000E+00  0.00000E+00  9.000E+00
      21    -1     0     0   501   502  0.000000000E+00  0.000000000E+00 -2.046376882E+02  2.046376882E+02  0.000000000E+00  0.00000E+00  9.000E+00
      25     1     1     2     0     0 -2.162344618E+01 -1.459173615E+02  6.256523160E+02  6.548475169E+02  1.250000000E+02  0.00000E+00  9.000E+00
      25     1     1     2     0     0 -9.473651956E+00  2.204346748E+02 -1.001827538E+02  2.726587246E+02  1.250000000E+02  0.00000E+00  9.000E+00
      21     1     1     2   511   502  3.109709813E+01 -7.451731329E+01  4.467282269E+02  4.539669241E+02  7.629394531E-06  0.00000E+00  9.000E+00
#rwgt            1           1   3.0296597875837352E-002           3      175306           0
</event>
<event>
      5   9999  3.19816E-02  8.61009E+01 -1.00000E+00  1.26823E-01
      21    -1     0     0   512   501  0.000000000E+00  0.000000000E+00  7.710481404E+02  7.710481404E+02  0.000000000E+00  0.00000E+00  9.000E+00
      21    -1     0     0   501   502  0.000000000E+00  0.000000000E+00 -1.047237541E+03  1.047237541E+03  0.000000000E+00  0.00000E+00  9.000E+00
      25     1     1     2     0     0  4.383117220E+02 -5.564316323E+02  2.222047887E+02  7.528169068E+02  1.250000000E+02  0.00000E+00  9.000E+00
      25     1     1     2     0     0 -4.039422487E+02  6.353753164E+02 -5.707337416E+02  9.530126635E+02  1.250000000E+02  0.00000E+00  9.000E+00
      21     1     1     2   512   502 -3.436947333E+01 -7.894368419E+01  7.233955260E+01  1.124561107E+02  0.000000000E+00  0.00000E+00  9.000E+00
#rwgt            1           1   3.0010163411131090E-002           3      175382           0
</event>
<event>
      5   9999  3.19816E-02  1.49946E+02 -1.00000E+00  1.16400E-01
       2    -1     0     0   502     0  0.000000000E+00  0.000000000E+00  6.786482676E+02  6.786482676E+02  0.000000000E+00  0.00000E+00  9.000E+00
      21    -1     0     0   501   502  0.000000000E+00  0.000000000E+00 -6.803751699E+02  6.803751699E+02  0.000000000E+00  0.00000E+00  9.000E+00
      25     1     1     2     0     0 -3.019741584E+02 -1.522797628E+02 -4.484068768E+02  5.753879088E+02  1.250000000E+02  0.00000E+00  9.000E+00
      25     1     1     2     0     0  4.519051435E+02  1.544282986E+02  3.520567694E+02  6.063293882E+02  1.250000000E+02  0.00000E+00  9.000E+00
       2     1     1     2   501     0 -1.499309851E+02 -2.148535776E+00  9.462320516E+01  1.773061405E+02  1.907348633E-06  0.00000E+00  9.000E+00
#rwgt            1           1   2.9780704392780175E-002           3      175522           0
</event>
<event>
      5   9999  3.19816E-02  3.09499E+01 -1.00000E+00  1.52105E-01
       2    -1     0     0   502     0  0.000000000E+00  0.000000000E+00  8.513988026E+02  8.513988026E+02  0.000000000E+00  0.00000E+00  9.000E+00
      21    -1     0     0   501   502  0.000000000E+00  0.000000000E+00 -9.687358498E+01  9.687358498E+01  0.000000000E+00  0.00000E+00  9.000E+00
      25     1     1     2     0     0 -2.208833282E+02 -6.107772577E+01  2.475581867E+02  3.597637962E+02  1.250000000E+02  0.00000E+00  9.000E+00
      25     1     1     2     0     0  2.164715385E+02  3.044385639E+01  3.665042007E+02  4.446763817E+02  1.250000000E+02  0.00000E+00  9.000E+00
       2     1     1     2   501     0  4.411789752E+00  3.063386938E+01  1.404628303E+02  1.438322097E+02  1.907348633E-06  0.00000E+00  9.000E+00
#rwgt            1           1   3.2651302444754192E-002           3      175577           0
</event>
<event>
      5   9999  3.19816E-02  7.63920E+01 -1.00000E+00  1.29327E-01
      21    -1     0     0   502   501  0.000000000E+00  0.000000000E+00  7.637001581E+02  7.637001581E+02  0.000000000E+00  0.00000E+00  9.000E+00
      21    -1     0     0   501   511  0.000000000E+00  0.000000000E+00 -2.281481764E+02  2.281481764E+02  0.000000000E+00  0.00000E+00  9.000E+00
      25     1     1     2     0     0  1.170000771E+02 -1.543797107E+02  7.034494048E+01  2.410301304E+02  1.250000000E+02  0.00000E+00  9.000E+00
      25     1     1     2     0     0 -1.121908060E+02  2.306201567E+02  5.603512319E+02  6.288011901E+02  1.250000000E+02  0.00000E+00  9.000E+00
      21     1     1     2   502   511 -4.809271136E+00 -7.624044608E+01 -9.514419063E+01  1.220170140E+02  0.000000000E+00  0.00000E+00  9.000E+00
#rwgt            1           1   2.8981662735046897E-002           3      175702           0
</event>
<event>
      5   9999  3.19816E-02  2.73435E+01 -1.00000E+00  1.55890E-01
      21    -1     0     0   512   501  0.000000000E+00  0.000000000E+00  6.344032068E+02  6.344032068E+02  0.000000000E+00  0.00000E+00  9.000E+00
      21    -1     0     0   501   502  0.000000000E+00  0.000000000E+00 -9.478145585E+02  9.478145585E+02  0.000000000E+00  0.00000E+00  9.000E+00
      25     1     1     2     0     0  2.443282475E+02  2.750095934E+02 -7.150465510E+02  8.137832261E+02  1.250000000E+02  0.00000E+00  9.000E+00
      25     1     1     2     0     0 -2.267938903E+02 -2.959908953E+02  2.851614705E+01  3.943149115E+02  1.250000000E+02  0.00000E+00  9.000E+00
      21     1     1     2   512   502 -1.753435720E+01  2.098130187E+01  3.731190523E+02  3.741196278E+02  5.394796609E-06  0.00000E+00  9.000E+00
#rwgt            1           1   2.8499557710342422E-002           3      175780           0
</event>
<event>
      5   9999  3.19816E-02  1.25705E+02 -1.00000E+00  1.19518E-01
      21    -1     0     0   502   501  0.000000000E+00  0.000000000E+00  5.516075409E+02  5.516075409E+02  0.000000000E+00  0.00000E+00  9.000E+00
       2    -1     0     0   501     0  0.000000000E+00  0.000000000E+00 -1.576453007E+03  1.576453007E+03  0.000000000E+00  0.00000E+00  9.000E+00
      25     1     1     2     0     0 -1.898127727E+02 -2.428943656E+02 -2.486177444E+01  3.335710859E+02  1.250000000E+02  0.00000E+00  9.000E+00
      25     1     1     2     0     0  2.107887903E+02  1.189518760E+02  3.472807835E+02  4.413733177E+02  1.250000000E+02  0.00000E+00  9.000E+00
       2     1     1     2   502     0 -2.097601761E+01  1.239424895E+02 -1.347264475E+03  1.353116145E+03  1.525878906E-05  0.00000E+00  9.000E+00
#rwgt            2          13   7.7290969259432279E-003           3      175982           0
</event>
<event>
      5   9999  3.19816E-02  1.13043E+02 -1.00000E+00  1.21480E-01
      21    -1     0     0   502   501  0.000000000E+00  0.000000000E+00  1.264074859E+03  1.264074859E+03  0.000000000E+00  0.00000E+00  9.000E+00
      21    -1     0     0   511   502  0.000000000E+00  0.000000000E+00 -7.802605535E+01  7.802605535E+01  0.000000000E+00  0.00000E+00  9.000E+00
      25     1     1     2     0     0 -2.380383321E+02 -9.581030638E+01  6.293187242E+02  6.910202016E+02  1.250000000E+02  0.00000E+00  9.000E+00
      25     1     1     2     0     0  1.306006616E+02  1.309666773E+02  3.958365722E+02  4.544451510E+02  1.250000000E+02  0.00000E+00  9.000E+00
      21     1     1     2   511   501  1.074376705E+02 -3.515637095E+01  1.608935072E+02  1.966355617E+02  0.000000000E+00  0.00000E+00  9.000E+00
#rwgt            1           1   2.6113800409092409E-002           3      176001           0
</event>
<event>
      5   9999  3.19816E-02  1.50697E+02 -1.00000E+00  1.16314E-01
      21    -1     0     0   502   501  0.000000000E+00  0.000000000E+00  1.184712106E+03  1.184712106E+03  0.000000000E+00  0.00000E+00  9.000E+00
      21    -1     0     0   501   512  0.000000000E+00  0.000000000E+00 -5.526860455E+02  5.526860455E+02  0.000000000E+00  0.00000E+00  9.000E+00
      25     1     1     2     0     0 -3.606084489E+02 -3.864163593E+02  7.003870364E+02  8.862973863E+02  1.250000000E+02  0.00000E+00  9.000E+00
      25     1     1     2     0     0  2.109354047E+02  4.039526952E+02  2.234232478E+02  5.226992180E+02  1.250000000E+02  0.00000E+00  9.000E+00
      21     1     1     2   502   512  1.496730441E+02 -1.753633582E+01 -2.917842235E+02  3.284015474E+02  6.607249480E-06  0.00000E+00  9.000E+00
#rwgt            1           1   2.4152735616935088E-002           3      176049           0
</event>
<event>
      5   9999  3.19816E-02  2.37011E+02 -1.00000E+00  1.09028E-01
      21    -1     0     0   502   501  0.000000000E+00  0.000000000E+00  3.366546619E+02  3.366546619E+02  0.000000000E+00  0.00000E+00  9.000E+00
      21    -1     0     0   511   502  0.000000000E+00  0.000000000E+00 -5.558506209E+02  5.558506209E+02  0.000000000E+00  0.00000E+00  9.000E+00
      25     1     1     2     0     0  2.931827133E+02 -9.424339758E+00  1.102536189E+02  3.373807672E+02  1.250000000E+02  0.00000E+00  9.000E+00
      25     1     1     2     0     0 -7.209428329E+01 -7.598231038E+01 -2.621612649E+02  3.087465400E+02  1.250000000E+02  0.00000E+00  9.000E+00
      21     1     1     2   511   501 -2.210884300E+02  8.540665014E+01 -6.728831300E+01  2.463779756E+02  1.348699152E-06  0.00000E+00  9.000E+00
#rwgt            2          11   3.3738304880375374E-003           3      176312           0
</event>
<event>
      5   9999  3.19816E-02  3.66406E+01 -1.00000E+00  1.47243E-01
      21    -1     0     0   502   501  0.000000000E+00  0.000000000E+00  9.565198661E+02  9.565198661E+02  0.000000000E+00  0.00000E+00  9.000E+00
      21    -1     0     0   501   512  0.000000000E+00  0.000000000E+00 -1.469154102E+02  1.469154102E+02  0.000000000E+00  0.00000E+00  9.000E+00
      25     1     1     2     0     0 -1.348437160E+02 -2.722458536E+02  2.676765210E+02  4.237645012E+02  1.250000000E+02  0.00000E+00  9.000E+00
      25     1     1     2     0     0  1.678089802E+02  2.882404573E+02  5.344657091E+02  6.422779844E+02  1.250000000E+02  0.00000E+00  9.000E+00
      21     1     1     2   502   512 -3.296526417E+01 -1.599460372E+01  7.462225774E+00  3.739279080E+01  8.041106202E-07  0.00000E+00  9.000E+00
#rwgt            1           1   2.7449919130532168E-002           3      176332           0
</event>
<event>
      5   9999  3.19816E-02  1.12926E+02 -1.00000E+00  1.21499E-01
      21    -1     0     0   502   501  0.000000000E+00  0.000000000E+00  8.736945096E+02  8.736945096E+02  0.000000000E+00  0.00000E+00  9.000E+00
      21    -1     0     0   501   511  0.000000000E+00  0.000000000E+00 -9.275446962E+02  9.275446962E+02  0.000000000E+00  0.00000E+00  9.000E+00
      25     1     1     2     0     0  2.778709846E+02  2.395080667E+02  1.607197057E+02  4.195619405E+02  1.250000000E+02  0.00000E+00  9.000E+00
      25     1     1     2     0     0 -3.194335498E+02 -1.345085689E+02  5.206510006E+02  6.378344709E+02  1.250000000E+02  0.00000E+00  9.000E+00
      21     1     1     2   502   511  4.156256519E+01 -1.049994979E+02 -7.352208930E+02  7.438427945E+02  1.078959322E-05  0.00000E+00  9.000E+00
#rwgt            1           1   2.8674040229788016E-002           3      176459           0
</event>
<event>
      5   9999  3.19816E-02  6.23878E+01 -1.00000E+00  1.33804E-01
      21    -1     0     0   502   501  0.000000000E+00  0.000000000E+00  9.688514594E+01  9.688514594E+01  0.000000000E+00  0.00000E+00  9.000E+00
      21    -1     0     0   512   502  0.000000000E+00  0.000000000E+00 -9.905541664E+02  9.905541664E+02  0.000000000E+00  0.00000E+00  9.000E+00
      25     1     1     2     0     0  6.168221596E+01  1.537563539E+02 -9.994822055E+01  2.303483426E+02  1.250000000E+02  0.00000E+00  9.000E+00
      25     1     1     2     0     0 -8.791644600E+01 -2.103602526E+02 -6.657403316E+02  7.147138774E+02  1.250000000E+02  0.00000E+00  9.000E+00
      21     1     1     2   512   501  2.623423005E+01  5.660389867E+01 -1.279804683E+02  1.423770924E+02  2.336015456E-06  0.00000E+00  9.000E+00
#rwgt            1           1   3.4177861592618188E-002           3      176540           0
</event>
<event>
      5   9999  3.19816E-02  1.88661E+01 -1.00000E+00  1.68488E-01
      21    -1     0     0   502   511  0.000000000E+00  0.000000000E+00  2.082276009E+02  2.082276009E+02  0.000000000E+00  0.00000E+00  9.000E+00
      21    -1     0     0   501   502  0.000000000E+00  0.000000000E+00 -3.959340994E+02  3.959340994E+02  0.000000000E+00  0.00000E+00  9.000E+00
      25     1     1     2     0     0 -3.355325031E+01 -1.846647021E+02 -2.688047771E+02  3.508673268E+02  1.250000000E+02  0.00000E+00  9.000E+00
      25     1     1     2     0     0  3.296937608E+01  1.658076495E+02  4.871729643E+01  2.158182832E+02  1.250000000E+02  0.00000E+00  9.000E+00
      21     1     1     2   501   511  5.838742369E-01  1.885705256E+01  3.238098222E+01  3.747609038E+01  4.768371582E-07  0.00000E+00  9.000E+00
#rwgt            2          11   9.1861802499184925E-004           3      176844           0
</event>
<event>
      5   9999  3.19816E-02  3.57367E+01 -1.00000E+00  1.47943E-01
      21    -1     0     0   502   512  0.000000000E+00  0.000000000E+00  3.711546032E+02  3.711546032E+02  0.000000000E+00  0.00000E+00  9.000E+00
      21    -1     0     0   501   502  0.000000000E+00  0.000000000E+00 -2.851395909E+02  2.851395909E+02  0.000000000E+00  0.00000E+00  9.000E+00
      25     1     1     2     0     0  1.360004418E+02 -1.296569183E+02  3.529785977E+00  2.257088745E+02  1.250000000E+02  0.00000E+00  9.000E+00
      25     1     1     2     0     0 -1.012094338E+02  1.214901059E+02 -1.135307257E+02  2.313383258E+02  1.250000000E+02  0.00000E+00  9.000E+00
      21     1     1     2   501   512 -3.479100804E+01  8.166812449E+00  1.960159520E+02  1.992469937E+02  2.697398305E-06  0.00000E+00  9.000E+00
#rwgt            1           1   2.9043168845240625E-002           3      176864           0
</event>
<event>
      5   9999  3.19816E-02  1.15785E+02 -1.00000E+00  1.21031E-01
      21    -1     0     0   502   501  0.000000000E+00  0.000000000E+00  4.389923114E+02  4.389923114E+02  0.000000000E+00  0.00000E+00  9.000E+00
       1    -1     0     0   501     0  0.000000000E+00  0.000000000E+00 -9.780470474E+02  9.780470474E+02  0.000000000E+00  0.00000E+00  9.000E+00
      25     1     1     2     0     0  4.000016297E+02  3.986448558E+02 -1.061709405E+01  5.784952442E+02  1.250000000E+02  0.00000E+00  9.000E+00
      25     1     1     2     0     0 -3.749876386E+02 -2.855937162E+02 -2.748509456E+02  5.597745458E+02  1.250000000E+02  0.00000E+00  9.000E+00
       1     1     1     2   502     0 -2.501399104E+01 -1.130511396E+02 -2.535866964E+02  2.787695688E+02  3.814697266E-06  0.00000E+00  9.000E+00
#rwgt            1           1   3.0164208304281820E-002           3      176936           0
</event>
<event>
      5   9999  3.19816E-02  1.51311E+02 -1.00000E+00  1.16244E-01
      21    -1     0     0   502   501  0.000000000E+00  0.000000000E+00  3.835583777E+02  3.835583777E+02  0.000000000E+00  0.00000E+00  9.000E+00
      21    -1     0     0   511   502  0.000000000E+00  0.000000000E+00 -4.270596227E+02  4.270596227E+02  0.000000000E+00  0.00000E+00  9.000E+00
      25     1     1     2     0     0 -5.817530908E+01 -2.298182121E+02  1.935183983E+02  3.305679169E+02  1.250000000E+02  0.00000E+00  9.000E+00
      25     1     1     2     0     0  1.687316371E+02  1.265117233E+02 -2.170423716E+02  3.274262857E+02  1.250000000E+02  0.00000E+00  9.000E+00
      21     1     1     2   511   501 -1.105563280E+02  1.033064888E+02 -1.997727174E+01  1.526237978E+02  2.611744678E-06  0.00000E+00  9.000E+00
#rwgt            1           1   2.9192132359112267E-002           3      176995           0
</event>
<event>
      5   9999  3.19816E-02  3.05277E+02 -1.00000E+00  1.05347E-01
      21    -1     0     0   502   501  0.000000000E+00  0.000000000E+00  4.845910882E+02  4.845910882E+02  0.000000000E+00  0.00000E+00  9.000E+00
      21    -1     0     0   501   512  0.000000000E+00  0.000000000E+00 -8.597326995E+02  8.597326995E+02  0.000000000E+00  0.00000E+00  9.000E+00
      25     1     1     2     0     0 -3.948867677E+02  2.145906597E+02 -1.242933239E+02  4.827613706E+02  1.250000000E+02  0.00000E+00  9.000E+00
      25     1     1     2     0     0  2.060474194E+02 -4.544524461E+02 -1.133056138E+02  5.267311714E+02  1.250000000E+02  0.00000E+00  9.000E+00
      21     1     1     2   502   512  1.888393483E+02  2.398617864E+02 -1.375426736E+02  3.348312457E+02  3.303624740E-06  0.00000E+00  9.000E+00
#rwgt            2          11   3.6778749638354297E-003           3      177040           0
</event>
<event>
      5   9999  3.19816E-02  1.98357E+02 -1.00000E+00  1.11779E-01
      21    -1     0     0   502   501  0.000000000E+00  0.000000000E+00  4.045870712E+02  4.045870712E+02  0.000000000E+00  0.00000E+00  9.000E+00
      21    -1     0     0   501   511  0.000000000E+00  0.000000000E+00 -1.162388954E+03  1.162388954E+03  0.000000000E+00  0.00000E+00  9.000E+00
      25     1     1     2     0     0 -5.303371914E+02 -7.203799550E+01  1.528013261E+01  5.498231460E+02  1.250000000E+02  0.00000E+00  9.000E+00
      25     1     1     2     0     0  4.269262285E+02 -9.723020899E+01 -4.656727938E+02  6.513032082E+02  1.250000000E+02  0.00000E+00  9.000E+00
      21     1     1     2   502   511  1.034109629E+02  1.692682045E+02 -3.074092221E+02  3.658496715E+02  5.394796609E-06  0.00000E+00  9.000E+00
#rwgt            1           1   3.1656385587249918E-002           3      177135           0
</event>
<event>
      5   9999  3.19816E-02  4.20096E+01 -1.00000E+00  1.43532E-01
      21    -1     0     0   502   512  0.000000000E+00  0.000000000E+00  1.443759532E+03  1.443759532E+03  0.000000000E+00  0.00000E+00  9.000E+00
      21    -1     0     0   501   502  0.000000000E+00  0.000000000E+00 -1.747053597E+02  1.747053597E+02  0.000000000E+00  0.00000E+00  9.000E+00
      25     1     1     2     0     0 -4.462829318E+01 -4.212755466E+02  3.037864843E+02  5.360746205E+02  1.250000000E+02  0.00000E+00  9.000E+00
      25     1     1     2     0     0  3.490387504E+00  4.297891821E+02  8.884229664E+02  9.948121889E+02  1.250000000E+02  0.00000E+00  9.000E+00
      21     1     1     2   501   512  4.113790568E+01 -8.513635517E+00  7.684472145E+01  8.757808223E+01  1.348699152E-06  0.00000E+00  9.000E+00
#rwgt            1           1   2.7675972231347507E-002           3      177197           0
</event>
<event>
      5   9999  3.19816E-02  1.75562E+01 -1.00000E+00  1.71179E-01
      21    -1     0     0   502   511  0.000000000E+00  0.000000000E+00  6.036633355E+02  6.036633355E+02  0.000000000E+00  0.00000E+00  9.000E+00
      21    -1     0     0   501   502  0.000000000E+00  0.000000000E+00 -1.903753002E+02  1.903753002E+02  0.000000000E+00  0.00000E+00  9.000E+00
      25     1     1     2     0     0  6.431709392E+01  1.426392069E+02 -1.125706855E+02  2.297385278E+02  1.250000000E+02  0.00000E+00  9.000E+00
      25     1     1     2     0     0 -5.900034349E+01 -1.259074124E+02  4.736193029E+02  5.091895139E+02  1.250000000E+02  0.00000E+00  9.000E+00
      21     1     1     2   501   511 -5.316750431E+00 -1.673179453E+01  5.223941789E+01  5.511059394E+01  6.743495762E-07  0.00000E+00  9.000E+00
#rwgt            1           1   2.8689397968635809E-002           3      177294           0
</event>
<event>
      5   9999  3.19816E-02  1.49117E+02 -1.00000E+00  1.16495E-01
      21    -1     0     0   502   512  0.000000000E+00  0.000000000E+00  1.460315833E+03  1.460315833E+03  0.000000000E+00  0.00000E+00  9.000E+00
      21    -1     0     0   501   502  0.000000000E+00  0.000000000E+00 -5.629524587E+02  5.629524587E+02  0.000000000E+00  0.00000E+00  9.000E+00
      25     1     1     2     0     0 -5.908642739E+02  3.881097024E+02 -2.075281867E+01  7.181959418E+02  1.250000000E+02  0.00000E+00  9.000E+00
      25     1     1     2     0     0  6.600950543E+02 -2.560381416E+02  5.416868939E+02  9.001837044E+02  1.250000000E+02  0.00000E+00  9.000E+00
      21     1     1     2   501   512 -6.923078036E+01 -1.320715608E+02  3.764292990E+02  4.048886455E+02  5.394796609E-06  0.00000E+00  9.000E+00
#rwgt            2          11   3.8893160076055688E-003           3      177604           0
</event>
<event>
      5   9999  3.19816E-02  2.24688E+01 -1.00000E+00  1.62304E-01
      21    -1     0     0   502   501  0.000000000E+00  0.000000000E+00  4.170029892E+02  4.170029892E+02  0.000000000E+00  0.00000E+00  9.000E+00
      21    -1     0     0   501   511  0.000000000E+00  0.000000000E+00 -2.865826216E+02  2.865826216E+02  0.000000000E+00  0.00000E+00  9.000E+00
      25     1     1     2     0     0  2.305755988E+02 -9.298672976E+01  5.216618904E+01  2.831217935E+02  1.250000000E+02  0.00000E+00  9.000E+00
      25     1     1     2     0     0 -2.354769154E+02  7.105906598E+01  1.712906692E+02  3.247526165E+02  1.250000000E+02  0.00000E+00  9.000E+00
      21     1     1     2   502   511  4.901316606E+00  2.192766378E+01 -9.303649075E+01  9.571120078E+01  1.348699152E-06  0.00000E+00  9.000E+00
#rwgt            1           1   2.7057313395689314E-002           3      177684           0
</event>
<event>
      5   9999  3.19816E-02  5.18091E+01 -1.00000E+00  1.38200E-01
      21    -1     0     0   502   512  0.000000000E+00  0.000000000E+00  3.760747621E+02  3.760747621E+02  0.000000000E+00  0.00000E+00  9.000E+00
      21    -1     0     0   501   502  0.000000000E+00  0.000000000E+00 -3.699944906E+02  3.699944906E+02  0.000000000E+00  0.00000E+00  9.000E+00
      25     1     1     2     0     0 -1.131472918E+02 -3.112659685E+02 -1.074470912E+02  3.699441717E+02  1.250000000E+02  0.00000E+00  9.000E+00
      25     1     1     2     0     0  1.012117418E+02  2.608504664E+02  1.026594445E+02  3.231884033E+02  1.250000000E+02  0.00000E+00  9.000E+00
      21     1     1     2   501   512  1.193555002E+01  5.041550210E+01  1.086791813E+01  5.293667775E+01  9.310543151E-07  0.00000E+00  9.000E+00
#rwgt            1           1   2.6805726586504559E-002           3      177808           0
</event>
<event>
      5   9999  3.19816E-02  2.26456E+01 -1.00000E+00  1.62037E-01
      21    -1     0     0   502   501  0.000000000E+00  0.000000000E+00  4.843050068E+02  4.843050068E+02  0.000000000E+00  0.00000E+00  9.000E+00
      21    -1     0     0   501   511  0.000000000E+00  0.000000000E+00 -6.131556344E+02  6.131556344E+02  0.000000000E+00  0.00000E+00  9.000E+00
      25     1     1     2     0     0 -5.221130820E+02 -2.882418593E+01 -1.063333683E+02  5.480553707E+02  1.250000000E+02  0.00000E+00  9.000E+00
      25     1     1     2     0     0  5.088945549E+02  4.721152837E+01 -1.899060232E+01  5.264866944E+02  1.250000000E+02  0.00000E+00  9.000E+00
      21     1     1     2   502   511  1.321852711E+01 -1.838734244E+01 -3.526656954E+00  2.291857610E+01  2.064765462E-07  0.00000E+00  9.000E+00
#rwgt            1           1   3.0766528796468805E-002           3      177900           0
</event>
<event>
      5   9999  3.19816E-02  8.07499E+01 -1.00000E+00  1.28154E-01
      21    -1     0     0   502   501  0.000000000E+00  0.000000000E+00  3.300691241E+02  3.300691241E+02  0.000000000E+00  0.00000E+00  9.000E+00
      -1    -1     0     0     0   502  0.000000000E+00  0.000000000E+00 -3.395524857E+02  3.395524857E+02  0.000000000E+00  0.00000E+00  9.000E+00
      25     1     1     2     0     0 -1.470225801E+01  1.330312389E+02 -1.884693200E+02  2.627910795E+02  1.250000000E+02  0.00000E+00  9.000E+00
      25     1     1     2     0     0  7.294214636E+01 -1.889656952E+02  2.128096845E+02  3.192828722E+02  1.250000000E+02  0.00000E+00  9.000E+00
      -1     1     1     2     0   501 -5.823988836E+01  5.593445627E+01 -3.382372603E+01  8.754765809E+01  1.651812370E-06  0.00000E+00  9.000E+00
#rwgt            1           1   2.6766466209836519E-002           3      178090           0
</event>
<event>
      5   9999  3.19816E-02  1.69455E+02 -1.00000E+00  1.14332E-01
      21    -1     0     0   511   501  0.000000000E+00  0.000000000E+00  4.206385133E+02  4.206385133E+02  0.000000000E+00  0.00000E+00  9.000E+00
      21    -1     0     0   501   502  0.000000000E+00  0.000000000E+00 -5.874383745E+02  5.874383745E+02  0.000000000E+00  0.00000E+00  9.000E+00
      25     1     1     2     0     0 -1.812267104E+02  2.236481967E+02  1.500344028E+02  3.478461707E+02  1.250000000E+02  0.00000E+00  9.000E+00
      25     1     1     2     0     0  2.337333512E+02 -6.253281883E+01 -3.899833027E+02  4.756612338E+02  1.250000000E+02  0.00000E+00  9.000E+00
      21     1     1     2   511   502 -5.250664079E+01 -1.611153778E+02  7.314903870E+01  1.845694833E+02  1.348699152E-06  0.00000E+00  9.000E+00
#rwgt            1           1   2.7106242221917761E-002           3      178159           0
</event>
<event>
      5   9999  3.19816E-02  4.35685E+01 -1.00000E+00  1.42575E-01
      21    -1     0     0   502   512  0.000000000E+00  0.000000000E+00  8.594956877E+02  8.594956877E+02  0.000000000E+00  0.00000E+00  9.000E+00
      21    -1     0     0   501   502  0.000000000E+00  0.000000000E+00 -6.563500245E+01  6.563500245E+01  0.000000000E+00  0.00000E+00  9.000E+00
      25     1     1     2     0     0 -1.706482223E+02  6.295940111E+01  2.792486734E+02  3.559347181E+02  1.250000000E+02  0.00000E+00  9.000E+00
      25     1     1     2     0     0  1.539652635E+02 -2.271151998E+01  4.183075934E+02  4.634947229E+02  1.250000000E+02  0.00000E+00  9.000E+00
      21     1     1     2   501   512  1.668295879E+01 -4.024788113E+01  9.630441847E+01  1.057012491E+02  1.348699152E-06  0.00000E+00  9.000E+00
#rwgt            1           1   3.2758748879383723E-002           3      178213           0
</event>
<event>
      5   9999  3.19816E-02  2.41407E+02 -1.00000E+00  1.08752E-01
       1    -1     0     0   502     0  0.000000000E+00  0.000000000E+00  1.462864839E+03  1.462864839E+03  0.000000000E+00  0.00000E+00  9.000E+00
      21    -1     0     0   501   502  0.000000000E+00  0.000000000E+00 -1.270355551E+02  1.270355551E+02  0.000000000E+00  0.00000E+00  9.000E+00
      25     1     1     2     0     0 -1.346135717E+02  4.855895666E+01  1.342800392E+02  2.326691103E+02  1.250000000E+02  0.00000E+00  9.000E+00
      25     1     1     2     0     0  2.740445916E+02 -2.456285322E+02  7.020322723E+02  8.024388608E+02  1.250000000E+02  0.00000E+00  9.000E+00
       1     1     1     2   501     0 -1.394310199E+02  1.970695756E+02  4.995169726E+02  5.547924232E+02  5.394796609E-06  0.00000E+00  9.000E+00
#rwgt            1           1   2.9425755998607989E-002           3      178319           0
</event>
<event>
      5   9999  3.19816E-02  2.14181E+02 -1.00000E+00  1.10576E-01
      21    -1     0     0   502   501  0.000000000E+00  0.000000000E+00  6.496582628E+02  6.496582628E+02  0.000000000E+00  0.00000E+00  9.000E+00
      21    -1     0     0   501   511  0.000000000E+00  0.000000000E+00 -5.484736350E+02  5.484736350E+02  0.000000000E+00  0.00000E+00  9.000E+00
      25     1     1     2     0     0  1.989746872E+02  4.620745606E+02  8.924570612E+01  5.260167505E+02  1.250000000E+02  0.00000E+00  9.000E+00
      25     1     1     2     0     0  9.148233350E+00 -4.114927620E+02  9.818651010E+01  4.412205504E+02  1.250000000E+02  0.00000E+00  9.000E+00
      21     1     1     2   502   511 -2.081229205E+02 -5.058179865E+01 -8.624758840E+01  2.308945969E+02  2.523185073E-06  0.00000E+00  9.000E+00
#rwgt            1           1   2.9348860429540092E-002           3      178371           0
</event>
<event>
      5   9999  3.19816E-02  4.40445E+01 -1.00000E+00  1.42293E-01
      21    -1     0     0   502   512  0.000000000E+00  0.000000000E+00  2.512790608E+03  2.512790608E+03  0.000000000E+00  0.00000E+00  9.000E+00
      21    -1     0     0   501   502  0.000000000E+00  0.000000000E+00 -9.762703554E+01  9.762703554E+01  0.000000000E+00  0.00000E+00  9.000E+00
      25     1     1     2     0     0  9.871867518E+01 -3.290053995E+02  4.570264563E+02  5.852248384E+02  1.250000000E+02  0.00000E+00  9.000E+00
      25     1     1     2     0     0 -5.833476123E+01  3.465854941E+02  1.020809354E+03  1.086830799E+03  1.250000000E+02  0.00000E+00  9.000E+00
      21     1     1     2   501   512 -4.038391394E+01 -1.758009456E+01  9.373277627E+02  9.383620064E+02  0.000000000E+00  0.00000E+00  9.000E+00
#rwgt            1           1   2.8777304877245138E-002           3      178415           0
</event>
<event>
      5   9999  3.19816E-02  1.01140E+02 -1.00000E+00  1.23607E-01
      21    -1     0     0   502   501  0.000000000E+00  0.000000000E+00  3.949554779E+02  3.949554779E+02  0.000000000E+00  0.00000E+00  9.000E+00
       3    -1     0     0   501     0  0.000000000E+00  0.000000000E+00 -3.076171293E+02  3.076171293E+02  0.000000000E+00  0.00000E+00  9.000E+00
      25     1     1     2     0     0  1.080645243E+02  1.566928690E+02  2.680614471E+02  3.517279290E+02  1.250000000E+02  0.00000E+00  9.000E+00
      25     1     1     2     0     0 -1.276797449E+01 -1.228130077E+02 -1.773509549E+02  2.496485875E+02  1.250000000E+02  0.00000E+00  9.000E+00
       3     1     1     2   502     0 -9.529654985E+01 -3.387986127E+01 -3.372143651E+00  1.011960907E+02  8.344650269E-07  0.00000E+00  9.000E+00
#rwgt            1           1   2.6024270364840715E-002           3      178547           0
</event>
<event>
      5   9999  3.19816E-02  9.70368E+01 -1.00000E+00  1.24418E-01
      21    -1     0     0   502   501  0.000000000E+00  0.000000000E+00  6.449009582E+02  6.449009582E+02  0.000000000E+00  0.00000E+00  9.000E+00
      21    -1     0     0   511   502  0.000000000E+00  0.000000000E+00 -2.041855176E+03  2.041855176E+03  0.000000000E+00  0.00000E+00  9.000E+00
      25     1     1     2     0     0 -4.059160034E+02 -1.068841707E+02 -1.210653886E+03  1.287439264E+03  1.250000000E+02  0.00000E+00  9.000E+00
      25     1     1     2     0     0  3.836126115E+02  2.013230671E+02  5.189189218E+02  6.874528787E+02  1.250000000E+02  0.00000E+00  9.000E+00
      21     1     1     2   511   501  2.230339189E+01 -9.443889632E+01 -7.052192538E+02  7.118639914E+02  0.000000000E+00  0.00000E+00  9.000E+00
#rwgt            1           1   3.0412807823889866E-002           3      178620           0
</event>
<event>
      5   9999  3.19816E-02  2.07434E+02 -1.00000E+00  1.11074E-01
      21    -1     0     0   512   501  0.000000000E+00  0.000000000E+00  6.689065113E+02  6.689065113E+02  0.000000000E+00  0.00000E+00  9.000E+00
      21    -1     0     0   501   502  0.000000000E+00  0.000000000E+00 -1.055492406E+03  1.055492406E+03  0.000000000E+00  0.00000E+00  9.000E+00
      25     1     1     2     0     0 -2.700724857E+02  3.052763864E+02 -1.264709262E+02  4.446939564E+02  1.250000000E+02  0.00000E+00  9.000E+00
      25     1     1     2     0     0  3.645825444E+02 -4.899297469E+02 -6.105022981E+02  8.725191371E+02  1.250000000E+02  0.00000E+00  9.000E+00
      21     1     1     2   512   502 -9.451005869E+01  1.846533604E+02  3.503873294E+02  4.071858241E+02  5.394796609E-06  0.00000E+00  9.000E+00
#rwgt            1           1   2.9833706732179874E-002           3      178688           0
</event>
<event>
      5   9999  3.19816E-02  5.65257E+01 -1.00000E+00  1.36102E-01
      21    -1     0     0   502   501  0.000000000E+00  0.000000000E+00  2.747547392E+03  2.747547392E+03  0.000000000E+00  0.00000E+00  9.000E+00
      21    -1     0     0   511   502  0.000000000E+00  0.000000000E+00 -7.702446007E+01  7.702446007E+01  0.000000000E+00  0.00000E+00  9.000E+00
      25     1     1     2     0     0 -4.316782350E+02  4.254414170E+01  1.204077880E+03  1.285917822E+03  1.250000000E+02  0.00000E+00  9.000E+00
      25     1     1     2     0     0  3.752547940E+02 -3.914489908E+01  1.373673469E+03  1.430018281E+03  1.250000000E+02  0.00000E+00  9.000E+00
      21     1     1     2   511   501  5.642344096E+01 -3.399242618E+00  9.277158215E+01  1.086357492E+02  1.348699152E-06  0.00000E+00  9.000E+00
#rwgt            2          11   9.1715514422345667E-003           3      178827           0
</event>
<event>
      5   9999  3.19816E-02  9.01627E+02 -1.00000E+00  9.20839E-02
       2    -1     0     0   502     0  0.000000000E+00  0.000000000E+00  1.858116129E+03  1.858116129E+03  0.000000000E+00  0.00000E+00  9.000E+00
      21    -1     0     0   501   502  0.000000000E+00  0.000000000E+00 -9.295534306E+02  9.295534306E+02  0.000000000E+00  0.00000E+00  9.000E+00
      25     1     1     2     0     0  5.536882675E+02 -1.428312774E+01 -2.678372234E+02  6.278029019E+02  1.250000000E+02  0.00000E+00  9.000E+00
      25     1     1     2     0     0 -1.929067230E+02  8.405804351E+02  4.082855847E+02  9.623463983E+02  1.250000000E+02  0.00000E+00  9.000E+00
       2     1     1     2   501     0 -3.607815446E+02 -8.262973074E+02  7.881143368E+02  1.197520259E+03  1.525878906E-05  0.00000E+00  9.000E+00
#rwgt            2          18   7.6486349402196370E-004           3      178937           0
</event>
<event>
      5   9999  3.19816E-02  2.70862E+02 -1.00000E+00  1.07054E-01
      21    -1     0     0   502   501  0.000000000E+00  0.000000000E+00  4.092170179E+02  4.092170179E+02  0.000000000E+00  0.00000E+00  9.000E+00
      21    -1     0     0   501   511  0.000000000E+00  0.000000000E+00 -1.900254994E+03  1.900254994E+03  0.000000000E+00  0.00000E+00  9.000E+00
      25     1     1     2     0     0 -3.345078484E+02  1.137417089E+02 -1.238354992E+03  1.293824085E+03  1.250000000E+02  0.00000E+00  9.000E+00
      25     1     1     2     0     0  2.137235504E+02 -3.561825238E+02  2.081253478E+02  4.811287839E+02  1.250000000E+02  0.00000E+00  9.000E+00
      21     1     1     2   502   511  1.207842980E+02  2.424408150E+02 -4.608083329E+02  5.345191438E+02  0.000000000E+00  0.00000E+00  9.000E+00
#rwgt            1           1   3.2524300864684143E-002           3      178956           0
</event>
<event>
      5   9999  3.19816E-02  5.26328E+01 -1.00000E+00  1.37816E-01
      21    -1     0     0   502   501  0.000000000E+00  0.000000000E+00  2.083726562E+03  2.083726562E+03  0.000000000E+00  0.00000E+00  9.000E+00
      21    -1     0     0   501   512  0.000000000E+00  0.000000000E+00 -6.339148516E+01  6.339148516E+01  0.000000000E+00  0.00000E+00  9.000E+00
      25     1     1     2     0     0 -8.344181472E+01 -3.020716370E+02  8.925734773E+02  9.542128812E+02  1.250000000E+02  0.00000E+00  9.000E+00
      25     1     1     2     0     0  1.312930515E+02  2.801520090E+02  1.015467537E+03  1.068888363E+03  1.250000000E+02  0.00000E+00  9.000E+00
      21     1     1     2   502   512 -4.785123683E+01  2.191962802E+01  1.122940620E+02  1.240168026E+02  1.907348633E-06  0.00000E+00  9.000E+00
#rwgt            1           1   3.6538062830233968E-002           3      179007           0
</event>
<event>
      5   9999  3.19816E-02  1.60829E+02 -1.00000E+00  1.15206E-01
      21    -1     0     0   502   501  0.000000000E+00  0.000000000E+00  3.223591490E+02  3.223591490E+02  0.000000000E+00  0.00000E+00  9.000E+00
      21    -1     0     0   511   502  0.000000000E+00  0.000000000E+00 -9.761720638E+02  9.761720638E+02  0.000000000E+00  0.00000E+00  9.000E+00
      25     1     1     2     0     0  1.693933210E+02  3.257325321E+02 -8.317115318E+01  3.966588211E+02  1.250000000E+02  0.00000E+00  9.000E+00
      25     1     1     2     0     0 -3.261889983E+02 -3.615247097E+02 -2.953876071E+02  5.830765102E+02  1.250000000E+02  0.00000E+00  9.000E+00
      21     1     1     2   511   501  1.567956773E+02  3.579217758E+01 -2.752541545E+02  3.187958814E+02  3.814697266E-06  0.00000E+00  9.000E+00
#rwgt            1           1   2.8685335850708850E-002           3      179071           0
</event>
<event>
      5   9999  3.19816E-02  4.46596E+01 -1.00000E+00  1.41933E-01
      21    -1     0     0   502   512  0.000000000E+00  0.000000000E+00  9.495779479E+02  9.495779479E+02  0.000000000E+00  0.00000E+00  9.000E+00
      21    -1     0     0   501   502  0.000000000E+00  0.000000000E+00 -4.967910623E+02  4.967910623E+02  0.000000000E+00  0.00000E+00  9.000E+00
      25     1     1     2     0     0  6.288631505E+01  3.142718793E+02 -2.754547578E+01  3.451162934E+02  1.250000000E+02  0.00000E+00  9.000E+00
      25     1     1     2     0     0 -8.776955640E+01 -2.771867637E+02 -2.289197079E+02  3.905959929E+02  1.250000000E+02  0.00000E+00  9.000E+00
      21     1     1     2   501   512  2.488324135E+01 -3.708511564E+01  7.092520693E+02  7.106567239E+02  1.321449896E-05  0.00000E+00  9.000E+00
#rwgt            1           1   2.8484895225000480E-002           3      179141           0
</event>
<event>
      5   9999  3.19816E-02  5.92291E+02 -1.00000E+00  9.68061E-02
      21    -1     0     0   502   511  0.000000000E+00  0.000000000E+00  7.624318888E+02  7.624318888E+02  0.000000000E+00  0.00000E+00  9.000E+00
      21    -1     0     0   501   502  0.000000000E+00  0.000000000E+00 -1.141811323E+03  1.141811323E+03  0.000000000E+00  0.00000E+00  9.000E+00
      25     1     1     2     0     0  3.455412758E+02  2.435050311E+02 -6.506978077E+01  4.455923584E+02  1.250000000E+02  0.00000E+00  9.000E+00
      25     1     1     2     0     0  1.696803361E+02 -5.356604895E+02 -5.731139734E+02  8.122857890E+02  1.250000000E+02  0.00000E+00  9.000E+00
      21     1     1     2   501   511 -5.152216119E+02  2.921554584E+02  2.588043196E+02  6.463650649E+02  0.000000000E+00  0.00000E+00  9.000E+00
#rwgt            2          11   2.1885222634486241E-003           3      179226           0
</event>
<event>
      5   9999  3.19816E-02  2.72918E+02 -1.00000E+00  1.06944E-01
      21    -1     0     0   502   501  0.000000000E+00  0.000000000E+00  5.077968482E+02  5.077968482E+02  0.000000000E+00  0.00000E+00  9.000E+00
       1    -1     0     0   501     0  0.000000000E+00  0.000000000E+00 -1.090673016E+03  1.090673016E+03  0.000000000E+00  0.00000E+00  9.000E+00
      25     1     1     2     0     0  2.482671982E+02 -1.302778227E+02 -4.593200351E+02  5.524570639E+02  1.250000000E+02  0.00000E+00  9.000E+00
      25     1     1     2     0     0 -4.203955355E+02 -8.151528633E+01  3.032491904E+02  5.394091393E+02  1.250000000E+02  0.00000E+00  9.000E+00
       1     1     1     2   502     0  1.721283373E+02  2.117931090E+02 -4.268053233E+02  5.066036612E+02  5.394796609E-06  0.00000E+00  9.000E+00
#rwgt            1           1   2.7990025483141594E-002           3      179261           0
</event>
<event>
      5   9999  3.19816E-02  5.42535E+01 -1.00000E+00  1.37082E-01
      21    -1     0     0   511   501  0.000000000E+00  0.000000000E+00  5.890652031E+02  5.890652031E+02  0.000000000E+00  0.00000E+00  9.000E+00
      21    -1     0     0   501   502  0.000000000E+00  0.000000000E+00 -1.465613265E+02  1.465613265E+02  0.000000000E+00  0.00000E+00  9.000E+00
      25     1     1     2     0     0  5.654220602E+01 -2.095952641E+02  3.657422402E+02  4.433052922E+02  1.250000000E+02  0.00000E+00  9.000E+00
      25     1     1     2     0     0 -2.219075002E+01  1.676021931E+02  1.600229569E+01  2.108648809E+02  1.250000000E+02  0.00000E+00  9.000E+00
      21     1     1     2   511   502 -3.435145599E+01  4.199307098E+01  6.075934066E+01  8.145635652E+01  6.743495762E-07  0.00000E+00  9.000E+00
#rwgt            1           1   2.8983617052506638E-002           3      179332           0
</event>
<event>
      5   9999  3.19816E-02  9.35650E+01 -1.00000E+00  1.25141E-01
      21    -1     0     0   512   501  0.000000000E+00  0.000000000E+00  4.858211926E+02  4.858211926E+02  0.000000000E+00  0.00000E+00  9.000E+00
      21    -1     0     0   501   502  0.000000000E+00  0.000000000E+00 -5.366192170E+02  5.366192170E+02  0.000000000E+00  0.00000E+00  9.000E+00
      25     1     1     2     0     0  6.836814172E+01 -1.588321075E+02 -4.700332927E+02  5.161958325E+02  1.250000000E+02  0.00000E+00  9.000E+00
      25     1     1     2     0     0  1.756910643E+01  1.218295249E+02  3.441238990E+02  3.862607468E+02  1.250000000E+02  0.00000E+00  9.000E+00
      21     1     1     2   512   502 -8.593724815E+01  3.700258259E+01  7.511136939E+01  1.199838304E+02  2.336015456E-06  0.00000E+00  9.000E+00
#rwgt            1           1   2.8214290742120441E-002           3      179416           0
</event>
<event>
      5   9999  4.51102E-02  2.86537E+01 -1.00000E+00  1.54438E-01
      21    -1     0     0   502   501  0.000000000E+00  0.000000000E+00  1.252076778E+01  1.252076778E+01  0.000000000E+00  0.00000E+00  9.000E+00
       2    -1     0     0   501     0  0.000000000E+00  0.000000000E+00 -2.360431093E+03  2.360431093E+03  0.000000000E+00  0.00000E+00  9.000E+00
      25     1     1     2     0     0 -8.140623434E+01 -3.685634217E+01 -8.289123198E+02  8.430338065E+02  1.250000000E+02  0.00000E+00  9.000E+00
      25     1     1     2     0     0  7.669744899E+01  8.592203855E+00 -1.074296614E+03  1.084294489E+03  1.250000000E+02  0.00000E+00  9.000E+00
       2     1     1     2   502     0  4.708785350E+00  2.826413832E+01 -4.447013918E+02  4.456235654E+02  7.629394531E-06  0.00000E+00  9.000E+00
#rwgt            1           1  0.26620468646122808                3      179518           0
</event>
<event>
      5   9999  3.19816E-02  7.31063E+01 -1.00000E+00  1.30273E-01
      21    -1     0     0   502   501  0.000000000E+00  0.000000000E+00  6.152703665E+02  6.152703665E+02  0.000000000E+00  0.00000E+00  9.000E+00
      21    -1     0     0   511   502  0.000000000E+00  0.000000000E+00 -1.371170187E+02  1.371170187E+02  0.000000000E+00  0.00000E+00  9.000E+00
      25     1     1     2     0     0 -1.648956209E+02  1.443645086E+02  1.218093817E+02  2.801681684E+02  1.250000000E+02  0.00000E+00  9.000E+00
      25     1     1     2     0     0  9.180895676E+01 -1.426714158E+02  3.355105184E+02  3.962023793E+02  1.250000000E+02  0.00000E+00  9.000E+00
      21     1     1     2   511   501  7.308666415E+01 -1.693092786E+00  2.083344769E+01  7.601683749E+01  1.143415337E-06  0.00000E+00  9.000E+00
#rwgt            1           1   2.6287167713432421E-002           3      179559           0
</event>
<event>
      5   9999  3.19816E-02  2.65382E+01 -1.00000E+00  1.56833E-01
      21    -1     0     0   502   512  0.000000000E+00  0.000000000E+00  2.884040707E+02  2.884040707E+02  0.000000000E+00  0.00000E+00  9.000E+00
      21    -1     0     0   501   502  0.000000000E+00  0.000000000E+00 -7.609971055E+02  7.609971055E+02  0.000000000E+00  0.00000E+00  9.000E+00
      25     1     1     2     0     0  2.964413618E+02  3.441308516E+01 -1.899573801E+01  3.241104433E+02  1.250000000E+02  0.00000E+00  9.000E+00
      25     1     1     2     0     0 -3.220002615E+02 -2.727049364E+01 -5.362685495E+02  6.384644120E+02  1.250000000E+02  0.00000E+00  9.000E+00
      21     1     1     2   501   512  2.555889971E+01 -7.142591516E+00  8.267125276E+01  8.682632090E+01  2.132480600E-06  0.00000E+00  9.000E+00
#rwgt            1           1   3.1104413603138047E-002           3      179617           0
</event>
<event>
      5   9999  3.19816E-02  2.59579E+02 -1.00000E+00  1.07675E-01
      21    -1     0     0   502   511  0.000000000E+00  0.000000000E+00  1.618082078E+03  1.618082078E+03  0.000000000E+00  0.00000E+00  9.000E+00
      21    -1     0     0   501   502  0.000000000E+00  0.000000000E+00 -2.463767209E+02  2.463767209E+02  0.000000000E+00  0.00000E+00  9.000E+00
      25     1     1     2     0     0  1.002372793E+02  3.028902212E+02  6.480890159E+02  7.330991548E+02  1.250000000E+02  0.00000E+00  9.000E+00
      25     1     1     2     0     0  1.507593568E+02 -2.366952294E+02 -5.368074089E+01  3.118647740E+02  1.250000000E+02  0.00000E+00  9.000E+00
      21     1     1     2   501   511 -2.509966362E+02 -6.619499179E+01  7.772970816E+02  8.194948696E+02  1.525878906E-05  0.00000E+00  9.000E+00
#rwgt            1           1   2.9074052055866297E-002           3      179740           0
</event>
<event>
      5   9999  3.19816E-02  6.74941E+01 -1.00000E+00  1.32028E-01
      21    -1     0     0   502   501  0.000000000E+00  0.000000000E+00  1.960714419E+02  1.960714419E+02  0.000000000E+00  0.00000E+00  9.000E+00
      21    -1     0     0   512   502  0.000000000E+00  0.000000000E+00 -2.104776190E+03  2.104776190E+03  0.000000000E+00  0.00000E+00  9.000E+00
      25     1     1     2     0     0 -2.468266885E+02 -5.247880393E+02 -5.307917619E+02  7.960469803E+02  1.250000000E+02  0.00000E+00  9.000E+00
      25     1     1     2     0     0  2.283825633E+02  4.598629359E+02 -1.123313775E+03  1.241407005E+03  1.250000000E+02  0.00000E+00  9.000E+00
      21     1     1     2   512   501  1.844412523E+01  6.492510337E+01 -2.545992112E+02  2.633936468E+02  5.394796609E-06  0.00000E+00  9.000E+00
#rwgt            1           1   2.9449924096532080E-002           3      179796           0
</event>
<event>
      5   9999  3.19816E-02  1.68518E+01 -1.00000E+00  1.72750E-01
      21    -1     0     0   502   501  0.000000000E+00  0.000000000E+00  3.259149629E+02  3.259149629E+02  0.000000000E+00  0.00000E+00  9.000E+00
      21    -1     0     0   501   511  0.000000000E+00  0.000000000E+00 -5.826213212E+02  5.826213212E+02  0.000000000E+00  0.00000E+00  9.000E+00
      25     1     1     2     0     0 -8.225454029E+01  8.052229502E+01  2.282213237E+02  2.845340437E+02  1.250000000E+02  0.00000E+00  9.000E+00
      25     1     1     2     0     0  9.249572387E+01 -6.713936397E+01 -3.399355142E+01  1.727533347E+02  1.250000000E+02  0.00000E+00  9.000E+00
      21     1     1     2   502   511 -1.024118358E+01 -1.338293105E+01 -4.509341307E+02  4.512489057E+02  5.394796609E-06  0.00000E+00  9.000E+00
#rwgt            2          11   1.6468534576889919E-003           3      179978           0
</event>
<event>
      5   9999  3.19816E-02  1.24143E+02 -1.00000E+00  1.19746E-01
      21    -1     0     0   502   501  0.000000000E+00  0.000000000E+00  5.083279189E+02  5.083279189E+02  0.000000000E+00  0.00000E+00  9.000E+00
      21    -1     0     0   512   502  0.000000000E+00  0.000000000E+00 -2.556797569E+02  2.556797569E+02  0.000000000E+00  0.00000E+00  9.000E+00
      25     1     1     2     0     0 -7.062444973E+01  2.160905333E+02  2.035482910E+01  2.602349910E+02  1.250000000E+02  0.00000E+00  9.000E+00
      25     1     1     2     0     0 -3.672080260E+00 -1.166344269E+02  3.123207623E+02  3.560706844E+02  1.250000000E+02  0.00000E+00  9.000E+00
      21     1     1     2   512   501  7.429652999E+01 -9.945610636E+01 -8.002742941E+01  1.477020004E+02  2.697398305E-06  0.00000E+00  9.000E+00
#rwgt            2          11   2.7259506220511528E-003           3      180013           0
</event>
<event>
      5   9999  3.19816E-02  2.31654E+02 -1.00000E+00  1.09373E-01
      21    -1     0     0   511   501  0.000000000E+00  0.000000000E+00  8.572051546E+02  8.572051546E+02  0.000000000E+00  0.00000E+00  9.000E+00
      21    -1     0     0   501   502  0.000000000E+00  0.000000000E+00 -6.152704623E+02  6.152704623E+02  0.000000000E+00  0.00000E+00  9.000E+00
      25     1     1     2     0     0  2.101267004E+02  6.242496132E+02  1.937629793E+01  6.707020580E+02  1.250000000E+02  0.00000E+00  9.000E+00
      25     1     1     2     0     0 -8.527048369E+00 -5.101400551E+02  8.436663408E+01  5.320322502E+02  1.250000000E+02  0.00000E+00  9.000E+00
      21     1     1     2   511   502 -2.015996520E+02 -1.141095581E+02  1.381917603E+02  2.697413086E+02  3.303624740E-06  0.00000E+00  9.000E+00
#rwgt            1           1   3.3794239111781754E-002           3      180048           0
</event>
<event>
      5   9999  3.19816E-02  2.73085E+02 -1.00000E+00  1.06936E-01
      21    -1     0     0   502   501  0.000000000E+00  0.000000000E+00  2.321388708E+02  2.321388708E+02  0.000000000E+00  0.00000E+00  9.000E+00
       2    -1     0     0   501     0  0.000000000E+00  0.000000000E+00 -1.112638952E+03  1.112638952E+03  0.000000000E+00  0.00000E+00  9.000E+00
      25     1     1     2     0     0  8.339315044E+01 -2.812669799E+02 -1.915089549E+02  3.719760897E+02  1.250000000E+02  0.00000E+00  9.000E+00
      25     1     1     2     0     0 -2.965205430E+02  1.105266809E+02 -1.568003303E+02  3.746357206E+02  1.250000000E+02  0.00000E+00  9.000E+00
       2     1     1     2   502     0  2.131273925E+02  1.707402991E+02 -5.321907959E+02  5.981660124E+02  1.078959322E-05  0.00000E+00  9.000E+00
#rwgt            1           1   2.8549373286779110E-002           3      180096           0
</event>
<event>
      5   9999  3.19816E-02  1.88765E+02 -1.00000E+00  1.12570E-01
       1    -1     0     0   502     0  0.000000000E+00  0.000000000E+00  6.620941025E+02  6.620941025E+02  0.000000000E+00  0.00000E+00  9.000E+00
      21    -1     0     0   501   502  0.000000000E+00  0.000000000E+00 -5.900199955E+02  5.900199955E+02  0.000000000E+00  0.00000E+00  9.000E+00
      25     1     1     2     0     0  2.748379911E+02 -3.091709904E+02 -2.048701117E+02  4.782461556E+02  1.250000000E+02  0.00000E+00  9.000E+00
      25     1     1     2     0     0 -8.834587480E+01  3.383743444E+02 -7.091230846E+01  3.780948902E+02  1.250000000E+02  0.00000E+00  9.000E+00
       1     1     1     2   501     0 -1.864921163E+02 -2.920335398E+01  3.478565273E+02  3.957730522E+02  0.000000000E+00  0.00000E+00  9.000E+00
#rwgt            1           1   2.4668698056504696E-002           3      180135           0
</event>
<event>
      5   9999  3.19816E-02  8.26354E+01 -1.00000E+00  1.27672E-01
      21    -1     0     0   511   501  0.000000000E+00  0.000000000E+00  1.035709254E+03  1.035709254E+03  0.000000000E+00  0.00000E+00  9.000E+00
      21    -1     0     0   501   502  0.000000000E+00  0.000000000E+00 -3.070786239E+02  3.070786239E+02  0.000000000E+00  0.00000E+00  9.000E+00
      25     1     1     2     0     0  1.435705481E+02 -3.720175606E+00 -2.582040648E+02  3.208125325E+02  1.250000000E+02  0.00000E+00  9.000E+00
      25     1     1     2     0     0 -6.156251110E+01  1.388303215E+01  3.105362927E+02  3.406471348E+02  1.250000000E+02  0.00000E+00  9.000E+00
      21     1     1     2   511   502 -8.200803695E+01 -1.016285654E+01  6.762984018E+02  6.813282102E+02  7.629394531E-06  0.00000E+00  9.000E+00
#rwgt            1           1   2.8084255101901323E-002           3      180186           0
</event>
<event>
      5   9999  3.19816E-02  1.82981E+02 -1.00000E+00  1.13072E-01
      21    -1     0     0   502   501  0.000000000E+00  0.000000000E+00  3.359141735E+02  3.359141735E+02  0.000000000E+00  0.00000E+00  9.000E+00
      21    -1     0     0   501   512  0.000000000E+00  0.000000000E+00 -1.035506169E+03  1.035506169E+03  0.000000000E+00  0.00000E+00  9.000E+00
      25     1     1     2     0     0 -2.227819890E+02  8.635153290E+01  2.188664920E+02  3.472980610E+02  1.250000000E+02  0.00000E+00  9.000E+00
      25     1     1     2     0     0  8.652024026E+01 -2.084778334E+02 -4.175403607E+02  4.908296158E+02  1.250000000E+02  0.00000E+00  9.000E+00
      21     1     1     2   502   512  1.362617487E+02  1.221263004E+02 -5.009181266E+02  5.332926654E+02  5.394796609E-06  0.00000E+00  9.000E+00
#rwgt            1           1   2.8089951215718289E-002           3      180247           0
</event>
<event>
      5   9999  3.19816E-02  5.15663E+01 -1.00000E+00  1.38315E-01
      21    -1     0     0   502   511  0.000000000E+00  0.000000000E+00  1.655020914E+03  1.655020914E+03  0.000000000E+00  0.00000E+00  9.000E+00
      21    -1     0     0   501   502  0.000000000E+00  0.000000000E+00 -5.899008250E+01  5.899008250E+01  0.000000000E+00  0.00000E+00  9.000E+00
      25     1     1     2     0     0  1.377608619E+02  2.044295702E+02  7.437554336E+02  7.934523610E+02  1.250000000E+02  0.00000E+00  9.000E+00
      25     1     1     2     0     0 -1.878228995E+02 -1.920654138E+02  7.194159190E+02  7.780429483E+02  1.250000000E+02  0.00000E+00  9.000E+00
      21     1     1     2   501   511  5.006203756E+01 -1.236415637E+01  1.328594788E+02  1.425156871E+02  1.907348633E-06  0.00000E+00  9.000E+00
#rwgt            1           1   1.4541032987212352E-002           3      180299           0
</event>
<event>
      5   9999  3.19816E-02  9.82918E+01 -1.00000E+00  1.24165E-01
      21    -1     0     0   512   501  0.000000000E+00  0.000000000E+00  2.084370608E+03  2.084370608E+03  0.000000000E+00  0.00000E+00  9.000E+00
      21    -1     0     0   501   502  0.000000000E+00  0.000000000E+00 -4.065013557E+02  4.065013557E+02  0.000000000E+00  0.00000E+00  9.000E+00
      25     1     1     2     0     0 -2.619922984E+02  7.501548820E+02  9.416433638E+02  1.238422196E+03  1.250000000E+02  0.00000E+00  9.000E+00
      25     1     1     2     0     0  3.507512762E+02 -7.079277932E+02  3.849730112E+02  8.877034626E+02  1.250000000E+02  0.00000E+00  9.000E+00
      21     1     1     2   512   502 -8.875897786E+01 -4.222708875E+01  3.512528769E+02  3.647463046E+02  6.607249480E-06  0.00000E+00  9.000E+00
#rwgt            1           1   1.9481693428168412E-002           3      180374           0
</event>
<event>
      5   9999  3.19816E-02  1.78471E+02 -1.00000E+00  1.13479E-01
      21    -1     0     0   502   501  0.000000000E+00  0.000000000E+00  3.632057639E+02  3.632057639E+02  0.000000000E+00  0.00000E+00  9.000E+00
      21    -1     0     0   501   511  0.000000000E+00  0.000000000E+00 -1.522934022E+03  1.522934022E+03  0.000000000E+00  0.00000E+00  9.000E+00
      25     1     1     2     0     0 -4.263231857E+02  3.103227125E+02 -2.273776461E+02  5.876880453E+02  1.250000000E+02  0.00000E+00  9.000E+00
      25     1     1     2     0     0  5.593579860E+02 -4.292918346E+02 -6.666541623E+02  9.783790717E+02  1.250000000E+02  0.00000E+00  9.000E+00
      21     1     1     2   502   511 -1.330348003E+02  1.189691221E+02 -2.656964501E+02  3.200726694E+02  3.814697266E-06  0.00000E+00  9.000E+00
#rwgt            1           1   2.9861250987334678E-002           3      180446           0
</event>
<event>
      5   9999  3.19816E-02  9.59706E+01 -1.00000E+00  1.24637E-01
      21    -1     0     0   502   501  0.000000000E+00  0.000000000E+00  1.595065600E+03  1.595065600E+03  0.000000000E+00  0.00000E+00  9.000E+00
       2    -1     0     0   501     0  0.000000000E+00  0.000000000E+00 -6.287097800E+02  6.287097800E+02  0.000000000E+00  0.00000E+00  9.000E+00
      25     1     1     2     0     0 -1.044693876E+02 -6.029268700E+02  4.409943222E+02  7.645493154E+02  1.250000000E+02  0.00000E+00  9.000E+00
      25     1     1     2     0     0  9.483776619E+00  5.892123983E+02  8.941570575E+02  1.078147966E+03  1.250000000E+02  0.00000E+00  9.000E+00
       2     1     1     2   502     0  9.498561094E+01  1.371447169E+01 -3.687955594E+02  3.810780992E+02  9.344061824E-06  0.00000E+00  9.000E+00
#rwgt            1           1   3.0810978615391997E-002           3      180520           0
</event>
<event>
      5   9999  3.19816E-02  4.14792E+01 -1.00000E+00  1.43869E-01
      21    -1     0     0   502   501  0.000000000E+00  0.000000000E+00  3.450169242E+02  3.450169242E+02  0.000000000E+00  0.00000E+00  9.000E+00
      21    -1     0     0   501   511  0.000000000E+00  0.000000000E+00 -7.094110961E+02  7.094110961E+02  0.000000000E+00  0.00000E+00  9.000E+00
      25     1     1     2     0     0  1.553106792E+02 -3.549179858E+02 -2.446517386E+02  4.749396350E+02  1.250000000E+02  0.00000E+00  9.000E+00
      25     1     1     2     0     0 -1.336290192E+02  3.195565827E+02  7.887228452E+01  3.765885840E+02  1.250000000E+02  0.00000E+00  9.000E+00
      21     1     1     2   502   511 -2.168166006E+01  3.536140305E+01 -1.986147179E+02  2.028998013E+02  3.814697266E-06  0.00000E+00  9.000E+00
#rwgt            1           1   3.0652979699160181E-002           3      180586           0
</event>
<event>
      5   9999  3.19816E-02  1.10815E+01 -1.00000E+00  1.90739E-01
      21    -1     0     0   502   512  0.000000000E+00  0.000000000E+00  8.610882138E+02  8.610882138E+02  0.000000000E+00  0.00000E+00  9.000E+00
      21    -1     0     0   501   502  0.000000000E+00  0.000000000E+00 -9.002389760E+01  9.002389760E+01  0.000000000E+00  0.00000E+00  9.000E+00
      25     1     1     2     0     0  1.323224532E+01 -1.894382991E+02  1.586930800E+02  2.772552166E+02  1.250000000E+02  0.00000E+00  9.000E+00
      25     1     1     2     0     0 -3.587953514E+00  1.948959904E+02  4.075978080E+02  4.687838453E+02  1.250000000E+02  0.00000E+00  9.000E+00
      21     1     1     2   501   512 -9.644291804E+00 -5.457691256E+00  2.047734283E+02  2.050730496E+02  0.000000000E+00  0.00000E+00  9.000E+00
#rwgt            1           1   2.0833755146375241E-002           3      180716           0
</event>
<event>
      5   9999  3.19816E-02  4.48136E+01 -1.00000E+00  1.41845E-01
      21    -1     0     0   511   501  0.000000000E+00  0.000000000E+00  9.200145920E+02  9.200145920E+02  0.000000000E+00  0.00000E+00  9.000E+00
      21    -1     0     0   501   502  0.000000000E+00  0.000000000E+00 -1.740891709E+02  1.740891709E+02  0.000000000E+00  0.00000E+00  9.000E+00
      25     1     1     2     0     0 -6.608829787E+01 -1.260751958E+01  2.957773876E+02  3.280790693E+02  1.250000000E+02  0.00000E+00  9.000E+00
      25     1     1     2     0     0  3.705156658E+01  4.674146786E+01 -1.265369465E+02  1.876011254E+02  1.250000000E+02  0.00000E+00  9.000E+00
      21     1     1     2   511   502  2.903673129E+01 -3.413394828E+01  5.766849800E+02  5.784235683E+02  0.000000000E+00  0.00000E+00  9.000E+00
#rwgt            1           1   2.8352038906407251E-002           3      180840           0
</event>
<event>
      5   9999  3.19816E-02  7.07593E+01 -1.00000E+00  1.30984E-01
       1    -1     0     0   502     0  0.000000000E+00  0.000000000E+00  5.601065941E+02  5.601065941E+02  0.000000000E+00  0.00000E+00  9.000E+00
      21    -1     0     0   501   502  0.000000000E+00  0.000000000E+00 -1.992332826E+02  1.992332826E+02  0.000000000E+00  0.00000E+00  9.000E+00
      25     1     1     2     0     0 -2.510448992E+02  9.671282876E+01  1.353157660E+01  2.969596205E+02  1.250000000E+02  0.00000E+00  9.000E+00
      25     1     1     2     0     0  1.848412698E+02 -7.173374610E+01  2.705607281E+02  3.579666646E+02  1.250000000E+02  0.00000E+00  9.000E+00
       1     1     1     2   501     0  6.620362935E+01 -2.497908266E+01  7.678100686E+01  1.044135917E+02  1.651812370E-06  0.00000E+00  9.000E+00
#rwgt            1           1   2.8178735090914023E-002           3      180930           0
</event>
<event>
      5   9999  3.19816E-02  6.45216E+01 -1.00000E+00  1.33039E-01
      21    -1     0     0   502   501  0.000000000E+00  0.000000000E+00  8.443948342E+01  8.443948342E+01  0.000000000E+00  0.00000E+00  9.000E+00
      21    -1     0     0   501   511  0.000000000E+00  0.000000000E+00 -2.106848324E+03  2.106848324E+03  0.000000000E+00  0.00000E+00  9.000E+00
      25     1     1     2     0     0 -1.821252669E+02 -2.187631633E+02 -4.105769001E+02  5.150003158E+02  1.250000000E+02  0.00000E+00  9.000E+00
      25     1     1     2     0     0  2.465632927E+02  2.154799427E+02 -9.729825944E+02  1.034188180E+03  1.250000000E+02  0.00000E+00  9.000E+00
      21     1     1     2   502   511 -6.443802580E+01  3.283220529E+00 -6.388493465E+02  6.420993118E+02  1.078959322E-05  0.00000E+00  9.000E+00
#rwgt            1           1   3.1658552087803021E-002           3      180999           0
</event>
<event>
      5   9999  3.19816E-02  2.28284E+01 -1.00000E+00  1.61765E-01
      21    -1     0     0   502   501  0.000000000E+00  0.000000000E+00  5.195217814E+02  5.195217814E+02  0.000000000E+00  0.00000E+00  9.000E+00
      21    -1     0     0   512   502  0.000000000E+00  0.000000000E+00 -4.580963869E+02  4.580963869E+02  0.000000000E+00  0.00000E+00  9.000E+00
      25     1     1     2     0     0 -3.878368874E+02 -2.181653595E+02  9.233098415E+01  4.713423236E+02  1.250000000E+02  0.00000E+00  9.000E+00
      25     1     1     2     0     0  3.970456719E+02  2.390539894E+02 -1.868288403E+01  4.803812294E+02  1.250000000E+02  0.00000E+00  9.000E+00
      21     1     1     2   512   501 -9.208784518E+00 -2.088862985E+01 -1.222270562E+01  2.589461531E+01  6.078504936E-07  0.00000E+00  9.000E+00
#rwgt            1           1   3.0792106811346139E-002           3      181062           0
</event>
<event>
      5   9999  3.19816E-02  7.27051E+01 -1.00000E+00  1.30392E-01
      21    -1     0     0   502   501  0.000000000E+00  0.000000000E+00  9.825398166E+01  9.825398166E+01  0.000000000E+00  0.00000E+00  9.000E+00
      21    -1     0     0   501   511  0.000000000E+00  0.000000000E+00 -8.703663207E+02  8.703663207E+02  0.000000000E+00  0.00000E+00  9.000E+00
      25     1     1     2     0     0 -1.776775558E+01  2.255238885E+02 -2.186938085E+02  3.385686035E+02  1.250000000E+02  0.00000E+00  9.000E+00
      25     1     1     2     0     0  6.523106903E+01 -1.704487489E+02 -3.501451619E+02  4.141672401E+02  1.250000000E+02  0.00000E+00  9.000E+00
      21     1     1     2   502   511 -4.746331345E+01 -5.507513965E+01 -2.032733686E+02  2.158844587E+02  0.000000000E+00  0.00000E+00  9.000E+00
#rwgt            1           1   3.2366938978616568E-002           3      181227           0
</event>
<event>
      5   9999  3.19816E-02  3.75332E+01 -1.00000E+00  1.46576E-01
      21    -1     0     0   502   501  0.000000000E+00  0.000000000E+00  5.398808559E+02  5.398808559E+02  0.000000000E+00  0.00000E+00  9.000E+00
       2    -1     0     0   501     0  0.000000000E+00  0.000000000E+00 -7.182400135E+02  7.182400135E+02  0.000000000E+00  0.00000E+00  9.000E+00
      25     1     1     2     0     0  1.112579041E+02 -1.582184524E+02 -4.009922175E+02  4.624188127E+02  1.250000000E+02  0.00000E+00  9.000E+00
      25     1     1     2     0     0 -1.121193094E+02  1.957417930E+02  4.750340654E+02  5.405256260E+02  1.250000000E+02  0.00000E+00  9.000E+00
       2     1     1     2   502     0  8.614053384E-01 -3.752334063E+01 -2.524010056E+02  2.551764306E+02  2.697398305E-06  0.00000E+00  9.000E+00
#rwgt            1           1   3.0111358003844763E-002           3      181291           0
</event>
<event>
      5   9999  3.19816E-02  5.25896E+01 -1.00000E+00  1.37836E-01
       2    -1     0     0   502     0  0.000000000E+00  0.000000000E+00  1.064532158E+03  1.064532158E+03  0.000000000E+00  0.00000E+00  9.000E+00
      21    -1     0     0   501   502  0.000000000E+00  0.000000000E+00 -6.684813040E+02  6.684813040E+02  0.000000000E+00  0.00000E+00  9.000E+00
      25     1     1     2     0     0 -8.058371118E+00 -1.447497058E+02  4.154021276E+02  4.573853324E+02  1.250000000E+02  0.00000E+00  9.000E+00
      25     1     1     2     0     0  5.265275881E+01  1.726245660E+02 -6.277136313E+02  6.649969599E+02  1.250000000E+02  0.00000E+00  9.000E+00
       2     1     1     2   501     0 -4.459438770E+01 -2.787486015E+01  6.083623577E+02  6.106311697E+02  7.629394531E-06  0.00000E+00  9.000E+00
#rwgt            2          18   1.2404448980957046E-003           3      181403           0
</event>
<event>
      5   9999  3.19816E-02  3.21310E+01 -1.00000E+00  1.50998E-01
      21    -1     0     0   502   501  0.000000000E+00  0.000000000E+00  4.630695369E+02  4.630695369E+02  0.000000000E+00  0.00000E+00  9.000E+00
      21    -1     0     0   511   502  0.000000000E+00  0.000000000E+00 -1.040005471E+03  1.040005471E+03  0.000000000E+00  0.00000E+00  9.000E+00
      25     1     1     2     0     0  2.517513803E+02  1.519534847E+02  7.688839009E+00  3.196134184E+02  1.250000000E+02  0.00000E+00  9.000E+00
      25     1     1     2     0     0 -2.592049943E+02 -1.832079772E+02  2.018142418E+02  3.963664721E+02  1.250000000E+02  0.00000E+00  9.000E+00
      21     1     1     2   511   501  7.453614003E+00  3.125449256E+01 -7.864390152E+02  7.870951177E+02  1.078959322E-05  0.00000E+00  9.000E+00
#rwgt            1           1   2.8175788507581134E-002           3      181437           0
</event>
<event>
      5   9999  3.19816E-02  1.90836E+01 -1.00000E+00  1.68067E-01
      21    -1     0     0   512   501  0.000000000E+00  0.000000000E+00  8.458687987E+01  8.458687987E+01  0.000000000E+00  0.00000E+00  9.000E+00
      21    -1     0     0   501   502  0.000000000E+00  0.000000000E+00 -4.911570760E+02  4.911570760E+02  0.000000000E+00  0.00000E+00  9.000E+00
      25     1     1     2     0     0  4.589973911E+01 -1.312303143E+02 -1.198613747E+02  2.220809100E+02  1.250000000E+02  0.00000E+00  9.000E+00
      25     1     1     2     0     0 -2.795467667E+01  1.247372271E+02 -2.821741457E+02  3.340480329E+02  1.250000000E+02  0.00000E+00  9.000E+00
      21     1     1     2   512   502 -1.794506245E+01  6.493087220E+00 -4.534675663E+00  1.961501291E+01  2.384185791E-07  0.00000E+00  9.000E+00
#rwgt            1           1   3.2791187625190982E-002           3      181596           0
</event>
<event>
      5   9999  3.19816E-02  1.02780E+01 -1.00000E+00  1.94391E-01
      21    -1     0     0   502   511  0.000000000E+00  0.000000000E+00  4.792709590E+02  4.792709590E+02  0.000000000E+00  0.00000E+00  9.000E+00
      21    -1     0     0   501   502  0.000000000E+00  0.000000000E+00 -2.220197412E+02  2.220197412E+02  0.000000000E+00  0.00000E+00  9.000E+00
      25     1     1     2     0     0 -3.671721644E+01  7.469119092E+01  3.867017481E+02  4.148375224E+02  1.250000000E+02  0.00000E+00  9.000E+00
      25     1     1     2     0     0  3.236156773E+01 -6.538178375E+01 -1.822132242E+02  2.326987490E+02  1.250000000E+02  0.00000E+00  9.000E+00
      21     1     1     2   501   511  4.355648711E+00 -9.309407165E+00  5.276269397E+01  5.375442877E+01  6.743495762E-07  0.00000E+00  9.000E+00
#rwgt            1           1   2.8593321639546032E-002           3      181731           0
</event>
<event>
      5   9999  3.19816E-02  2.46007E+01 -1.00000E+00  1.59276E-01
      21    -1     0     0   502   501  0.000000000E+00  0.000000000E+00  1.914670173E+02  1.914670173E+02  0.000000000E+00  0.00000E+00  9.000E+00
      21    -1     0     0   512   502  0.000000000E+00  0.000000000E+00 -2.969722837E+02  2.969722837E+02  0.000000000E+00  0.00000E+00  9.000E+00
      25     1     1     2     0     0  4.996315734E+01  1.541559967E+02 -1.366834088E+02  2.461051455E+02  1.250000000E+02  0.00000E+00  9.000E+00
      25     1     1     2     0     0 -2.710287973E+01 -1.632446946E+02  4.757256135E+01  2.127711094E+02  1.250000000E+02  0.00000E+00  9.000E+00
      21     1     1     2   512   501 -2.286027762E+01  9.088697919E+00 -1.639441894E+01  2.956304611E+01  5.331201500E-07  0.00000E+00  9.000E+00
#rwgt            1           1   2.9707477513034874E-002           3      182007           0
</event>
<event>
      5   9999  3.19816E-02  4.82146E+01 -1.00000E+00  1.39983E-01
      21    -1     0     0   511   501  0.000000000E+00  0.000000000E+00  4.774469834E+02  4.774469834E+02  0.000000000E+00  0.00000E+00  9.000E+00
      21    -1     0     0   501   502  0.000000000E+00  0.000000000E+00 -2.284573403E+02  2.284573403E+02  0.000000000E+00  0.00000E+00  9.000E+00
      25     1     1     2     0     0 -2.085349893E+02  9.103034497E+01  2.494229356E+01  2.608073685E+02  1.250000000E+02  0.00000E+00  9.000E+00
      25     1     1     2     0     0  1.679963580E+02 -1.171315152E+02  2.608323626E+01  2.413460242E+02  1.250000000E+02  0.00000E+00  9.000E+00
      21     1     1     2   511   502  4.053863127E+01  2.610117025E+01  1.979641133E+02  2.037509309E+02  2.697398305E-06  0.00000E+00  9.000E+00
#rwgt            2          11   1.3288502649400475E-003           3      182443           0
</event>
<event>
      5   9999  3.19816E-02  5.86980E+01 -1.00000E+00  1.35215E-01
      21    -1     0     0   502   501  0.000000000E+00  0.000000000E+00  5.434697027E+02  5.434697027E+02  0.000000000E+00  0.00000E+00  9.000E+00
      21    -1     0     0   501   512  0.000000000E+00  0.000000000E+00 -1.072560092E+02  1.072560092E+02  0.000000000E+00  0.00000E+00  9.000E+00
      25     1     1     2     0     0 -2.402063565E+01  1.887025032E+02  1.518690905E+02  2.736326850E+02  1.250000000E+02  0.00000E+00  9.000E+00
      25     1     1     2     0     0  3.113563778E+01 -1.304372874E+02  2.467092575E+02  3.073658595E+02  1.250000000E+02  0.00000E+00  9.000E+00
      21     1     1     2   502   512 -7.115002129E+00 -5.826521586E+01  3.763534546E+01  6.972716732E+01  0.000000000E+00  0.00000E+00  9.000E+00
#rwgt            1           1   3.0258096141086613E-002           3      182478           0
</event>
<event>
      5   9999  3.19816E-02  4.49380E+01 -1.00000E+00  1.41773E-01
      21    -1     0     0   511   501  0.000000000E+00  0.000000000E+00  2.117966567E+03  2.117966567E+03  0.000000000E+00  0.00000E+00  9.000E+00
      21    -1     0     0   501   502  0.000000000E+00  0.000000000E+00 -1.246530425E+02  1.246530425E+02  0.000000000E+00  0.00000E+00  9.000E+00
      25     1     1     2     0     0 -6.427249018E+01 -1.794126658E+02  1.741166730E+02  2.868126104E+02  1.250000000E+02  0.00000E+00  9.000E+00
      25     1     1     2     0     0  7.545352672E+01  2.229374236E+02  1.931263335E+02  3.291156487E+02  1.250000000E+02  0.00000E+00  9.000E+00
      21     1     1     2   511   502 -1.118103654E+01 -4.352475777E+01  1.626070518E+03  1.626691350E+03  2.157918644E-05  0.00000E+00  9.000E+00
#rwgt            1           1   2.6961490156083935E-002           3      182554           0
</event>
<event>
      5   9999  3.19816E-02  2.13503E+02 -1.00000E+00  1.10625E-01
       3    -1     0     0   502     0  0.000000000E+00  0.000000000E+00  1.092821346E+03  1.092821346E+03  0.000000000E+00  0.00000E+00  9.000E+00
      21    -1     0     0   501   502  0.000000000E+00  0.000000000E+00 -1.315210113E+03  1.315210113E+03  0.000000000E+00  0.00000E+00  9.000E+00
      25     1     1     2     0     0 -8.889999622E+01  1.076607371E+03 -3.771336583E+02  1.151017566E+03  1.250000000E+02  0.00000E+00  9.000E+00
      25     1     1     2     0     0  2.739318812E+02 -9.700867310E+02  2.083367491E+02  1.036887719E+03  1.250000000E+02  0.00000E+00  9.000E+00
       3     1     1     2   501     0 -1.850318850E+02 -1.065206403E+02 -5.359185742E+01  2.201261740E+02  3.873843386E-06  0.00000E+00  9.000E+00
#rwgt            1           1   2.7280775654840137E-002           3      182618           0
</event>
<event>
      5   9999  3.19816E-02  1.58762E+02 -1.00000E+00  1.15425E-01
       1    -1     0     0   502     0  0.000000000E+00  0.000000000E+00  1.295640346E+03  1.295640346E+03  0.000000000E+00  0.00000E+00  9.000E+00
      21    -1     0     0   501   502  0.000000000E+00  0.000000000E+00 -2.232763113E+02  2.232763113E+02  0.000000000E+00  0.00000E+00  9.000E+00
      25     1     1     2     0     0 -9.554637273E+01 -3.942951589E+01  2.123810446E+02  2.672349232E+02  1.250000000E+02  0.00000E+00  9.000E+00
      25     1     1     2     0     0 -5.112258382E+01  1.002048540E+02 -1.523867537E+02  2.269388773E+02  1.250000000E+02  0.00000E+00  9.000E+00
       1     1     1     2   501     0  1.466689565E+02 -6.077533810E+01  1.012369744E+03  1.024742857E+03  1.078959322E-05  0.00000E+00  9.000E+00
#rwgt            1           1   2.5908895290563436E-002           3      182691           0
</event>
<event>
      5   9999  3.19816E-02  7.39340E+01 -1.00000E+00  1.30029E-01
       2    -1     0     0   502     0  0.000000000E+00  0.000000000E+00  2.272636347E+02  2.272636347E+02  0.000000000E+00  0.00000E+00  9.000E+00
      21    -1     0     0   501   502  0.000000000E+00  0.000000000E+00 -1.112450259E+03  1.112450259E+03  0.000000000E+00  0.00000E+00  9.000E+00
      25     1     1     2     0     0 -2.932118942E+02  2.176432694E+02 -1.404865112E+02  4.107350331E+02  1.250000000E+02  0.00000E+00  9.000E+00
      25     1     1     2     0     0  2.260165834E+02 -1.868046131E+02 -7.832292938E+02  8.456078205E+02  1.250000000E+02  0.00000E+00  9.000E+00
       2     1     1     2   501     0  6.719531074E+01 -3.083865624E+01  3.852918097E+01  8.337103987E+01  1.581489940E-06  0.00000E+00  9.000E+00
#rwgt            1           1   2.8427777274775821E-002           3      182742           0
</event>
<event>
      5   9999  3.19816E-02  4.49272E+01 -1.00000E+00  1.41779E-01
      21    -1     0     0   502   501  0.000000000E+00  0.000000000E+00  3.158541944E+02  3.158541944E+02  0.000000000E+00  0.00000E+00  9.000E+00
      21    -1     0     0   501   511  0.000000000E+00  0.000000000E+00 -3.448900627E+02  3.448900627E+02  0.000000000E+00  0.00000E+00  9.000E+00
      25     1     1     2     0     0  2.275705932E+02 -1.322528227E+02  7.157784185E+01  3.000459489E+02  1.250000000E+02  0.00000E+00  9.000E+00
      25     1     1     2     0     0 -1.933239982E+02  1.613323950E+02 -3.806012778E+01  2.836827159E+02  1.250000000E+02  0.00000E+00  9.000E+00
      21     1     1     2   502   511 -3.424659496E+01 -2.907957226E+01 -6.255358236E+01  7.701559229E+01  6.743495762E-07  0.00000E+00  9.000E+00
#rwgt            1           1   2.4500581249273810E-002           3      182817           0
</event>
<event>
      5   9999  3.19816E-02  9.16078E+01 -1.00000E+00  1.25565E-01
       2    -1     0     0   502     0  0.000000000E+00  0.000000000E+00  1.204849413E+03  1.204849413E+03  0.000000000E+00  0.00000E+00  9.000E+00
      21    -1     0     0   501   502  0.000000000E+00  0.000000000E+00 -3.597940545E+02  3.597940545E+02  0.000000000E+00  0.00000E+00  9.000E+00
      25     1     1     2     0     0 -1.093378821E+02  3.798698315E+02  3.341725295E+02  5.324961416E+02  1.250000000E+02  0.00000E+00  9.000E+00
      25     1     1     2     0     0  1.053739741E+02 -4.713917844E+02 -1.419359245E+01  4.991396066E+02  1.250000000E+02  0.00000E+00  9.000E+00
       2     1     1     2   501     0  3.963907973E+00  9.152195289E+01  5.250764212E+02  5.330077190E+02  0.000000000E+00  0.00000E+00  9.000E+00
#rwgt            1           1   2.3058452149403389E-002           3      182907           0
</event>
<event>
      5   9999  3.19816E-02  1.13114E+01 -1.00000E+00  1.89768E-01
      21    -1     0     0   502   501  0.000000000E+00  0.000000000E+00  4.183676110E+02  4.183676110E+02  0.000000000E+00  0.00000E+00  9.000E+00
      21    -1     0     0   501   511  0.000000000E+00  0.000000000E+00 -7.694881973E+01  7.694881973E+01  0.000000000E+00  0.00000E+00  9.000E+00
      25     1     1     2     0     0  7.020787197E+01  2.185823597E+01  7.786720527E+01  1.646062861E+02  1.250000000E+02  0.00000E+00  9.000E+00
      25     1     1     2     0     0 -7.252564023E+01 -3.292960915E+01  2.763742873E+02  3.136113428E+02  1.250000000E+02  0.00000E+00  9.000E+00
      21     1     1     2   502   511  2.317768260E+00  1.107137319E+01 -1.282270134E+01  1.709880181E+01  5.331201500E-07  0.00000E+00  9.000E+00
#rwgt            1           1   2.1499050834661068E-002           3      183008           0
</event>
<event>
      5   9999  3.19816E-02  2.50678E+02 -1.00000E+00  1.08190E-01
      21    -1     0     0   502   512  0.000000000E+00  0.000000000E+00  2.995181961E+03  2.995181961E+03  0.000000000E+00  0.00000E+00  9.000E+00
      21    -1     0     0   501   502  0.000000000E+00  0.000000000E+00 -8.659687130E+01  8.659687130E+01  0.000000000E+00  0.00000E+00  9.000E+00
      25     1     1     2     0     0 -8.302609854E+01  7.324452823E+01  9.219862396E+01  1.907450660E+02  1.250000000E+02  0.00000E+00  9.000E+00
      25     1     1     2     0     0  3.299946267E+02 -3.027858025E+01  1.078609048E+03  1.135269010E+03  1.250000000E+02  0.00000E+00  9.000E+00
      21     1     1     2   501   512 -2.469685282E+02 -4.296594798E+01  1.737777418E+03  1.755764757E+03  0.000000000E+00  0.00000E+00  9.000E+00
#rwgt            1           1   2.8588262459686778E-002           3      183183           0
</event>
<event>
      5   9999  3.19816E-02  1.52999E+02 -1.00000E+00  1.16054E-01
       3    -1     0     0   502     0  0.000000000E+00  0.000000000E+00  4.629609898E+02  4.629609898E+02  0.000000000E+00  0.00000E+00  9.000E+00
      21    -1     0     0   501   502  0.000000000E+00  0.000000000E+00 -2.219153000E+02  2.219153000E+02  0.000000000E+00  0.00000E+00  9.000E+00
      25     1     1     2     0     0 -5.182499570E+01  1.486057082E+02  1.134960579E+02  2.308156014E+02  1.250000000E+02  0.00000E+00  9.000E+00
      25     1     1     2     0     0 -6.992593489E+01 -2.412633500E+02  1.041515703E+02  2.992827927E+02  1.250000000E+02  0.00000E+00  9.000E+00
       3     1     1     2   501     0  1.217509306E+02  9.265764183E+01  2.339806153E+01  1.547778956E+02  2.211002945E-06  0.00000E+00  9.000E+00
#rwgt            1           1   2.8087351221358844E-002           3      183217           0
</event>
<event>
      5   9999  3.19816E-02  9.42683E+01 -1.00000E+00  1.24992E-01
      21    -1     0     0   502   511  0.000000000E+00  0.000000000E+00  6.680790887E+02  6.680790887E+02  0.000000000E+00  0.00000E+00  9.000E+00
      21    -1     0     0   501   502  0.000000000E+00  0.000000000E+00 -2.769376432E+02  2.769376432E+02  0.000000000E+00  0.00000E+00  9.000E+00
      25     1     1     2     0     0 -2.252884006E+02  2.365486081E+02  4.380597012E+01  3.524969085E+02  1.250000000E+02  0.00000E+00  9.000E+00
      25     1     1     2     0     0  1.595832410E+02 -1.689516275E+02  3.491493209E+01  2.661869939E+02  1.250000000E+02  0.00000E+00  9.000E+00
      21     1     1     2   501   511  6.570515957E+01 -6.759698063E+01  3.124205433E+02  3.263328295E+02  3.814697266E-06  0.00000E+00  9.000E+00
#rwgt            1           1   2.6087545428626548E-002           3      183283           0
</event>
<event>
      5   9999  3.19816E-02  9.25203E+01 -1.00000E+00  1.25366E-01
       2    -1     0     0   502     0  0.000000000E+00  0.000000000E+00  2.372112272E+03  2.372112272E+03  0.000000000E+00  0.00000E+00  9.000E+00
      21    -1     0     0   501   502  0.000000000E+00  0.000000000E+00 -2.201494678E+02  2.201494678E+02  0.000000000E+00  0.00000E+00  9.000E+00
      25     1     1     2     0     0  8.716263920E+01 -3.107419007E+02  5.277702067E+00  3.461368351E+02  1.250000000E+02  0.00000E+00  9.000E+00
      25     1     1     2     0     0 -1.744732888E+02  3.413500763E+02  7.962525953E+02  8.925267495E+02  1.250000000E+02  0.00000E+00  9.000E+00
       2     1     1     2   501     0  8.731064964E+01 -3.060817566E+01  1.350432507E+03  1.353598155E+03  0.000000000E+00  0.00000E+00  9.000E+00
#rwgt            1           1   2.6069009505357395E-002           3      183424           0
</event>
<event>
      5   9999  3.19816E-02  1.24609E+02 -1.00000E+00  1.19678E-01
      21    -1     0     0   502   501  0.000000000E+00  0.000000000E+00  1.474313721E+02  1.474313721E+02  0.000000000E+00  0.00000E+00  9.000E+00
      21    -1     0     0   501   511  0.000000000E+00  0.000000000E+00 -1.579051764E+03  1.579051764E+03  0.000000000E+00  0.00000E+00  9.000E+00
      25     1     1     2     0     0 -3.400853088E+02  3.665031013E+01 -3.570131020E+02  5.099849189E+02  1.250000000E+02  0.00000E+00  9.000E+00
      25     1     1     2     0     0  3.490995004E+02 -1.609325686E+02 -5.835469157E+02  7.098744648E+02  1.250000000E+02  0.00000E+00  9.000E+00
      21     1     1     2   502   511 -9.014191616E+00  1.242822585E+02 -4.910603739E+02  5.066237521E+02  5.394796609E-06  0.00000E+00  9.000E+00
#rwgt            1           1   3.0278754221843680E-002           3      183501           0
</event>
<event>
      5   9999  3.19816E-02  1.76762E+02 -1.00000E+00  1.13636E-01
      21    -1     0     0   512   501  0.000000000E+00  0.000000000E+00  3.430255603E+02  3.430255603E+02  0.000000000E+00  0.00000E+00  9.000E+00
      21    -1     0     0   501   502  0.000000000E+00  0.000000000E+00 -7.034759824E+02  7.034759824E+02  0.000000000E+00  0.00000E+00  9.000E+00
      25     1     1     2     0     0  3.530710133E+02  1.189064864E+02  2.378849502E+01  3.936861509E+02  1.250000000E+02  0.00000E+00  9.000E+00
      25     1     1     2     0     0 -1.838766389E+02 -1.700737498E+02 -3.850510376E+02  4.760514680E+02  1.250000000E+02  0.00000E+00  9.000E+00
      21     1     1     2   512   502 -1.691943744E+02  5.116726339E+01  8.121204488E-01  1.767639237E+02  3.735349901E-06  0.00000E+00  9.000E+00
#rwgt            1           1   2.7669434727725963E-002           3      183559           0
</event>
<event>
      5   9999  3.19816E-02  2.50883E+01 -1.00000E+00  1.58636E-01
      21    -1     0     0   511   501  0.000000000E+00  0.000000000E+00  3.931807930E+01  3.931807930E+01  0.000000000E+00  0.00000E+00  9.000E+00
      21    -1     0     0   501   502  0.000000000E+00  0.000000000E+00 -2.464187092E+03  2.464187092E+03  0.000000000E+00  0.00000E+00  9.000E+00
      25     1     1     2     0     0  4.673469605E+01  2.501141292E+02 -1.642136024E+03  1.666426396E+03  1.250000000E+02  0.00000E+00  9.000E+00
      25     1     1     2     0     0 -3.946671914E+01 -2.261016650E+02 -7.582369167E+02  8.020148420E+02  1.250000000E+02  0.00000E+00  9.000E+00
      21     1     1     2   511   502 -7.267976912E+00 -2.401246424E+01 -2.449607167E+01  3.506393381E+01  8.259061849E-07  0.00000E+00  9.000E+00
#rwgt            1           1   3.6905270490561151E-002           3      183613           0
</event>
<event>
      5   9999  3.19816E-02  7.19128E+01 -1.00000E+00  1.30630E-01
      21    -1     0     0   502   501  0.000000000E+00  0.000000000E+00  1.794144481E+02  1.794144481E+02  0.000000000E+00  0.00000E+00  9.000E+00
      21    -1     0     0   512   502  0.000000000E+00  0.000000000E+00 -2.781831797E+03  2.781831797E+03  0.000000000E+00  0.00000E+00  9.000E+00
      25     1     1     2     0     0 -5.203339141E+02 -5.487207288E+01 -4.469834098E+02  6.994122498E+02  1.250000000E+02  0.00000E+00  9.000E+00
      25     1     1     2     0     0  5.915253695E+02  4.471178412E+01 -2.012510818E+03  2.101838766E+03  1.250000000E+02  0.00000E+00  9.000E+00
      21     1     1     2   512   501 -7.119145533E+01  1.016028875E+01 -1.429231216E+02  1.599952295E+02  2.697398305E-06  0.00000E+00  9.000E+00
#rwgt            1           1   1.9317476670909422E-002           3      183730           0
</event>
<event>
      5   9999  3.19816E-02  3.33195E+02 -1.00000E+00  1.04132E-01
      21    -1     0     0   502   511  0.000000000E+00  0.000000000E+00  1.137370115E+03  1.137370115E+03  0.000000000E+00  0.00000E+00  9.000E+00
      21    -1     0     0   501   502  0.000000000E+00  0.000000000E+00 -4.230784264E+02  4.230784264E+02  0.000000000E+00  0.00000E+00  9.000E+00
      25     1     1     2     0     0  2.273424442E+02 -1.532202706E+02  6.945817417E+02  7.571194319E+02  1.250000000E+02  0.00000E+00  9.000E+00
      25     1     1     2     0     0  5.723332365E+01  3.265282799E+02 -1.974675116E+02  4.056042271E+02  1.250000000E+02  0.00000E+00  9.000E+00
      21     1     1     2   501   511 -2.845757679E+02 -1.733080093E+02  2.171774587E+02  3.977248827E+02  7.136645101E-06  0.00000E+00  9.000E+00
#rwgt            1           1   2.8246514252073075E-002           3      183843           0
</event>
<event>
      5   9999  3.19816E-02  9.15409E+00 -1.00000E+00  2.00302E-01
      21    -1     0     0   512   501  0.000000000E+00  0.000000000E+00  1.173760594E+03  1.173760594E+03  0.000000000E+00  0.00000E+00  9.000E+00
      21    -1     0     0   501   502  0.000000000E+00  0.000000000E+00 -4.248414483E+01  4.248414483E+01  0.000000000E+00  0.00000E+00  9.000E+00
      25     1     1     2     0     0 -1.690698806E+01  8.955272350E+01  6.163439193E+02  6.354607489E+02  1.250000000E+02  0.00000E+00  9.000E+00
      25     1     1     2     0     0  1.153124756E+01 -8.214335196E+01  1.382998028E+02  2.040400338E+02  1.250000000E+02  0.00000E+00  9.000E+00
      21     1     1     2   512   502  5.375740505E+00 -7.409371547E+00  3.766327267E+02  3.767439557E+02  0.000000000E+00  0.00000E+00  9.000E+00
#rwgt            1           1   3.0382639952184074E-002           3      183908           0
</event>
<event>
      5   9999  3.19816E-02  2.45033E+01 -1.00000E+00  1.59406E-01
      21    -1     0     0   511   501  0.000000000E+00  0.000000000E+00  5.277237304E+02  5.277237304E+02  0.000000000E+00  0.00000E+00  9.000E+00
      21    -1     0     0   501   502  0.000000000E+00  0.000000000E+00 -1.195716968E+02  1.195716968E+02  0.000000000E+00  0.00000E+00  9.000E+00
      25     1     1     2     0     0  1.112417351E+02  2.991140681E+01  7.289482795E+01  1.849542425E+02  1.250000000E+02  0.00000E+00  9.000E+00
      25     1     1     2     0     0 -9.279589228E+01 -1.378180064E+01  3.381480562E+01  1.599045238E+02  1.250000000E+02  0.00000E+00  9.000E+00
      21     1     1     2   511   502 -1.844584278E+01 -1.612960617E+01  3.014424001E+02  3.024366609E+02  0.000000000E+00  0.00000E+00  9.000E+00
#rwgt            1           1   2.2865732241818860E-002           3      184099           0
</event>
<event>
      5   9999  3.19816E-02  4.89305E+00 -1.00000E+00  2.44419E-01
      21    -1     0     0   502   501  0.000000000E+00  0.000000000E+00  2.483660728E+02  2.483660728E+02  0.000000000E+00  0.00000E+00  9.000E+00
      21    -1     0     0   512   502  0.000000000E+00  0.000000000E+00 -2.187196920E+02  2.187196920E+02  0.000000000E+00  0.00000E+00  9.000E+00
      25     1     1     2     0     0  1.399079850E+02  9.924410989E+00 -3.841855654E+01  1.917647613E+02  1.250000000E+02  0.00000E+00  9.000E+00
      25     1     1     2     0     0 -1.373183807E+02 -1.407601950E+01  1.210507235E+02  2.221097694E+02  1.250000000E+02  0.00000E+00  9.000E+00
      21     1     1     2   512   501 -2.589604307E+00  4.151608514E+00 -5.298578609E+01  5.321123407E+01  0.000000000E+00  0.00000E+00  9.000E+00
#rwgt            1           1   2.6123196422128590E-002           3      184215           0
</event>
<event>
      5   9999  3.19816E-02  1.75028E+02 -1.00000E+00  1.13798E-01
      21    -1     0     0   502   501  0.000000000E+00  0.000000000E+00  8.740286988E+01  8.740286988E+01  0.000000000E+00  0.00000E+00  9.000E+00
       1    -1     0     0   501     0  0.000000000E+00  0.000000000E+00 -1.665380394E+03  1.665380394E+03  0.000000000E+00  0.00000E+00  9.000E+00
      25     1     1     2     0     0 -3.153495677E+02 -8.354418822E+01 -5.715826345E+02  6.698930432E+02  1.250000000E+02  0.00000E+00  9.000E+00
      25     1     1     2     0     0  1.751452436E+02 -2.123011931E+01 -6.645761891E+02  6.988655704E+02  1.250000000E+02  0.00000E+00  9.000E+00
       1     1     1     2   502     0  1.402043241E+02  1.047743075E+02 -3.418187002E+02  3.840246500E+02  3.814697266E-06  0.00000E+00  9.000E+00
#rwgt            1           1   2.7669092582918685E-002           3      184451           0
</event>
<event>
      5   9999  3.19816E-02  1.52119E+02 -1.00000E+00  1.16153E-01
      21    -1     0     0   502   501  0.000000000E+00  0.000000000E+00  5.906488956E+02  5.906488956E+02  0.000000000E+00  0.00000E+00  9.000E+00
      21    -1     0     0   511   502  0.000000000E+00  0.000000000E+00 -1.403944383E+03  1.403944383E+03  0.000000000E+00  0.00000E+00  9.000E+00
      25     1     1     2     0     0  1.270657625E+02  1.515798849E+02  5.133081423E+02  5.641209254E+02  1.250000000E+02  0.00000E+00  9.000E+00
      25     1     1     2     0     0 -3.272640874E+01 -2.709124834E+02 -1.185776479E+03  1.223174333E+03  1.250000000E+02  0.00000E+00  9.000E+00
      21     1     1     2   511   501 -9.433935380E+01  1.193325985E+02 -1.408271510E+02  2.072980203E+02  2.697398305E-06  0.00000E+00  9.000E+00
#rwgt            1           1   2.0824291712291183E-002           3      184512           0
</event>
<event>
      5   9999  3.19816E-02  2.37168E+01 -1.00000E+00  1.60484E-01
      21    -1     0     0   502   512  0.000000000E+00  0.000000000E+00  8.715141471E+01  8.715141471E+01  0.000000000E+00  0.00000E+00  9.000E+00
      21    -1     0     0   501   502  0.000000000E+00  0.000000000E+00 -1.112369863E+03  1.112369863E+03  0.000000000E+00  0.00000E+00  9.000E+00
      25     1     1     2     0     0  1.373152476E+00  2.255325945E+01 -1.827363272E+02  2.225490965E+02  1.250000000E+02  0.00000E+00  9.000E+00
      25     1     1     2     0     0 -1.796961980E+01 -3.949568539E+01 -9.026511527E+02  9.122976049E+02  1.250000000E+02  0.00000E+00  9.000E+00
      21     1     1     2   501   512  1.659646732E+01  1.694242595E+01  6.016903137E+01  6.467457661E+01  2.132480600E-06  0.00000E+00  9.000E+00
#rwgt            1           1   2.9437182485483437E-002           3      184595           0
</event>
<event>
      5   9999  3.19816E-02  1.75305E+01 -1.00000E+00  1.71234E-01
      21    -1     0     0   502   511  0.000000000E+00  0.000000000E+00  2.811285961E+02  2.811285961E+02  0.000000000E+00  0.00000E+00  9.000E+00
      21    -1     0     0   501   502  0.000000000E+00  0.000000000E+00 -3.653160466E+02  3.653160466E+02  0.000000000E+00  0.00000E+00  9.000E+00
      25     1     1     2     0     0  1.048037029E+02 -1.766473197E+02 -2.463437953E+02  3.442359034E+02  1.250000000E+02  0.00000E+00  9.000E+00
      25     1     1     2     0     0 -8.730719989E+01  1.777391063E+02  1.362533494E+02  2.709311947E+02  1.250000000E+02  0.00000E+00  9.000E+00
      21     1     1     2   501   511 -1.749650303E+01 -1.091786605E+00  2.590299552E+01  3.127754455E+01  3.371747881E-07  0.00000E+00  9.000E+00
#rwgt            1           1   2.8200271752066706E-002           3      184685           0
</event>
<event>
      5   9999  3.19816E-02  1.13109E+01 -1.00000E+00  1.89770E-01
      21    -1     0     0   502   512  0.000000000E+00  0.000000000E+00  5.594753832E+02  5.594753832E+02  0.000000000E+00  0.00000E+00  9.000E+00
      21    -1     0     0   501   502  0.000000000E+00  0.000000000E+00 -9.913543794E+01  9.913543794E+01  0.000000000E+00  0.00000E+00  9.000E+00
      25     1     1     2     0     0  3.666926727E+01  9.639888902E+01  4.451210061E+02  4.737035898E+02  1.250000000E+02  0.00000E+00  9.000E+00
      25     1     1     2     0     0 -4.495159584E+01 -1.041020417E+02  3.766365377E+00  1.688107418E+02  1.250000000E+02  0.00000E+00  9.000E+00
      21     1     1     2   501   512  8.282328570E+00  7.703152651E+00  1.145257383E+01  1.609648951E+01  0.000000000E+00  0.00000E+00  9.000E+00
#rwgt            1           1   2.7031656224768164E-002           3      184861           0
</event>
<event>
      5   9999  3.19816E-02  4.94055E+01 -1.00000E+00  1.39373E-01
      21    -1     0     0   502   501  0.000000000E+00  0.000000000E+00  3.353934673E+02  3.353934673E+02  0.000000000E+00  0.00000E+00  9.000E+00
      21    -1     0     0   501   511  0.000000000E+00  0.000000000E+00 -4.593903291E+02  4.593903291E+02  0.000000000E+00  0.00000E+00  9.000E+00
      25     1     1     2     0     0 -2.287080402E+02 -5.712961639E+01  8.709334670E+01  2.806802661E+02  1.250000000E+02  0.00000E+00  9.000E+00
      25     1     1     2     0     0  2.196887936E+02  8.554360543E+00  4.188355644E+01  2.563504933E+02  1.250000000E+02  0.00000E+00  9.000E+00
      21     1     1     2   502   511  9.019246533E+00  4.857525585E+01 -2.529737650E+02  2.577530370E+02  2.697398305E-06  0.00000E+00  9.000E+00
#rwgt            1           1   2.5254168983224957E-002           3      185013           0
</event>
<event>
      5   9999  3.19816E-02  2.67960E+01 -1.00000E+00  1.56527E-01
      21    -1     0     0   502   501  0.000000000E+00  0.000000000E+00  4.564967517E+02  4.564967517E+02  0.000000000E+00  0.00000E+00  9.000E+00
      21    -1     0     0   512   502  0.000000000E+00  0.000000000E+00 -3.677749884E+02  3.677749884E+02  0.000000000E+00  0.00000E+00  9.000E+00
      25     1     1     2     0     0  5.566194184E+01 -6.056075848E+01 -3.088891417E+02  3.432249395E+02  1.250000000E+02  0.00000E+00  9.000E+00
      25     1     1     2     0     0 -3.397890532E+01  7.630474029E+01  4.200201944E+02  4.461153922E+02  1.250000000E+02  0.00000E+00  9.000E+00
      21     1     1     2   512   501 -2.168303653E+01 -1.574398182E+01 -2.240928952E+01  3.493140841E+01  4.768371582E-07  0.00000E+00  9.000E+00
#rwgt            1           1   2.4916846782198698E-002           3      185081           0
</event>
<event>
      5   9999  3.19816E-02  5.91985E+00 -1.00000E+00  2.26383E-01
      21    -1     0     0   502   511  0.000000000E+00  0.000000000E+00  4.372629939E+02  4.372629939E+02  0.000000000E+00  0.00000E+00  9.000E+00
      21    -1     0     0   501   502  0.000000000E+00  0.000000000E+00 -1.192823739E+02  1.192823739E+02  0.000000000E+00  0.00000E+00  9.000E+00
      25     1     1     2     0     0 -9.424745413E+00  1.305934063E+02  1.149535652E+02  2.144359712E+02  1.250000000E+02  0.00000E+00  9.000E+00
      25     1     1     2     0     0  1.368622629E+01 -1.347024705E+02  5.269484801E+01  1.916606776E+02  1.250000000E+02  0.00000E+00  9.000E+00
      21     1     1     2   501   511 -4.261480880E+00  4.109064226E+00  1.503322068E+02  1.504487189E+02  0.000000000E+00  0.00000E+00  9.000E+00
#rwgt            1           1   3.0916216256175726E-002           3      185326           0
</event>
<event>
      5   9999  3.19816E-02  8.31400E+01 -1.00000E+00  1.27545E-01
      21    -1     0     0   502   501  0.000000000E+00  0.000000000E+00  1.030018926E+03  1.030018926E+03  0.000000000E+00  0.00000E+00  9.000E+00
      21    -1     0     0   501   512  0.000000000E+00  0.000000000E+00 -9.757100550E+01  9.757100550E+01  0.000000000E+00  0.00000E+00  9.000E+00
      25     1     1     2     0     0  7.697296533E+01 -2.059528434E+02  4.808814595E+02  5.433354297E+02  1.250000000E+02  0.00000E+00  9.000E+00
      25     1     1     2     0     0 -1.555631471E+02  1.788263640E+02  4.136912471E+02  4.928937097E+02  1.250000000E+02  0.00000E+00  9.000E+00
      21     1     1     2   502   512  7.859018172E+01  2.712647932E+01  3.787521436E+01  9.136079251E+01  6.743495762E-07  0.00000E+00  9.000E+00
#rwgt            1           1   2.7169238880391338E-002           3      185655           0
</event>
<event>
      5   9999  3.19816E-02  2.28330E+01 -1.00000E+00  1.61758E-01
      21    -1     0     0   502   501  0.000000000E+00  0.000000000E+00  8.323623072E+01  8.323623072E+01  0.000000000E+00  0.00000E+00  9.000E+00
      21    -1     0     0   511   502  0.000000000E+00  0.000000000E+00 -1.713247687E+03  1.713247687E+03  0.000000000E+00  0.00000E+00  9.000E+00
      25     1     1     2     0     0  3.113055924E+01  2.058143829E+02 -1.411777468E+03  1.432504552E+03  1.250000000E+02  0.00000E+00  9.000E+00
      25     1     1     2     0     0 -2.616280767E+01 -1.835283065E+02 -1.024108340E+02  2.459270435E+02  1.250000000E+02  0.00000E+00  9.000E+00
      21     1     1     2   511   501 -4.967751569E+00 -2.228607638E+01 -1.158231541E+02  1.180523222E+02  1.907348633E-06  0.00000E+00  9.000E+00
#rwgt            1           1   3.1642542752433910E-002           3      185703           0
</event>
<event>
      5   9999  3.19816E-02  8.13340E+01 -1.00000E+00  1.28003E-01
      21    -1     0     0   502   501  0.000000000E+00  0.000000000E+00  1.918509424E+03  1.918509424E+03  0.000000000E+00  0.00000E+00  9.000E+00
      21    -1     0     0   512   502  0.000000000E+00  0.000000000E+00 -1.119788372E+02  1.119788372E+02  0.000000000E+00  0.00000E+00  9.000E+00
      25     1     1     2     0     0 -1.344059407E+01  1.814885448E+02  2.577549074E+02  3.393837559E+02  1.250000000E+02  0.00000E+00  9.000E+00
      25     1     1     2     0     0 -1.435710838E+01 -1.050522773E+02  1.591028945E+03  1.599449971E+03  1.250000000E+02  0.00000E+00  9.000E+00
      21     1     1     2   512   501  2.779770245E+01 -7.643626752E+01 -4.225326506E+01  9.165453432E+01  4.211311753E-06  0.00000E+00  9.000E+00
#rwgt            1           1   2.2606672846779068E-002           3      185890           0
</event>
<event>
      5   9999  3.19816E-02  5.27180E+01 -1.00000E+00  1.37776E-01
      21    -1     0     0   502   511  0.000000000E+00  0.000000000E+00  2.347086931E+03  2.347086931E+03  0.000000000E+00  0.00000E+00  9.000E+00
      21    -1     0     0   501   502  0.000000000E+00  0.000000000E+00 -2.422240901E+02  2.422240901E+02  0.000000000E+00  0.00000E+00  9.000E+00
      25     1     1     2     0     0  4.592000914E+02 -1.220003592E+02  1.626177248E+03  1.698771984E+03  1.250000000E+02  0.00000E+00  9.000E+00
      25     1     1     2     0     0 -4.750339036E+02  1.722843258E+02  1.281807087E+02  5.360917762E+02  1.250000000E+02  0.00000E+00  9.000E+00
      21     1     1     2   501   511  1.583381216E+01 -5.028396655E+01  3.505048842E+02  3.544472609E+02  3.814697266E-06  0.00000E+00  9.000E+00
#rwgt            1           1   2.8742965738571831E-002           3      185968           0
</event>
<event>
      5   9999  3.19816E-02  4.07731E+02 -1.00000E+00  1.01436E-01
      21    -1     0     0   502   501  0.000000000E+00  0.000000000E+00  3.297859947E+02  3.297859947E+02  0.000000000E+00  0.00000E+00  9.000E+00
       2    -1     0     0   501     0  0.000000000E+00  0.000000000E+00 -1.453698961E+03  1.453698961E+03  0.000000000E+00  0.00000E+00  9.000E+00
      25     1     1     2     0     0 -1.068435619E+02  8.147335798E+01  1.754551902E+02  2.538956056E+02  1.250000000E+02  0.00000E+00  9.000E+00
      25     1     1     2     0     0 -1.920018350E+02  1.959000932E+02 -2.126490242E+02  3.688985750E+02  1.250000000E+02  0.00000E+00  9.000E+00
       2     1     1     2   502     0  2.988453969E+02 -2.773734512E+02 -1.086719132E+03  1.160690775E+03  1.525878906E-05  0.00000E+00  9.000E+00
#rwgt            2          13   2.3177336844695889E-003           3      186175           0
</event>
<event>
      5   9999  3.19816E-02  1.77264E+01 -1.00000E+00  1.70813E-01
      21    -1     0     0   502   501  0.000000000E+00  0.000000000E+00  1.474700383E+02  1.474700383E+02  0.000000000E+00  0.00000E+00  9.000E+00
      21    -1     0     0   501   511  0.000000000E+00  0.000000000E+00 -3.231595474E+02  3.231595474E+02  0.000000000E+00  0.00000E+00  9.000E+00
      25     1     1     2     0     0 -1.402860116E+02 -7.903774821E+01 -2.307797749E+01  2.051456159E+02  1.250000000E+02  0.00000E+00  9.000E+00
      25     1     1     2     0     0  1.251464407E+02  8.825824731E+01 -1.293427419E+02  2.362322897E+02  1.250000000E+02  0.00000E+00  9.000E+00
      21     1     1     2   502   511  1.513957087E+01 -9.220499099E+00 -2.326878977E+01  2.925168008E+01  3.371747881E-07  0.00000E+00  9.000E+00
#rwgt            1           1   2.7343490528762088E-002           3      186194           0
</event>
<event>
      5   9999  3.19816E-02  6.62448E+01 -1.00000E+00  1.32445E-01
       2    -1     0     0   502     0  0.000000000E+00  0.000000000E+00  1.291832417E+03  1.291832417E+03  0.000000000E+00  0.00000E+00  9.000E+00
      21    -1     0     0   501   502  0.000000000E+00  0.000000000E+00 -2.733658634E+02  2.733658634E+02  0.000000000E+00  0.00000E+00  9.000E+00
      25     1     1     2     0     0 -1.112556917E+02 -7.041247976E+00 -8.221858106E+01  1.865805541E+02  1.250000000E+02  0.00000E+00  9.000E+00
      25     1     1     2     0     0  1.226206333E+02  7.230386279E+01 -7.303184346E+01  2.030328014E+02  1.250000000E+02  0.00000E+00  9.000E+00
       2     1     1     2   501     0 -1.136494162E+01 -6.526261482E+01  1.173716978E+03  1.175584925E+03  2.157918644E-05  0.00000E+00  9.000E+00
#rwgt            1           1   2.9911950949770953E-002           3      186348           0
</event>
<event>
      5   9999  3.19816E-02  1.09986E+02 -1.00000E+00  1.21997E-01
      21    -1     0     0   502   501  0.000000000E+00  0.000000000E+00  2.099853057E+02  2.099853057E+02  0.000000000E+00  0.00000E+00  9.000E+00
      21    -1     0     0   511   502  0.000000000E+00  0.000000000E+00 -2.141981254E+03  2.141981254E+03  0.000000000E+00  0.00000E+00  9.000E+00
      25     1     1     2     0     0 -2.324734201E+02  3.008716723E+00  5.779184265E+01  2.702181350E+02  1.250000000E+02  0.00000E+00  9.000E+00
      25     1     1     2     0     0  1.227150667E+02 -1.007864928E+01 -1.291563312E+02  2.178690539E+02  1.250000000E+02  0.00000E+00  9.000E+00
      21     1     1     2   511   501  1.097583534E+02  7.069932557E+00 -1.860631460E+03  1.863879371E+03  0.000000000E+00  0.00000E+00  9.000E+00
#rwgt            1           1   2.4288160418902281E-002           3      186443           0
</event>
<event>
      5   9999  3.19816E-02  5.38149E+01 -1.00000E+00  1.37278E-01
      21    -1     0     0   502   501  0.000000000E+00  0.000000000E+00  9.022795795E+02  9.022795795E+02  0.000000000E+00  0.00000E+00  9.000E+00
      21    -1     0     0   501   512  0.000000000E+00  0.000000000E+00 -1.182024944E+03  1.182024944E+03  0.000000000E+00  0.00000E+00  9.000E+00
      25     1     1     2     0     0  4.329175314E+02 -3.844363520E+02 -9.115667050E+02  1.087100619E+03  1.250000000E+02  0.00000E+00  9.000E+00
      25     1     1     2     0     0 -3.791582027E+02  3.868824248E+02  7.103335845E+02  9.020187107E+02  1.250000000E+02  0.00000E+00  9.000E+00
      21     1     1     2   502   512 -5.375932872E+01 -2.446072801E+00 -7.851224429E+01  9.518519422E+01  0.000000000E+00  0.00000E+00  9.000E+00
#rwgt            1           1   2.6380601635665045E-002           3      186501           0
</event>
<event>
      5   9999  3.19816E-02  4.93145E+01 -1.00000E+00  1.39418E-01
      21    -1     0     0   502   511  0.000000000E+00  0.000000000E+00  3.616658388E+02  3.616658388E+02  0.000000000E+00  0.00000E+00  9.000E+00
      21    -1     0     0   501   502  0.000000000E+00  0.000000000E+00 -2.901106562E+02  2.901106562E+02  0.000000000E+00  0.00000E+00  9.000E+00
      25     1     1     2     0     0  1.923340849E+02 -1.275454165E+02 -1.053493181E+02  2.828139181E+02  1.250000000E+02  0.00000E+00  9.000E+00
      25     1     1     2     0     0 -1.506096481E+02  1.538321219E+02  8.215679634E+01  2.621494364E+02  1.250000000E+02  0.00000E+00  9.000E+00
      21     1     1     2   501   511 -4.172443675E+01 -2.628670534E+01  9.474770432E+01  1.068131405E+02  1.348699152E-06  0.00000E+00  9.000E+00
#rwgt            1           1   2.8229457209301118E-002           3      186647           0
</event>
<event>
      5   9999  3.19816E-02  8.89885E+01 -1.00000E+00  1.26150E-01
      21    -1     0     0   502   501  0.000000000E+00  0.000000000E+00  2.429610546E+03  2.429610546E+03  0.000000000E+00  0.00000E+00  9.000E+00
       1    -1     0     0   501     0  0.000000000E+00  0.000000000E+00 -3.487745743E+02  3.487745743E+02  0.000000000E+00  0.00000E+00  9.000E+00
      25     1     1     2     0     0 -2.538056331E+02 -4.098860790E+02  3.067619691E+02  5.849374350E+02  1.250000000E+02  0.00000E+00  9.000E+00
      25     1     1     2     0     0  2.934785323E+02  3.302304433E+02  1.946228840E+03  1.999653343E+03  1.250000000E+02  0.00000E+00  9.000E+00
       1     1     1     2   502     0 -3.967289925E+01  7.965563576E+01 -1.721548371E+02  1.937943425E+02  3.303624740E-06  0.00000E+00  9.000E+00
#rwgt            2          12   2.7167783766341699E-004           3      186834           0
</event>
<event>
      5   9999  3.19816E-02  2.11797E+01 -1.00000E+00  1.64341E-01
      21    -1     0     0   511   501  0.000000000E+00  0.000000000E+00  1.178147374E+03  1.178147374E+03  0.000000000E+00  0.00000E+00  9.000E+00
      21    -1     0     0   501   502  0.000000000E+00  0.000000000E+00 -2.185106495E+02  2.185106495E+02  0.000000000E+00  0.00000E+00  9.000E+00
      25     1     1     2     0     0 -1.653216896E+02 -2.753163830E+01  9.918136475E+02  1.013611643E+03  1.250000000E+02  0.00000E+00  9.000E+00
      25     1     1     2     0     0  1.640362484E+02  6.391020451E+00 -1.552163789E+02  2.581973280E+02  1.250000000E+02  0.00000E+00  9.000E+00
      21     1     1     2   511   502  1.285441196E+00  2.114061785E+01  1.230394563E+02  1.248490524E+02  1.348699152E-06  0.00000E+00  9.000E+00
#rwgt            1           1   2.9157192170859859E-002           3      186853           0
</event>
<event>
      5   9999  3.19816E-02  4.54634E+02 -1.00000E+00  1.00040E-01
      21    -1     0     0   502   501  0.000000000E+00  0.000000000E+00  7.367344303E+02  7.367344303E+02  0.000000000E+00  0.00000E+00  9.000E+00
       2    -1     0     0   501     0  0.000000000E+00  0.000000000E+00 -2.732139645E+03  2.732139645E+03  0.000000000E+00  0.00000E+00  9.000E+00
      25     1     1     2     0     0 -1.482528574E+02 -8.541394143E+02 -4.045116454E+02  9.647734035E+02  1.250000000E+02  0.00000E+00  9.000E+00
      25     1     1     2     0     0 -2.346371721E+02  1.099265784E+03 -3.520729496E+02  1.184491548E+03  1.250000000E+02  0.00000E+00  9.000E+00
       2     1     1     2   502     0  3.828900295E+02 -2.451263693E+02 -1.238820620E+03  1.319609124E+03  2.157918644E-05  0.00000E+00  9.000E+00
#rwgt            2          13   1.5256739367381410E-003           3      187042           0
</event>
<event>
      5   9999  3.19816E-02  7.47861E+01 -1.00000E+00  1.29782E-01
      21    -1     0     0   502   501  0.000000000E+00  0.000000000E+00  1.450129176E+03  1.450129176E+03  0.000000000E+00  0.00000E+00  9.000E+00
      21    -1     0     0   501   511  0.000000000E+00  0.000000000E+00 -6.758990817E+01  6.758990817E+01  0.000000000E+00  0.00000E+00  9.000E+00
      25     1     1     2     0     0 -5.614157738E+01  6.745661267E+01  2.055777771E+02  2.561044586E+02  1.250000000E+02  0.00000E+00  9.000E+00
      25     1     1     2     0     0  6.312601456E+01  7.002674928E+00  1.178501286E+03  1.186812628E+03  1.250000000E+02  0.00000E+00  9.000E+00
      21     1     1     2   502   511 -6.984437178E+00 -7.445928760E+01 -1.539795928E+00  7.480199759E+01  3.277239317E-06  0.00000E+00  9.000E+00
#rwgt            1           1   3.0693285112995097E-002           3      187061           0
</event>
<event>
      5   9999  3.19816E-02  3.25396E+01 -1.00000E+00  1.50628E-01
      21    -1     0     0   502   512  0.000000000E+00  0.000000000E+00  2.692301440E+02  2.692301440E+02  0.000000000E+00  0.00000E+00  9.000E+00
      21    -1     0     0   501   502  0.000000000E+00  0.000000000E+00 -3.694180899E+02  3.694180899E+02  0.000000000E+00  0.00000E+00  9.000E+00
      25     1     1     2     0     0  1.993717460E+02  1.848227981E+02 -1.455139096E+02  3.327279034E+02  1.250000000E+02  0.00000E+00  9.000E+00
      25     1     1     2     0     0 -1.757875670E+02 -1.624037389E+02  4.079149460E+01  2.730662725E+02  1.250000000E+02  0.00000E+00  9.000E+00
      21     1     1     2   501   512 -2.358417901E+01 -2.241905927E+01  4.534469096E+00  3.285405801E+01  6.529361695E-07  0.00000E+00  9.000E+00
#rwgt            1           1   2.8014370031805003E-002           3      187152           0
</event>
<event>
      5   9999  3.19816E-02  7.28568E+01 -1.00000E+00  1.30347E-01
      21    -1     0     0   502   501  0.000000000E+00  0.000000000E+00  4.659751000E+02  4.659751000E+02  0.000000000E+00  0.00000E+00  9.000E+00
      21    -1     0     0   501   511  0.000000000E+00  0.000000000E+00 -1.222609886E+03  1.222609886E+03  0.000000000E+00  0.00000E+00  9.000E+00
      25     1     1     2     0     0  1.594818429E+02 -6.802038840E+02 -1.904720204E+02  7.348580628E+02  1.250000000E+02  0.00000E+00  9.000E+00
      25     1     1     2     0     0 -2.233114718E+02  6.450770414E+02 -5.004052837E+02  8.555833394E+02  1.250000000E+02  0.00000E+00  9.000E+00
      21     1     1     2   502   511  6.382962884E+01  3.512684258E+01 -6.575748194E+01  9.814358369E+01  9.536743164E-07  0.00000E+00  9.000E+00
#rwgt            1           1   3.4161058879433423E-002           3      187274           0
</event>
<event>
      5   9999  3.19816E-02  5.13792E+01 -1.00000E+00  1.38405E-01
       2    -1     0     0   502     0  0.000000000E+00  0.000000000E+00  2.980277663E+03  2.980277663E+03  0.000000000E+00  0.00000E+00  9.000E+00
      21    -1     0     0   501   502  0.000000000E+00  0.000000000E+00 -1.374874067E+02  1.374874067E+02  0.000000000E+00  0.00000E+00  9.000E+00
      25     1     1     2     0     0  8.140585128E+01 -1.789791118E+02  1.996836095E+03  2.010383005E+03  1.250000000E+02  0.00000E+00  9.000E+00
      25     1     1     2     0     0 -3.103651968E+01  1.688425176E+02 -4.323073616E+01  2.167140001E+02  1.250000000E+02  0.00000E+00  9.000E+00
       2     1     1     2   501     0 -5.036933160E+01  1.013659419E+01  8.891848975E+02  8.906680651E+02  1.078959322E-05  0.00000E+00  9.000E+00
#rwgt            1           1   3.5069791516197296E-002           3      187350           0
</event>
<event>
      5   9999  3.19816E-02  1.36388E+02 -1.00000E+00  1.18055E-01
      21    -1     0     0   502   511  0.000000000E+00  0.000000000E+00  4.621207550E+02  4.621207550E+02  0.000000000E+00  0.00000E+00  9.000E+00
      21    -1     0     0   501   502  0.000000000E+00  0.000000000E+00 -3.012047788E+02  3.012047788E+02  0.000000000E+00  0.00000E+00  9.000E+00
      25     1     1     2     0     0 -1.578215014E+02 -1.468984042E+02  3.303657387E+01  2.514024317E+02  1.250000000E+02  0.00000E+00  9.000E+00
      25     1     1     2     0     0  2.936551647E+02  1.591786621E+02  6.847414989E+01  3.631596225E+02  1.250000000E+02  0.00000E+00  9.000E+00
      21     1     1     2   501   511 -1.358336633E+02 -1.228025785E+01  5.940525245E+01  1.487634795E+02  3.015782986E-06  0.00000E+00  9.000E+00
#rwgt            1           1   3.0491728432342109E-002           3      187438           0
</event>
<event>
      5   9999  3.19816E-02  9.43374E+01 -1.00000E+00  1.24977E-01
      21    -1     0     0   512   501  0.000000000E+00  0.000000000E+00  1.196073919E+03  1.196073919E+03  0.000000000E+00  0.00000E+00  9.000E+00
      21    -1     0     0   501   502  0.000000000E+00  0.000000000E+00 -8.465002298E+01  8.465002298E+01  0.000000000E+00  0.00000E+00  9.000E+00
      25     1     1     2     0     0  4.028768674E+01  6.117117649E+01  8.081138801E+02  8.209982057E+02  1.250000000E+02  0.00000E+00  9.000E+00
      25     1     1     2     0     0 -8.911493007E+01  1.954716911E+01  1.395548584E+01  1.553812027E+02  1.250000000E+02  0.00000E+00  9.000E+00
      21     1     1     2   512   502  4.882724333E+01 -8.071834560E+01  2.893545300E+02  3.043445334E+02  3.814697266E-06  0.00000E+00  9.000E+00
#rwgt            2          11   2.6124744609650795E-003           3      187585           0
</event>
<event>
      5   9999  3.19816E-02  1.45377E+02 -1.00000E+00  1.16935E-01
      21    -1     0     0   502   501  0.000000000E+00  0.000000000E+00  5.674292270E+02  5.674292270E+02  0.000000000E+00  0.00000E+00  9.000E+00
      21    -1     0     0   511   502  0.000000000E+00  0.000000000E+00 -4.231848636E+02  4.231848636E+02  0.000000000E+00  0.00000E+00  9.000E+00
      25     1     1     2     0     0  2.863408722E+02 -3.497917666E+02 -4.104649742E+01  4.708027082E+02  1.250000000E+02  0.00000E+00  9.000E+00
      25     1     1     2     0     0 -2.060346670E+02  2.286085001E+02  1.713654179E+02  3.737689618E+02  1.250000000E+02  0.00000E+00  9.000E+00
      21     1     1     2   511   501 -8.030620522E+01  1.211832665E+02  1.392544293E+01  1.460424207E+02  3.207593929E-06  0.00000E+00  9.000E+00
#rwgt            1           1   2.6216562776477940E-002           3      187605           0
</event>
<event>
      5   9999  3.19816E-02  1.15029E+02 -1.00000E+00  1.21153E-01
      21    -1     0     0   502   512  0.000000000E+00  0.000000000E+00  5.349098905E+02  5.349098905E+02  0.000000000E+00  0.00000E+00  9.000E+00
      21    -1     0     0   501   502  0.000000000E+00  0.000000000E+00 -4.047458126E+02  4.047458126E+02  0.000000000E+00  0.00000E+00  9.000E+00
      25     1     1     2     0     0  1.296664211E+02 -6.315800696E+01 -2.897098283E+02  3.469280894E+02  1.250000000E+02  0.00000E+00  9.000E+00
      25     1     1     2     0     0 -2.317179546E+02  1.162358289E+02  3.662907122E+02  4.658302956E+02  1.250000000E+02  0.00000E+00  9.000E+00
      21     1     1     2   501   512  1.020515335E+02 -5.307782194E+01  5.358319398E+01  1.268973181E+02  6.743495762E-07  0.00000E+00  9.000E+00
#rwgt            2          11   4.1837818162842894E-003           3      187753           0
</event>
<event>
      5   9999  3.19816E-02  5.63430E+01 -1.00000E+00  1.36179E-01
      21    -1     0     0   511   501  0.000000000E+00  0.000000000E+00  4.404512428E+02  4.404512428E+02  0.000000000E+00  0.00000E+00  9.000E+00
      21    -1     0     0   501   502  0.000000000E+00  0.000000000E+00 -1.049177258E+03  1.049177258E+03  0.000000000E+00  0.00000E+00  9.000E+00
      25     1     1     2     0     0  5.831998362E+00  9.404805911E+01 -1.382529485E+02  2.088490541E+02  1.250000000E+02  0.00000E+00  9.000E+00
      25     1     1     2     0     0 -4.263962574E+01 -5.138976191E+01 -8.678919872E+02  8.793864604E+02  1.250000000E+02  0.00000E+00  9.000E+00
      21     1     1     2   511   502  3.680762738E+01 -4.265829719E+01  3.974189200E+02  4.013929867E+02  9.344061824E-06  0.00000E+00  9.000E+00
#rwgt            1           1   3.0996090427778716E-002           3      187773           0
</event>
<event>
      5   9999  3.19816E-02  3.87866E+02 -1.00000E+00  1.02090E-01
       2    -1     0     0   502     0  0.000000000E+00  0.000000000E+00  2.540580532E+03  2.540580532E+03  0.000000000E+00  0.00000E+00  9.000E+00
      21    -1     0     0   501   502  0.000000000E+00  0.000000000E+00 -2.057071872E+02  2.057071872E+02  0.000000000E+00  0.00000E+00  9.000E+00
      25     1     1     2     0     0  1.665485822E+02 -1.735162445E+02 -3.972467343E+01  2.739513954E+02  1.250000000E+02  0.00000E+00  9.000E+00
      25     1     1     2     0     0  1.868034495E+02  1.357186037E+01  1.483395132E+03  1.500388563E+03  1.250000000E+02  0.00000E+00  9.000E+00
       2     1     1     2   501     0 -3.533520317E+02  1.599443841E+02  8.912028870E+02  9.719477610E+02  1.078959322E-05  0.00000E+00  9.000E+00
#rwgt            1           1   2.8408768067312896E-002           3      187839           0
</event>
<event>
      5   9999  3.19816E-02  4.85545E+01 -1.00000E+00  1.39806E-01
      21    -1     0     0   502   501  0.000000000E+00  0.000000000E+00  8.980941079E+02  8.980941079E+02  0.000000000E+00  0.00000E+00  9.000E+00
       2    -1     0     0   501     0  0.000000000E+00  0.000000000E+00 -3.780874583E+02  3.780874583E+02  0.000000000E+00  0.00000E+00  9.000E+00
      25     1     1     2     0     0  1.415850205E+02  1.881904194E+02  3.659999424E+02  4.528166405E+02  1.250000000E+02  0.00000E+00  9.000E+00
      25     1     1     2     0     0 -1.074862029E+02 -1.536243494E+02  4.606968420E+02  5.128550524E+02  1.250000000E+02  0.00000E+00  9.000E+00
       2     1     1     2   502     0 -3.409881764E+01 -3.456607002E+01 -3.066901349E+02  3.105098733E+02  5.394796609E-06  0.00000E+00  9.000E+00
#rwgt            1           1   2.8145480295901668E-002           3      187873           0
</event>
<event>
      5   9999  3.19816E-02  2.15362E+01 -1.00000E+00  1.63760E-01
      21    -1     0     0   502   501  0.000000000E+00  0.000000000E+00  3.571368291E+03  3.571368291E+03  0.000000000E+00  0.00000E+00  9.000E+00
      21    -1     0     0   511   502  0.000000000E+00  0.000000000E+00 -2.852951254E+02  2.852951254E+02  0.000000000E+00  0.00000E+00  9.000E+00
      25     1     1     2     0     0  2.554480122E+02 -5.026334479E+02  1.579612220E+03  1.681872122E+03  1.250000000E+02  0.00000E+00  9.000E+00
      25     1     1     2     0     0 -2.693012457E+02  4.861442368E+02  1.898208812E+03  1.981837802E+03  1.250000000E+02  0.00000E+00  9.000E+00
      21     1     1     2   511   501  1.385323350E+01  1.648921102E+01 -1.917478659E+02  1.929534925E+02  3.814697266E-06  0.00000E+00  9.000E+00
#rwgt            1           1   3.1986570215710504E-002           3      187989           0
</event>
<event>
      5   9999  3.19816E-02  1.43930E+02 -1.00000E+00  1.17109E-01
      21    -1     0     0   502   501  0.000000000E+00  0.000000000E+00  1.173579666E+03  1.173579666E+03  0.000000000E+00  0.00000E+00  9.000E+00
      21    -1     0     0   512   502  0.000000000E+00  0.000000000E+00 -5.524964120E+01  5.524964120E+01  0.000000000E+00  0.00000E+00  9.000E+00
      25     1     1     2     0     0 -6.296075033E+01 -1.591484011E+01  5.585281174E+02  5.760173575E+02  1.250000000E+02  0.00000E+00  9.000E+00
      25     1     1     2     0     0 -3.306548444E+00  1.436820381E+02  2.887186027E+02  3.458885556E+02  1.250000000E+02  0.00000E+00  9.000E+00
      21     1     1     2   512   501  6.626729877E+01 -1.277671980E+02  2.710833046E+02  3.069233941E+02  3.814697266E-06  0.00000E+00  9.000E+00
#rwgt            1           1   3.8653645330725239E-002           3      188191           0
</event>
<event>
      5   9999  3.19816E-02  3.74893E+01 -1.00000E+00  1.46608E-01
      21    -1     0     0   511   501  0.000000000E+00  0.000000000E+00  1.519904885E+03  1.519904885E+03  0.000000000E+00  0.00000E+00  9.000E+00
      21    -1     0     0   501   502  0.000000000E+00  0.000000000E+00 -1.833489330E+02  1.833489330E+02  0.000000000E+00  0.00000E+00  9.000E+00
      25     1     1     2     0     0  2.180717345E+01  4.657573758E+02  4.959461697E+02  6.920932663E+02  1.250000000E+02  0.00000E+00  9.000E+00
      25     1     1     2     0     0 -4.463042675E+01 -4.954987373E+02  7.143302069E+02  8.794336349E+02  1.250000000E+02  0.00000E+00  9.000E+00
      21     1     1     2   511   502  2.282325330E+01  2.974136142E+01  1.262795750E+02  1.317269165E+02  2.697398305E-06  0.00000E+00  9.000E+00
#rwgt            1           1   2.7932601928244941E-002           3      188229           0
</event>
<event>
      5   9999  3.19816E-02  2.19150E+01 -1.00000E+00  1.63158E-01
      21    -1     0     0   502   512  0.000000000E+00  0.000000000E+00  1.630788815E+02  1.630788815E+02  0.000000000E+00  0.00000E+00  9.000E+00
      21    -1     0     0   501   502  0.000000000E+00  0.000000000E+00 -7.730548308E+02  7.730548308E+02  0.000000000E+00  0.00000E+00  9.000E+00
      25     1     1     2     0     0 -1.933862362E+02  1.484107131E+01  2.935248508E+01  2.326049486E+02  1.250000000E+02  0.00000E+00  9.000E+00
      25     1     1     2     0     0  1.852821194E+02 -3.520251842E+01 -6.426926222E+02  6.813570926E+02  1.250000000E+02  0.00000E+00  9.000E+00
      21     1     1     2   501   512  8.104116819E+00  2.036144711E+01  3.364187746E+00  2.217167104E+01  5.809542146E-07  0.00000E+00  9.000E+00
#rwgt            1           1   2.8393937583272542E-002           3      188375           0
</event>
<event>
      5   9999  3.19816E-02  7.21043E+01 -1.00000E+00  1.30573E-01
      21    -1     0     0   502   501  0.000000000E+00  0.000000000E+00  9.926773547E+02  9.926773547E+02  0.000000000E+00  0.00000E+00  9.000E+00
      21    -1     0     0   501   511  0.000000000E+00  0.000000000E+00 -1.731621135E+03  1.731621135E+03  0.000000000E+00  0.00000E+00  9.000E+00
      25     1     1     2     0     0  3.631242626E+02  1.201185151E+02  9.576809201E+00  4.024977057E+02  1.250000000E+02  0.00000E+00  9.000E+00
      25     1     1     2     0     0 -3.322731430E+02 -5.494763373E+01  7.447118283E+02  8.268285138E+02  1.250000000E+02  0.00000E+00  9.000E+00
      21     1     1     2   502   511 -3.085111965E+01 -6.517088137E+01 -1.493232418E+03  1.494972270E+03  2.157918644E-05  0.00000E+00  9.000E+00
#rwgt            2          11   4.8456458768703073E-003           3      188551           0
</event>
<event>
      5   9999  3.19816E-02  2.21631E+01 -1.00000E+00  1.62771E-01
      21    -1     0     0   502   501  0.000000000E+00  0.000000000E+00  2.068493668E+02  2.068493668E+02  0.000000000E+00  0.00000E+00  9.000E+00
      21    -1     0     0   512   502  0.000000000E+00  0.000000000E+00 -4.305501979E+02  4.305501979E+02  0.000000000E+00  0.00000E+00  9.000E+00
      25     1     1     2     0     0 -1.744624962E+02  7.808511411E+01  6.346311020E+01  2.370380012E+02  1.250000000E+02  0.00000E+00  9.000E+00
      25     1     1     2     0     0  1.958496311E+02 -8.389835691E+01 -2.241473519E+02  3.335611603E+02  1.250000000E+02  0.00000E+00  9.000E+00
      21     1     1     2   512   501 -2.138713487E+01  5.813242796E+00 -6.301658934E+01  6.680040316E+01  1.168007728E-06  0.00000E+00  9.000E+00
#rwgt            1           1   2.8791654479036342E-002           3      188586           0
</event>
<event>
      5   9999  3.19816E-02  8.50598E+01 -1.00000E+00  1.27073E-01
      21    -1     0     0   502   501  0.000000000E+00  0.000000000E+00  5.901349125E+02  5.901349125E+02  0.000000000E+00  0.00000E+00  9.000E+00
      21    -1     0     0   511   502  0.000000000E+00  0.000000000E+00 -3.973478298E+02  3.973478298E+02  0.000000000E+00  0.00000E+00  9.000E+00
      25     1     1     2     0     0  8.967754931E+01  2.003019720E+02 -2.845288873E+02  3.804531910E+02  1.250000000E+02  0.00000E+00  9.000E+00
      25     1     1     2     0     0 -3.015491702E+01 -1.395383428E+02  4.858047716E+02  5.215472598E+02  1.250000000E+02  0.00000E+00  9.000E+00
      21     1     1     2   511   501 -5.952263229E+01 -6.076362928E+01 -8.488801558E+00  8.548229144E+01  1.469710828E-06  0.00000E+00  9.000E+00
#rwgt            1           1   2.9851567986397126E-002           3      188668           0
</event>
<event>
      5   9999  3.19816E-02  1.33634E+02 -1.00000E+00  1.18417E-01
      21    -1     0     0   502   512  0.000000000E+00  0.000000000E+00  1.342239622E+03  1.342239622E+03  0.000000000E+00  0.00000E+00  9.000E+00
      21    -1     0     0   501   502  0.000000000E+00  0.000000000E+00 -5.620234440E+01  5.620234440E+01  0.000000000E+00  0.00000E+00  9.000E+00
      25     1     1     2     0     0 -3.341660005E+01 -1.126064515E+02  1.897907804E+02  2.558171660E+02  1.250000000E+02  0.00000E+00  9.000E+00
      25     1     1     2     0     0 -3.791986581E+01 -3.945447124E-01  2.170126062E+02  2.532933934E+02  1.250000000E+02  0.00000E+00  9.000E+00
      21     1     1     2   501   512  7.133646586E+01  1.130009962E+02  8.792338908E+02  8.893314069E+02  1.525878906E-05  0.00000E+00  9.000E+00
#rwgt            1           1   1.7609113675026267E-002           3      188742           0
</event>
<event>
      5   9999  3.19816E-02  1.80154E+02 -1.00000E+00  1.13326E-01
      -4    -1     0     0     0   501  0.000000000E+00  0.000000000E+00  4.488603052E+02  4.488603052E+02  0.000000000E+00  0.00000E+00  9.000E+00
      21    -1     0     0   501   502  0.000000000E+00  0.000000000E+00 -4.523996078E+02  4.523996078E+02  0.000000000E+00  0.00000E+00  9.000E+00
      25     1     1     2     0     0  1.537240291E+02 -1.354360591E+02  5.477935580E+01  2.461702278E+02  1.250000000E+02  0.00000E+00  9.000E+00
      25     1     1     2     0     0  1.558520896E+01  1.969989973E+02 -2.829981118E+02  3.671027581E+02  1.250000000E+02  0.00000E+00  9.000E+00
      -4     1     1     2     0   502 -1.693092381E+02 -6.156293825E+01  2.246794534E+02  2.879869272E+02  3.814697266E-06  0.00000E+00  9.000E+00
#rwgt            1           1   2.7049203867285675E-002           3      188772           0
</event>
<event>
      5   9999  3.19816E-02  1.48348E+01 -1.00000E+00  1.77838E-01
      21    -1     0     0   502   501  0.000000000E+00  0.000000000E+00  4.959171050E+01  4.959171050E+01  0.000000000E+00  0.00000E+00  9.000E+00
      21    -1     0     0   511   502  0.000000000E+00  0.000000000E+00 -2.376005364E+03  2.376005364E+03  0.000000000E+00  0.00000E+00  9.000E+00
      25     1     1     2     0     0  1.810820153E+02  1.722757955E+02 -7.766780270E+02  8.254231664E+02  1.250000000E+02  0.00000E+00  9.000E+00
      25     1     1     2     0     0 -1.794052445E+02 -1.870155078E+02 -7.979088214E+02  8.482007600E+02  1.250000000E+02  0.00000E+00  9.000E+00
      21     1     1     2   511   501 -1.676770849E+00  1.473971226E+01 -7.518268052E+02  7.519731483E+02  1.525878906E-05  0.00000E+00  9.000E+00
#rwgt            1           1   3.1808638457305784E-002           3      188838           0
</event>
<event>
      5   9999  3.19816E-02  1.48617E+01 -1.00000E+00  1.77763E-01
      21    -1     0     0   502   501  0.000000000E+00  0.000000000E+00  7.026104633E+02  7.026104633E+02  0.000000000E+00  0.00000E+00  9.000E+00
      21    -1     0     0   512   502  0.000000000E+00  0.000000000E+00 -4.558694100E+02  4.558694100E+02  0.000000000E+00  0.00000E+00  9.000E+00
      25     1     1     2     0     0 -1.779010631E+02  1.779092955E+02 -1.352661119E+02  3.118051102E+02  1.250000000E+02  0.00000E+00  9.000E+00
      25     1     1     2     0     0  1.875601540E+02 -1.892041369E+02  5.788028609E+02  6.493186957E+02  1.250000000E+02  0.00000E+00  9.000E+00
      21     1     1     2   512   501 -9.659090880E+00  1.129484141E+01 -1.967956957E+02  1.973560674E+02  2.697398305E-06  0.00000E+00  9.000E+00
#rwgt            1           1   3.1070650326074756E-002           3      189031           0
</event>
<event>
      5   9999  3.19816E-02  3.61128E+01 -1.00000E+00  1.47649E-01
      21    -1     0     0   502   501  0.000000000E+00  0.000000000E+00  5.684398363E+02  5.684398363E+02  0.000000000E+00  0.00000E+00  9.000E+00
      21    -1     0     0   511   502  0.000000000E+00  0.000000000E+00 -4.318573530E+02  4.318573530E+02  0.000000000E+00  0.00000E+00  9.000E+00
      25     1     1     2     0     0 -1.472683815E+02  1.045746582E+02  2.579807642E+02  3.388257812E+02  1.250000000E+02  0.00000E+00  9.000E+00
      25     1     1     2     0     0  1.168756164E+02 -1.240788742E+02  2.275964142E+02  3.106132716E+02  1.250000000E+02  0.00000E+00  9.000E+00
      21     1     1     2   511   501  3.039276511E+01  1.950421603E+01 -3.489946952E+02  3.508581364E+02  3.814697266E-06  0.00000E+00  9.000E+00
#rwgt            1           1   2.7265519287597625E-002           3      189227           0
</event>
<event>
      5   9999  3.19816E-02  1.12604E+02 -1.00000E+00  1.21553E-01
      21    -1     0     0   502   501  0.000000000E+00  0.000000000E+00  6.262728713E+02  6.262728713E+02  0.000000000E+00  0.00000E+00  9.000E+00
      -3    -1     0     0     0   502  0.000000000E+00  0.000000000E+00 -5.160345795E+02  5.160345795E+02  0.000000000E+00  0.00000E+00  9.000E+00
      25     1     1     2     0     0  3.112306477E+02  4.729648611E+01  2.789557050E+02  4.387969451E+02  1.250000000E+02  0.00000E+00  9.000E+00
      25     1     1     2     0     0 -4.237397523E+02 -4.268368213E+01  6.066879587E+01  4.479765364E+02  1.250000000E+02  0.00000E+00  9.000E+00
      -3     1     1     2     0   501  1.125091046E+02 -4.612803982E+00 -2.293862091E+02  2.555339693E+02  2.697398305E-06  0.00000E+00  9.000E+00
#rwgt            1           1   2.7225489807803115E-002           3      189372           0
</event>
<event>
      5   9999  3.19816E-02  1.99551E+01 -1.00000E+00  1.66450E-01
      21    -1     0     0   502   501  0.000000000E+00  0.000000000E+00  9.394643981E+02  9.394643981E+02  0.000000000E+00  0.00000E+00  9.000E+00
      21    -1     0     0   511   502  0.000000000E+00  0.000000000E+00 -2.876536916E+02  2.876536916E+02  0.000000000E+00  0.00000E+00  9.000E+00
      25     1     1     2     0     0  2.508312937E+02  1.109024825E+02  1.527383730E+02  3.378900844E+02  1.250000000E+02  0.00000E+00  9.000E+00
      25     1     1     2     0     0 -2.669356546E+02 -1.226861467E+02  6.567772348E+02  7.302656164E+02  1.250000000E+02  0.00000E+00  9.000E+00
      21     1     1     2   511   501  1.610436091E+01  1.178366419E+01 -1.577049013E+02  1.589623889E+02  3.303624740E-06  0.00000E+00  9.000E+00
#rwgt            1           1   2.8337339999013791E-002           3      189440           0
</event>
<event>
      5   9999  3.19816E-02  5.93035E+01 -1.00000E+00  1.34975E-01
      21    -1     0     0   512   501  0.000000000E+00  0.000000000E+00  5.179612509E+01  5.179612509E+01  0.000000000E+00  0.00000E+00  9.000E+00
      21    -1     0     0   501   502  0.000000000E+00  0.000000000E+00 -1.346992693E+03  1.346992693E+03  0.000000000E+00  0.00000E+00  9.000E+00
      25     1     1     2     0     0 -3.068609064E+01  1.134073978E+02 -9.246545249E+02  9.404328070E+02  1.250000000E+02  0.00000E+00  9.000E+00
      25     1     1     2     0     0  7.688110058E+01 -1.505950979E+02 -2.964921016E+02  3.634861117E+02  1.250000000E+02  0.00000E+00  9.000E+00
      21     1     1     2   512   502 -4.619500994E+01  3.718770010E+01 -7.404994154E+01  9.486989946E+01  1.907348633E-06  0.00000E+00  9.000E+00
#rwgt            1           1   3.1191305910264477E-002           3      189575           0
</event>
<event>
      5   9999  3.19816E-02  2.85269E+01 -1.00000E+00  1.54574E-01
      21    -1     0     0   502   501  0.000000000E+00  0.000000000E+00  1.391089134E+03  1.391089134E+03  0.000000000E+00  0.00000E+00  9.000E+00
      21    -1     0     0   501   511  0.000000000E+00  0.000000000E+00 -2.738558698E+02  2.738558698E+02  0.000000000E+00  0.00000E+00  9.000E+00
      25     1     1     2     0     0  2.426361735E+02  3.904320878E+02  1.064785996E+03  1.166492068E+03  1.250000000E+02  0.00000E+00  9.000E+00
      25     1     1     2     0     0 -2.145948499E+02 -3.956732994E+02  4.992774185E+01  4.698149517E+02  1.250000000E+02  0.00000E+00  9.000E+00
      21     1     1     2   502   511 -2.804132352E+01  5.241211620E+00  2.519526687E+00  2.863798420E+01  2.128311523E-07  0.00000E+00  9.000E+00
#rwgt            1           1   2.9228494309261669E-002           3      189673           0
</event>
<event>
      5   9999  3.19816E-02  6.32067E+01 -1.00000E+00  1.33506E-01
      21    -1     0     0   502   512  0.000000000E+00  0.000000000E+00  2.084451592E+03  2.084451592E+03  0.000000000E+00  0.00000E+00  9.000E+00
      21    -1     0     0   501   502  0.000000000E+00  0.000000000E+00 -1.170083867E+03  1.170083867E+03  0.000000000E+00  0.00000E+00  9.000E+00
      25     1     1     2     0     0 -2.829965081E+02 -6.699792169E+02 -2.927841578E+02  7.939185964E+02  1.250000000E+02  0.00000E+00  9.000E+00
      25     1     1     2     0     0  3.452434470E+02  6.590062513E+02 -3.988718103E+02  8.533498684E+02  1.250000000E+02  0.00000E+00  9.000E+00
      21     1     1     2   501   512 -6.224693888E+01  1.097296562E+01  1.606023693E+03  1.607266994E+03  2.157918644E-05  0.00000E+00  9.000E+00
#rwgt            1           1   2.5548865829707661E-002           3      189814           0
</event>
<event>
      5   9999  3.19816E-02  9.18775E+01 -1.00000E+00  1.25506E-01
       2    -1     0     0   502     0  0.000000000E+00  0.000000000E+00  1.041614111E+03  1.041614111E+03  0.000000000E+00  0.00000E+00  9.000E+00
      21    -1     0     0   501   502  0.000000000E+00  0.000000000E+00 -1.509730499E+02  1.509730499E+02  0.000000000E+00  0.00000E+00  9.000E+00
      25     1     1     2     0     0  5.520389173E+01 -2.054903933E+02  2.004829176E+01  2.475897926E+02  1.250000000E+02  0.00000E+00  9.000E+00
      25     1     1     2     0     0 -1.464614408E+02  1.948348753E+02  6.100168836E+02  6.686981236E+02  1.250000000E+02  0.00000E+00  9.000E+00
       2     1     1     2   501     0  9.125754905E+01  1.065551801E+01  2.605758855E+02  2.762992444E+02  0.000000000E+00  0.00000E+00  9.000E+00
#rwgt            1           1   2.8029223725279134E-002           3      189982           0
</event>
<event>
      5   9999  3.19816E-02  6.91754E+01 -1.00000E+00  1.31482E-01
      21    -1     0     0   502   511  0.000000000E+00  0.000000000E+00  5.822998123E+02  5.822998123E+02  0.000000000E+00  0.00000E+00  9.000E+00
      21    -1     0     0   501   502  0.000000000E+00  0.000000000E+00 -7.921763340E+02  7.921763340E+02  0.000000000E+00  0.00000E+00  9.000E+00
      25     1     1     2     0     0  1.641744931E+02  2.536117888E+01  4.277305330E+02  4.755784504E+02  1.250000000E+02  0.00000E+00  9.000E+00
      25     1     1     2     0     0 -1.683372248E+02 -9.441119553E+01 -7.402376175E+02  7.751307150E+02  1.250000000E+02  0.00000E+00  9.000E+00
      21     1     1     2   501   511  4.162731638E+00  6.905001665E+01  1.026305628E+02  1.237669809E+02  1.348699152E-06  0.00000E+00  9.000E+00
#rwgt            2          11   3.7978838431030489E-003           3      190071           0
</event>
<event>
      5   9999  3.19816E-02  1.96283E+02 -1.00000E+00  1.11945E-01
      -3    -1     0     0     0   501  0.000000000E+00  0.000000000E+00  6.864883943E+02  6.864883943E+02  0.000000000E+00  0.00000E+00  9.000E+00
      21    -1     0     0   501   502  0.000000000E+00  0.000000000E+00 -7.556179906E+02  7.556179906E+02  0.000000000E+00  0.00000E+00  9.000E+00
      25     1     1     2     0     0 -3.280773596E+02 -2.811893505E+02 -2.859450053E+02  5.330025805E+02  1.250000000E+02  0.00000E+00  9.000E+00
      25     1     1     2     0     0  3.248696830E+02  8.493213111E+01 -2.267693897E+02  4.240319963E+02  1.250000000E+02  0.00000E+00  9.000E+00
      -3     1     1     2     0   502  3.207676623E+00  1.962572194E+02  4.435847988E+02  4.850718081E+02  0.000000000E+00  0.00000E+00  9.000E+00
#rwgt            2           3   9.5092450266088551E-005           3      190106           0
</event>
<event>
      5   9999  3.19816E-02  2.95181E+01 -1.00000E+00  1.53530E-01
      21    -1     0     0   502   501  0.000000000E+00  0.000000000E+00  9.529238726E+01  9.529238726E+01  0.000000000E+00  0.00000E+00  9.000E+00
      21    -1     0     0   501   511  0.000000000E+00  0.000000000E+00 -1.508970635E+03  1.508970635E+03  0.000000000E+00  0.00000E+00  9.000E+00
      25     1     1     2     0     0 -1.366421479E+01 -1.606895800E+01  3.562478263E+01  1.316778163E+02  1.250000000E+02  0.00000E+00  9.000E+00
      25     1     1     2     0     0 -3.087340535E+00  4.037330110E+01 -3.658418406E+02  3.887219925E+02  1.250000000E+02  0.00000E+00  9.000E+00
      21     1     1     2   502   511  1.675155533E+01 -2.430434310E+01 -1.083461190E+03  1.083863214E+03  1.525878906E-05  0.00000E+00  9.000E+00
#rwgt            1           1   3.0746165608565221E-002           3      190155           0
</event>
<event>
      5   9999  3.19816E-02  2.87969E+01 -1.00000E+00  1.54285E-01
      21    -1     0     0   512   501  0.000000000E+00  0.000000000E+00  1.102084950E+03  1.102084950E+03  0.000000000E+00  0.00000E+00  9.000E+00
      21    -1     0     0   501   502  0.000000000E+00  0.000000000E+00 -7.387203595E+02  7.387203595E+02  0.000000000E+00  0.00000E+00  9.000E+00
      25     1     1     2     0     0  3.995634703E+02  7.623137042E+01 -6.194506285E+02  7.515359405E+02  1.250000000E+02  0.00000E+00  9.000E+00
      25     1     1     2     0     0 -4.180204689E+02 -5.412708277E+01  9.391130036E+02  1.036932537E+03  1.250000000E+02  0.00000E+00  9.000E+00
      21     1     1     2   512   502  1.845699855E+01 -2.210428765E+01  4.370221566E+01  5.233683198E+01  6.743495762E-07  0.00000E+00  9.000E+00
#rwgt            1           1   2.6322902899997135E-002           3      190260           0
</event>
<event>
      5   9999  3.19816E-02  2.09137E+01 -1.00000E+00  1.64784E-01
      21    -1     0     0   502   511  0.000000000E+00  0.000000000E+00  1.426702252E+02  1.426702252E+02  0.000000000E+00  0.00000E+00  9.000E+00
      21    -1     0     0   501   502  0.000000000E+00  0.000000000E+00 -3.272165974E+02  3.272165974E+02  0.000000000E+00  0.00000E+00  9.000E+00
      25     1     1     2     0     0 -6.510965171E+01 -9.546859060E+01 -1.396527844E+02  2.201849648E+02  1.250000000E+02  0.00000E+00  9.000E+00
      25     1     1     2     0     0  6.474059293E+01  1.163790733E+02 -8.728445948E+01  2.024327294E+02  1.250000000E+02  0.00000E+00  9.000E+00
      21     1     1     2   501   511  3.690587802E-01 -2.091048265E+01  4.239087178E+01  4.726912840E+01  9.536743164E-07  0.00000E+00  9.000E+00
#rwgt            1           1   2.9017707414168082E-002           3      190453           0
</event>
<event>
      5   9999  3.19816E-02  7.15016E+01 -1.00000E+00  1.30756E-01
      21    -1     0     0   502   501  0.000000000E+00  0.000000000E+00  2.175858463E+02  2.175858463E+02  0.000000000E+00  0.00000E+00  9.000E+00
      21    -1     0     0   512   502  0.000000000E+00  0.000000000E+00 -8.713764703E+02  8.713764703E+02  0.000000000E+00  0.00000E+00  9.000E+00
      25     1     1     2     0     0  6.427752287E+01  3.098906714E+02 -5.254155209E+01  3.443100969E+02  1.250000000E+02  0.00000E+00  9.000E+00
      25     1     1     2     0     0 -4.967588105E-01 -3.422093829E+02 -5.343634106E+02  6.467431972E+02  1.250000000E+02  0.00000E+00  9.000E+00
      21     1     1     2   512   501 -6.378076406E+01  3.231871154E+01 -6.688566132E+01  9.790902242E+01  9.536743164E-07  0.00000E+00  9.000E+00
#rwgt            1           1   2.7627301547966585E-002           3      190550           0
</event>
<event>
      5   9999  3.19816E-02  1.16573E+02 -1.00000E+00  1.20905E-01
      21    -1     0     0   502   501  0.000000000E+00  0.000000000E+00  1.313997665E+03  1.313997665E+03  0.000000000E+00  0.00000E+00  9.000E+00
      21    -1     0     0   511   502  0.000000000E+00  0.000000000E+00 -1.377399755E+02  1.377399755E+02  0.000000000E+00  0.00000E+00  9.000E+00
      25     1     1     2     0     0 -3.887402382E+01  2.540896575E+02  9.755523713E+02  1.016562921E+03  1.250000000E+02  0.00000E+00  9.000E+00
      25     1     1     2     0     0  1.141379843E+02 -1.650691253E+02  2.126459984E+02  3.179915348E+02  1.250000000E+02  0.00000E+00  9.000E+00
      21     1     1     2   511   501 -7.526396047E+01 -8.902053217E+01 -1.194068006E+01  1.171831845E+02  2.165544286E-06  0.00000E+00  9.000E+00
#rwgt            1           1   3.6162398678360595E-002           3      190642           0
</event>
<event>
      5   9999  3.19816E-02  2.15258E+01 -1.00000E+00  1.63777E-01
      21    -1     0     0   502   501  0.000000000E+00  0.000000000E+00  1.596348357E+02  1.596348357E+02  0.000000000E+00  0.00000E+00  9.000E+00
      21    -1     0     0   512   502  0.000000000E+00  0.000000000E+00 -4.067669948E+02  4.067669948E+02  0.000000000E+00  0.00000E+00  9.000E+00
      25     1     1     2     0     0  3.989085374E+01  1.568409172E+02 -9.696087952E+01  2.263112142E+02  1.250000000E+02  0.00000E+00  9.000E+00
      25     1     1     2     0     0 -5.584299015E+01 -1.423879600E+02 -9.474023173E+00  1.977562333E+02  1.250000000E+02  0.00000E+00  9.000E+00
      21     1     1     2   512   501  1.595213641E+01 -1.445295716E+01 -1.406972564E+02  1.423343830E+02  3.303624740E-06  0.00000E+00  9.000E+00
#rwgt            2          11   7.0146081528575275E-004           3      190701           0
</event>
<event>
      5   9999  3.19816E-02  3.92993E+02 -1.00000E+00  1.01917E-01
       1    -1     0     0   502     0  0.000000000E+00  0.000000000E+00  1.871679827E+03  1.871679827E+03  0.000000000E+00  0.00000E+00  9.000E+00
      21    -1     0     0   501   502  0.000000000E+00  0.000000000E+00 -6.825266267E+02  6.825266267E+02  0.000000000E+00  0.00000E+00  9.000E+00
      25     1     1     2     0     0 -3.884549901E+02 -4.231322152E+02  5.362333501E+02  7.956816930E+02  1.250000000E+02  0.00000E+00  9.000E+00
      25     1     1     2     0     0  6.127151292E+02  1.004084533E+02 -3.197354099E+02  7.094768631E+02  1.250000000E+02  0.00000E+00  9.000E+00
       1     1     1     2   501     0 -2.242601391E+02  3.227237619E+02  9.726552604E+02  1.049047898E+03  1.078959322E-05  0.00000E+00  9.000E+00
#rwgt            2          17   6.8132476244212026E-004           3      190721           0
</event>
<event>
      5   9999  3.19816E-02  2.36442E+01 -1.00000E+00  1.60586E-01
      21    -1     0     0   502   501  0.000000000E+00  0.000000000E+00  2.370633022E+03  2.370633022E+03  0.000000000E+00  0.00000E+00  9.000E+00
      21    -1     0     0   501   511  0.000000000E+00  0.000000000E+00 -1.380454561E+02  1.380454561E+02  0.000000000E+00  0.00000E+00  9.000E+00
      25     1     1     2     0     0  4.664044628E+02  2.941656386E+02  1.190518431E+03  1.317962701E+03  1.250000000E+02  0.00000E+00  9.000E+00
      25     1     1     2     0     0 -4.427789880E+02 -2.932259713E+02  1.026273043E+03  1.162280543E+03  1.250000000E+02  0.00000E+00  9.000E+00
      21     1     1     2   502   511 -2.362547478E+01 -9.396672768E-01  1.579609224E+01  2.843523454E+01  5.591411304E-07  0.00000E+00  9.000E+00
#rwgt            1           1   3.0804978901735419E-002           3      190755           0
</event>
<event>
      5   9999  3.19816E-02  4.74368E+00 -1.00000E+00  2.47159E-01
      21    -1     0     0   512   501  0.000000000E+00  0.000000000E+00  2.501539503E+03  2.501539503E+03  0.000000000E+00  0.00000E+00  9.000E+00
      21    -1     0     0   501   502  0.000000000E+00  0.000000000E+00 -5.603574094E+02  5.603574094E+02  0.000000000E+00  0.00000E+00  9.000E+00
      25     1     1     2     0     0  1.610895281E+02  7.197908395E+02  1.760174628E+02  7.685413690E+02  1.250000000E+02  0.00000E+00  9.000E+00
      25     1     1     2     0     0 -1.658319110E+02 -7.199019359E+02  2.673373629E+02  7.955207638E+02  1.250000000E+02  0.00000E+00  9.000E+00
      21     1     1     2   512   502  4.742382948E+00  1.110964316E-01  1.497827268E+03  1.497834779E+03  2.157918644E-05  0.00000E+00  9.000E+00
#rwgt            1           1   2.8124333091944710E-002           3      190943           0
</event>
<event>
      5   9999  3.19816E-02  3.21541E+01 -1.00000E+00  1.50977E-01
      -3    -1     0     0     0   501  0.000000000E+00  0.000000000E+00  6.950652070E+01  6.950652070E+01  0.000000000E+00  0.00000E+00  9.000E+00
      21    -1     0     0   501   502  0.000000000E+00  0.000000000E+00 -4.112981920E+02  4.112981920E+02  0.000000000E+00  0.00000E+00  9.000E+00
      25     1     1     2     0     0  5.619279643E+01 -1.631384797E+01 -2.075981435E+02  2.492905156E+02  1.250000000E+02  0.00000E+00  9.000E+00
      25     1     1     2     0     0 -8.393019029E+01  4.961452944E-02 -8.545222054E+01  1.731223882E+02  1.250000000E+02  0.00000E+00  9.000E+00
      -3     1     1     2     0   502  2.773739385E+01  1.626423345E+01 -4.874130725E+01  5.839180884E+01  9.536743164E-07  0.00000E+00  9.000E+00
#rwgt            1           1   4.8502533629832575E-002           3      191596           0
</event>
<event>
      5   9999  3.19816E-02  1.39624E+01 -1.00000E+00  1.80368E-01
      21    -1     0     0   502   511  0.000000000E+00  0.000000000E+00  1.670730793E+02  1.670730793E+02  0.000000000E+00  0.00000E+00  9.000E+00
      21    -1     0     0   501   502  0.000000000E+00  0.000000000E+00 -7.634421992E+02  7.634421992E+02  0.000000000E+00  0.00000E+00  9.000E+00
      25     1     1     2     0     0  1.308533747E+02 -2.482034688E+02 -1.008421615E+02  3.232981737E+02  1.250000000E+02  0.00000E+00  9.000E+00
      25     1     1     2     0     0 -1.308602600E+02  2.621658617E+02 -4.997350616E+02  5.926343548E+02  1.250000000E+02  0.00000E+00  9.000E+00
      21     1     1     2   501   511  6.885278943E-03 -1.396239286E+01  4.208103247E+00  1.458274990E+01  2.598106231E-07  0.00000E+00  9.000E+00
#rwgt            1           1   2.8006733038410937E-002           3      191689           0
</event>
<event>
      5   9999  3.19816E-02  1.05295E+02 -1.00000E+00  1.22828E-01
      21    -1     0     0   502   501  0.000000000E+00  0.000000000E+00  1.321490862E+02  1.321490862E+02  0.000000000E+00  0.00000E+00  9.000E+00
       1    -1     0     0   501     0  0.000000000E+00  0.000000000E+00 -3.835251224E+03  3.835251224E+03  0.000000000E+00  0.00000E+00  9.000E+00
      25     1     1     2     0     0 -2.375618806E+02 -8.004227326E+01 -2.182913510E+02  3.551317031E+02  1.250000000E+02  0.00000E+00  9.000E+00
      25     1     1     2     0     0  2.950848367E+02 -8.151601005E+00 -3.459560834E+02  4.716483023E+02  1.250000000E+02  0.00000E+00  9.000E+00
       1     1     1     2   502     0 -5.752295614E+01  8.819387426E+01 -3.138854703E+03  3.140620304E+03  4.315837288E-05  0.00000E+00  9.000E+00
#rwgt            1           1   2.8757701966674865E-002           3      191911           0
</event>
<event>
      5   9999  3.19816E-02  1.20729E+02 -1.00000E+00  1.20257E-01
      21    -1     0     0   502   501  0.000000000E+00  0.000000000E+00  3.367801801E+02  3.367801801E+02  0.000000000E+00  0.00000E+00  9.000E+00
      21    -1     0     0   511   502  0.000000000E+00  0.000000000E+00 -6.945365890E+02  6.945365890E+02  0.000000000E+00  0.00000E+00  9.000E+00
      25     1     1     2     0     0 -1.993713991E+02 -1.644799273E+02 -3.643160392E+02  4.638467178E+02  1.250000000E+02  0.00000E+00  9.000E+00
      25     1     1     2     0     0  1.887892657E+02  4.421553144E+01  2.222195027E+02  3.203168860E+02  1.250000000E+02  0.00000E+00  9.000E+00
      21     1     1     2   511   501  1.058213337E+01  1.202643958E+02 -2.156598725E+02  2.471531652E+02  0.000000000E+00  0.00000E+00  9.000E+00
#rwgt            2          11   2.7832433896544154E-003           3      192087           0
</event>
<event>
      5   9999  3.19816E-02  5.78563E+01 -1.00000E+00  1.35553E-01
      21    -1     0     0   512   501  0.000000000E+00  0.000000000E+00  5.303337810E+02  5.303337810E+02  0.000000000E+00  0.00000E+00  9.000E+00
      21    -1     0     0   501   502  0.000000000E+00  0.000000000E+00 -1.718641788E+02  1.718641788E+02  0.000000000E+00  0.00000E+00  9.000E+00
      25     1     1     2     0     0  1.827452845E+02  8.740265922E+01  4.441656052E+01  2.421423026E+02  1.250000000E+02  0.00000E+00  9.000E+00
      25     1     1     2     0     0 -2.378370922E+02 -6.973215989E+01  2.478480718E+02  3.721326689E+02  1.250000000E+02  0.00000E+00  9.000E+00
      21     1     1     2   512   502  5.509180773E+01 -1.767049933E+01  6.620496990E+01  8.792298826E+01  0.000000000E+00  0.00000E+00  9.000E+00
#rwgt            1           1   2.7739165386800348E-002           3      192107           0
</event>
<event>
      5   9999  3.19816E-02  1.61332E+01 -1.00000E+00  1.74455E-01
      21    -1     0     0   502   501  0.000000000E+00  0.000000000E+00  1.001518113E+02  1.001518113E+02  0.000000000E+00  0.00000E+00  9.000E+00
      21    -1     0     0   511   502  0.000000000E+00  0.000000000E+00 -6.902629860E+02  6.902629860E+02  0.000000000E+00  0.00000E+00  9.000E+00
      25     1     1     2     0     0 -4.186646307E+01 -4.552109458E+01 -5.902496950E+02  6.065019977E+02  1.250000000E+02  0.00000E+00  9.000E+00
      25     1     1     2     0     0  3.898629297E+01  2.964709940E+01  4.067857065E+01  1.402805320E+02  1.250000000E+02  0.00000E+00  9.000E+00
      21     1     1     2   511   501  2.880170092E+00  1.587399518E+01 -4.054005034E+01  4.363226769E+01  4.768371582E-07  0.00000E+00  9.000E+00
#rwgt            1           1   2.6463186607989679E-002           3      192177           0
</event>
<event>
      5   9999  3.19816E-02  3.30367E+01 -1.00000E+00  1.50187E-01
      21    -1     0     0   502   501  0.000000000E+00  0.000000000E+00  6.490403735E+02  6.490403735E+02  0.000000000E+00  0.00000E+00  9.000E+00
      21    -1     0     0   501   512  0.000000000E+00  0.000000000E+00 -9.665944973E+01  9.665944973E+01  0.000000000E+00  0.00000E+00  9.000E+00
      25     1     1     2     0     0 -9.463045868E+01  6.726495447E+01  7.596099560E+01  1.867473445E+02  1.250000000E+02  0.00000E+00  9.000E+00
      25     1     1     2     0     0  1.234091541E+02 -8.348870055E+01  4.868897152E+02  5.242964593E+02  1.250000000E+02  0.00000E+00  9.000E+00
      21     1     1     2   502   512 -2.877869538E+01  1.622374608E+01 -1.046978706E+01  3.465601948E+01  3.769728732E-07  0.00000E+00  9.000E+00
#rwgt            1           1   2.4816250827119048E-002           3      192323           0
</event>
<event>
      5   9999  3.19816E-02  1.48539E+02 -1.00000E+00  1.16562E-01
      21    -1     0     0   502   511  0.000000000E+00  0.000000000E+00  1.117630879E+03  1.117630879E+03  0.000000000E+00  0.00000E+00  9.000E+00
      21    -1     0     0   501   502  0.000000000E+00  0.000000000E+00 -1.767282122E+02  1.767282122E+02  0.000000000E+00  0.00000E+00  9.000E+00
      25     1     1     2     0     0 -2.101414422E+02 -6.666183326E+01  6.206800606E+01  2.609227149E+02  1.250000000E+02  0.00000E+00  9.000E+00
      25     1     1     2     0     0  2.578129266E+02  2.073436807E+02  4.091395631E+02  5.408133589E+02  1.250000000E+02  0.00000E+00  9.000E+00
      21     1     1     2   501   511 -4.767148438E+01 -1.406818474E+02  4.696950980E+02  4.926230178E+02  7.629394531E-06  0.00000E+00  9.000E+00
#rwgt            1           1   2.9684705233694070E-002           3      192417           0
</event>
<event>
      5   9999  3.19816E-02  6.07703E+00 -1.00000E+00  2.24615E-01
      21    -1     0     0   502   512  0.000000000E+00  0.000000000E+00  2.848541633E+02  2.848541633E+02  0.000000000E+00  0.00000E+00  9.000E+00
      21    -1     0     0   501   502  0.000000000E+00  0.000000000E+00 -2.502895783E+02  2.502895783E+02  0.000000000E+00  0.00000E+00  9.000E+00
      25     1     1     2     0     0  8.312700875E+01  8.349135974E+01  1.853583768E+02  2.527125533E+02  1.250000000E+02  0.00000E+00  9.000E+00
      25     1     1     2     0     0 -8.765621830E+01 -7.943963181E+01 -1.820893938E+02  2.505510229E+02  1.250000000E+02  0.00000E+00  9.000E+00
      21     1     1     2   501   512  4.529209550E+00 -4.051727926E+00  3.129560212E+01  3.188016547E+01  0.000000000E+00  0.00000E+00  9.000E+00
#rwgt            2          11   7.4820905379193001E-004           3      192556           0
</event>
<event>
      5   9999  3.19816E-02  2.24784E+02 -1.00000E+00  1.09832E-01
      -2    -1     0     0     0   501  0.000000000E+00  0.000000000E+00  5.539419900E+02  5.539419900E+02  0.000000000E+00  0.00000E+00  9.000E+00
      21    -1     0     0   501   502  0.000000000E+00  0.000000000E+00 -1.719638717E+03  1.719638717E+03  0.000000000E+00  0.00000E+00  9.000E+00
      25     1     1     2     0     0 -4.380292813E+01 -5.446838353E+02 -1.454915957E+03  1.559167925E+03  1.250000000E+02  0.00000E+00  9.000E+00
      25     1     1     2     0     0  1.693545379E+02  3.582313927E+02  2.537390416E+02  4.868461682E+02  1.250000000E+02  0.00000E+00  9.000E+00
      -2     1     1     2     0   502 -1.255516098E+02  1.864524426E+02  3.548018808E+01  2.275666140E+02  5.245208740E-06  0.00000E+00  9.000E+00
#rwgt            2           4   6.4196480688670068E-005           3      192621           0
</event>
<event>
      5   9999  3.19816E-02  5.45981E+01 -1.00000E+00  1.36930E-01
       1    -1     0     0   502     0  0.000000000E+00  0.000000000E+00  3.024921797E+03  3.024921797E+03  0.000000000E+00  0.00000E+00  9.000E+00
      21    -1     0     0   501   502  0.000000000E+00  0.000000000E+00 -5.235424731E+01  5.235424731E+01  0.000000000E+00  0.00000E+00  9.000E+00
      25     1     1     2     0     0 -1.567946653E+02  1.155697148E+02  7.924679198E+02  8.255733341E+02  1.250000000E+02  0.00000E+00  9.000E+00
      25     1     1     2     0     0  2.079166532E+02 -1.347398229E+02  5.091764229E+02  5.798877341E+02  1.250000000E+02  0.00000E+00  9.000E+00
       1     1     1     2   501     0 -5.112198785E+01  1.917010807E+01  1.670923207E+03  1.671814976E+03  3.051757812E-05  0.00000E+00  9.000E+00
#rwgt            1           1   2.8133582443397778E-002           3      192700           0
</event>
<event>
      5   9999  3.19816E-02  6.42517E+01 -1.00000E+00  1.33133E-01
      21    -1     0     0   502   511  0.000000000E+00  0.000000000E+00  1.206380448E+03  1.206380448E+03  0.000000000E+00  0.00000E+00  9.000E+00
      21    -1     0     0   501   502  0.000000000E+00  0.000000000E+00 -5.415682489E+02  5.415682489E+02  0.000000000E+00  0.00000E+00  9.000E+00
      25     1     1     2     0     0 -3.223507593E+02  3.192488626E+02  1.820965461E+02  5.045929056E+02  1.250000000E+02  0.00000E+00  9.000E+00
      25     1     1     2     0     0  3.764998466E+02 -2.846633393E+02 -2.215357540E+02  5.361794863E+02  1.250000000E+02  0.00000E+00  9.000E+00
      21     1     1     2   501   511 -5.414908732E+01 -3.458552336E+01  7.042514074E+02  7.071763054E+02  7.629394531E-06  0.00000E+00  9.000E+00
#rwgt            1           1   3.4669232340258684E-002           3      192871           0
</event>
<event>
      5   9999  3.19816E-02  2.23730E+02 -1.00000E+00  1.09904E-01
      21    -1     0     0   512   501  0.000000000E+00  0.000000000E+00  2.094024013E+03  2.094024013E+03  0.000000000E+00  0.00000E+00  9.000E+00
      21    -1     0     0   501   502  0.000000000E+00  0.000000000E+00 -5.910826334E+02  5.910826334E+02  0.000000000E+00  0.00000E+00  9.000E+00
      25     1     1     2     0     0  9.932581065E+01  2.596209244E+02  5.231351981E+02  6.054453539E+02  1.250000000E+02  0.00000E+00  9.000E+00
      25     1     1     2     0     0 -2.721467713E+02 -4.017058081E+02 -4.250772743E+02  6.570746613E+02  1.250000000E+02  0.00000E+00  9.000E+00
      21     1     1     2   512   502  1.728209606E+02  1.420848837E+02  1.404883456E+03  1.422586631E+03  1.525878906E-05  0.00000E+00  9.000E+00
#rwgt            2          11   1.5645271640181266E-003           3      192969           0
</event>
<event>
      5   9999  3.19816E-02  4.77209E+01 -1.00000E+00  1.40241E-01
      -3    -1     0     0     0   501  0.000000000E+00  0.000000000E+00  8.444315314E+01  8.444315314E+01  0.000000000E+00  0.00000E+00  9.000E+00
      21    -1     0     0   501   502  0.000000000E+00  0.000000000E+00 -1.403772135E+03  1.403772135E+03  0.000000000E+00  0.00000E+00  9.000E+00
      25     1     1     2     0     0  2.555970072E+01  1.253991581E+02 -4.380185534E+02  4.731421565E+02  1.250000000E+02  0.00000E+00  9.000E+00
      25     1     1     2     0     0  1.104700725E+01 -1.560134227E+02 -9.273775871E+02  9.487446513E+02  1.250000000E+02  0.00000E+00  9.000E+00
      -3     1     1     2     0   502 -3.660670797E+01  3.061426459E+01  4.606715831E+01  6.632848060E+01  3.371747881E-06  0.00000E+00  9.000E+00
#rwgt            1           1   2.8459796571292498E-002           3      192989           0
</event>
<event>
      5   9999  3.19816E-02  3.56866E+01 -1.00000E+00  1.47982E-01
      21    -1     0     0   502   501  0.000000000E+00  0.000000000E+00  1.131248810E+02  1.131248810E+02  0.000000000E+00  0.00000E+00  9.000E+00
      21    -1     0     0   511   502  0.000000000E+00  0.000000000E+00 -5.084803070E+02  5.084803070E+02  0.000000000E+00  0.00000E+00  9.000E+00
      25     1     1     2     0     0 -1.488872931E+02 -9.063034731E+00 -1.116227754E+02  2.243528664E+02  1.250000000E+02  0.00000E+00  9.000E+00
      25     1     1     2     0     0  1.354550561E+02  4.212519459E+01 -1.076065237E+02  2.175471631E+02  1.250000000E+02  0.00000E+00  9.000E+00
      21     1     1     2   511   501  1.343223709E+01 -3.306215986E+01 -1.761261270E+02  1.797051586E+02  1.907348633E-06  0.00000E+00  9.000E+00
#rwgt            1           1   2.7126393294343635E-002           3      193043           0
</event>
<event>
      5   9999  3.19816E-02  3.34660E+02 -1.00000E+00  1.04072E-01
      21    -1     0     0   502   501  0.000000000E+00  0.000000000E+00  7.778726007E+02  7.778726007E+02  0.000000000E+00  0.00000E+00  9.000E+00
       1    -1     0     0   501     0  0.000000000E+00  0.000000000E+00 -8.460592013E+02  8.460592013E+02  0.000000000E+00  0.00000E+00  9.000E+00
      25     1     1     2     0     0  4.738082138E+00  8.520508836E+01  1.869154547E+02  2.405093422E+02  1.250000000E+02  0.00000E+00  9.000E+00
      25     1     1     2     0     0  3.245813926E+02 -2.565827157E+01  4.697376990E+02  5.850554958E+02  1.250000000E+02  0.00000E+00  9.000E+00
       1     1     1     2   502     0 -3.293194747E+02 -5.954681680E+01 -7.248397543E+02  7.983669640E+02  0.000000000E+00  0.00000E+00  9.000E+00
#rwgt            1           1   3.6616628201271040E-002           3      193181           0
</event>
<event>
      5   9999  3.19816E-02  1.27919E+02 -1.00000E+00  1.19202E-01
      21    -1     0     0   502   501  0.000000000E+00  0.000000000E+00  1.549162704E+02  1.549162704E+02  0.000000000E+00  0.00000E+00  9.000E+00
       2    -1     0     0   501     0  0.000000000E+00  0.000000000E+00 -6.948759683E+02  6.948759683E+02  0.000000000E+00  0.00000E+00  9.000E+00
      25     1     1     2     0     0 -2.586521606E+02 -7.241633014E+01 -3.626392686E+02  4.682705459E+02  1.250000000E+02  0.00000E+00  9.000E+00
      25     1     1     2     0     0  1.317542263E+02  5.628831206E+01 -4.085838729E+01  1.944786827E+02  1.250000000E+02  0.00000E+00  9.000E+00
       2     1     1     2   502     0  1.268979343E+02  1.612801808E+01 -1.364620420E+02  1.870430100E+02  0.000000000E+00  0.00000E+00  9.000E+00
#rwgt            1           1   3.0930332361000731E-002           3      193218           0
</event>
<event>
      5   9999  3.19816E-02  2.91040E+01 -1.00000E+00  1.53960E-01
      21    -1     0     0   511   501  0.000000000E+00  0.000000000E+00  8.469453737E+01  8.469453737E+01  0.000000000E+00  0.00000E+00  9.000E+00
      21    -1     0     0   501   502  0.000000000E+00  0.000000000E+00 -1.204951115E+03  1.204951115E+03  0.000000000E+00  0.00000E+00  9.000E+00
      25     1     1     2     0     0  6.746751957E+01 -1.871252013E+02 -7.212010128E+02  7.585008952E+02  1.250000000E+02  0.00000E+00  9.000E+00
      25     1     1     2     0     0 -5.600912094E+01  2.138787200E+02 -4.230437712E+02  4.934289826E+02  1.250000000E+02  0.00000E+00  9.000E+00
      21     1     1     2   511   502 -1.145839863E+01 -2.675351869E+01  2.398820593E+01  3.771577502E+01  3.371747881E-07  0.00000E+00  9.000E+00
#rwgt            1           1   3.7451583740161887E-002           3      193251           0
</event>
<event>
      5   9999  3.19816E-02  1.00265E+02 -1.00000E+00  1.23776E-01
       2    -1     0     0   502     0  0.000000000E+00  0.000000000E+00  2.216744444E+03  2.216744444E+03  0.000000000E+00  0.00000E+00  9.000E+00
      21    -1     0     0   501   502  0.000000000E+00  0.000000000E+00 -2.245064561E+02  2.245064561E+02  0.000000000E+00  0.00000E+00  9.000E+00
      25     1     1     2     0     0  2.269446379E+02 -1.097781012E+02 -1.056897690E+02  3.005834784E+02  1.250000000E+02  0.00000E+00  9.000E+00
      25     1     1     2     0     0 -1.322899100E+02  1.428471443E+02  6.624350683E+02  7.016773807E+02  1.250000000E+02  0.00000E+00  9.000E+00
       2     1     1     2   501     0 -9.465472796E+01 -3.306904309E+01  1.435492689E+03  1.438990041E+03  1.525878906E-05  0.00000E+00  9.000E+00
#rwgt            1           1   2.5705934661269060E-002           3      193390           0
</event>
<event>
      5   9999  3.19816E-02  8.56747E+01 -1.00000E+00  1.26925E-01
      21    -1     0     0   502   501  0.000000000E+00  0.000000000E+00  1.303603204E+03  1.303603204E+03  0.000000000E+00  0.00000E+00  9.000E+00
      21    -1     0     0   511   502  0.000000000E+00  0.000000000E+00 -1.837679752E+02  1.837679752E+02  0.000000000E+00  0.00000E+00  9.000E+00
      25     1     1     2     0     0 -3.622653170E+02  1.618356389E+02  2.966190189E+02  5.109156254E+02  1.250000000E+02  0.00000E+00  9.000E+00
      25     1     1     2     0     0  3.987800906E+02 -8.433190182E+01  7.545271666E+02  8.666450689E+02  1.250000000E+02  0.00000E+00  9.000E+00
      21     1     1     2   511   501 -3.651477358E+01 -7.750373710E+01  6.868904369E+01  1.098104853E+02  9.536743164E-07  0.00000E+00  9.000E+00
#rwgt            1           1   2.4523564926388082E-002           3      193447           0
</event>
<event>
      5   9999  3.19816E-02  4.80579E+01 -1.00000E+00  1.40064E-01
      21    -1     0     0   512   501  0.000000000E+00  0.000000000E+00  4.341112206E+02  4.341112206E+02  0.000000000E+00  0.00000E+00  9.000E+00
      21    -1     0     0   501   502  0.000000000E+00  0.000000000E+00 -1.736409123E+02  1.736409123E+02  0.000000000E+00  0.00000E+00  9.000E+00
      25     1     1     2     0     0  3.473913046E+01  1.363098830E+02  5.084305112E+01  1.949287235E+02  1.250000000E+02  0.00000E+00  9.000E+00
      25     1     1     2     0     0 -6.866993262E+01 -1.022766963E+02 -2.144396009E+01  1.768075951E+02  1.250000000E+02  0.00000E+00  9.000E+00
      21     1     1     2   512   502  3.393080216E+01 -3.403318676E+01  2.310712173E+02  2.360158143E+02  2.697398305E-06  0.00000E+00  9.000E+00
#rwgt            1           1   3.5088434993230652E-002           3      193561           0
</event>
<event>
      5   9999  3.19816E-02  9.04404E+01 -1.00000E+00  1.25823E-01
      21    -1     0     0   502   501  0.000000000E+00  0.000000000E+00  1.131089497E+02  1.131089497E+02  0.000000000E+00  0.00000E+00  9.000E+00
       2    -1     0     0   501     0  0.000000000E+00  0.000000000E+00 -1.488171803E+03  1.488171803E+03  0.000000000E+00  0.00000E+00  9.000E+00
      25     1     1     2     0     0 -1.278478870E+02 -2.727214387E+02 -4.593722083E+02  5.633559187E+02  1.250000000E+02  0.00000E+00  9.000E+00
      25     1     1     2     0     0  8.671382650E+01  1.921767194E+02 -9.152313357E+02  9.474832859E+02  1.250000000E+02  0.00000E+00  9.000E+00
       2     1     1     2   502     0  4.113406054E+01  8.054471922E+01 -4.593095705E-01  9.044154851E+01  1.913835034E-06  0.00000E+00  9.000E+00
#rwgt            1           1   3.1297620771064585E-002           3      193666           0
</event>
<event>
      5   9999  3.19816E-02  5.35711E+01 -1.00000E+00  1.37387E-01
      21    -1     0     0   502   501  0.000000000E+00  0.000000000E+00  9.558948111E+01  9.558948111E+01  0.000000000E+00  0.00000E+00  9.000E+00
      21    -1     0     0   501   511  0.000000000E+00  0.000000000E+00 -2.256887997E+03  2.256887997E+03  0.000000000E+00  0.00000E+00  9.000E+00
      25     1     1     2     0     0 -1.795192829E+01 -1.408413423E+02 -1.553591349E+03  1.565065377E+03  1.250000000E+02  0.00000E+00  9.000E+00
      25     1     1     2     0     0 -3.557459736E+01  1.430269203E+02 -1.669190528E+01  1.939738942E+02  1.250000000E+02  0.00000E+00  9.000E+00
      21     1     1     2   502   511  5.352652566E+01 -2.185578068E+00 -5.910152623E+02  5.934382074E+02  1.078959322E-05  0.00000E+00  9.000E+00
#rwgt            1           1   2.8258886509061987E-002           3      193722           0
</event>
<event>
      5   9999  3.19816E-02  2.55566E+02 -1.00000E+00  1.07905E-01
      21    -1     0     0   502   501  0.000000000E+00  0.000000000E+00  9.466838530E+01  9.466838530E+01  0.000000000E+00  0.00000E+00  9.000E+00
       2    -1     0     0   501     0  0.000000000E+00  0.000000000E+00 -3.491619159E+03  3.491619159E+03  0.000000000E+00  0.00000E+00  9.000E+00
      25     1     1     2     0     0 -4.582257255E+01 -5.629850813E+01 -5.175212160E+01  1.535334239E+02  1.250000000E+02  0.00000E+00  9.000E+00
      25     1     1     2     0     0  9.256554143E+01 -1.949559964E+02 -2.959985956E+03  2.970474387E+03  1.250000000E+02  0.00000E+00  9.000E+00
       2     1     1     2   502     0 -4.674296887E+01  2.512545045E+02 -3.852126953E+02  4.622797333E+02  5.394796609E-06  0.00000E+00  9.000E+00
#rwgt            1           1   4.3264060835901869E-002           3      193824           0
</event>
<event>
      5   9999  3.19816E-02  2.45719E+02 -1.00000E+00  1.08487E-01
      21    -1     0     0   502   501  0.000000000E+00  0.000000000E+00  1.790155366E+02  1.790155366E+02  0.000000000E+00  0.00000E+00  9.000E+00
       1    -1     0     0   501     0  0.000000000E+00  0.000000000E+00 -8.347298099E+02  8.347298099E+02  0.000000000E+00  0.00000E+00  9.000E+00
      25     1     1     2     0     0 -1.069754389E+02  1.097593627E+02 -1.249093985E+01  1.981713546E+02  1.250000000E+02  0.00000E+00  9.000E+00
      25     1     1     2     0     0 -1.135511569E+02 -1.380894289E+00 -5.075026950E+02  5.348642422E+02  1.250000000E+02  0.00000E+00  9.000E+00
       1     1     1     2   502     0  2.205265957E+02 -1.083784684E+02 -1.357206384E+02  2.807097496E+02  4.264961200E-06  0.00000E+00  9.000E+00
#rwgt            2          12   1.7397453568976945E-004           3      193865           0
</event>
<event>
      5   9999  3.19816E-02  5.10300E+01 -1.00000E+00  1.38572E-01
      21    -1     0     0   502   501  0.000000000E+00  0.000000000E+00  1.111653653E+03  1.111653653E+03  0.000000000E+00  0.00000E+00  9.000E+00
      21    -1     0     0   511   502  0.000000000E+00  0.000000000E+00 -4.050678493E+02  4.050678493E+02  0.000000000E+00  0.00000E+00  9.000E+00
      25     1     1     2     0     0  4.825726074E+02 -2.398724877E+02  4.978803735E+02  7.442613775E+02  1.250000000E+02  0.00000E+00  9.000E+00
      25     1     1     2     0     0 -4.317124833E+02  2.357124403E+02  3.537982040E+02  6.186551478E+02  1.250000000E+02  0.00000E+00  9.000E+00
      21     1     1     2   511   501 -5.086012408E+01  4.160047426E+00 -1.450927733E+02  1.538049774E+02  1.907348633E-06  0.00000E+00  9.000E+00
#rwgt            1           1   2.7800998073279341E-002           3      193884           0
</event>
<event>
      5   9999  3.19816E-02  1.81224E+02 -1.00000E+00  1.13229E-01
      21    -1     0     0   512   501  0.000000000E+00  0.000000000E+00  3.822722552E+02  3.822722552E+02  0.000000000E+00  0.00000E+00  9.000E+00
      21    -1     0     0   501   502  0.000000000E+00  0.000000000E+00 -5.782661212E+02  5.782661212E+02  0.000000000E+00  0.00000E+00  9.000E+00
      25     1     1     2     0     0  5.622725548E+01  1.249087216E+02  8.836212456E+01  2.054180081E+02  1.250000000E+02  0.00000E+00  9.000E+00
      25     1     1     2     0     0 -1.441463549E+02  3.356047675E+01 -4.622323450E+02  5.011868094E+02  1.250000000E+02  0.00000E+00  9.000E+00
      21     1     1     2   512   502  8.791909938E+01 -1.584691984E+02  1.778763544E+02  2.539335589E+02  1.907348633E-06  0.00000E+00  9.000E+00
#rwgt            1           1   2.9225919007926766E-002           3      194014           0
</event>
<event>
      5   9999  3.19816E-02  1.43523E+02 -1.00000E+00  1.17158E-01
      21    -1     0     0   502   501  0.000000000E+00  0.000000000E+00  1.243044407E+02  1.243044407E+02  0.000000000E+00  0.00000E+00  9.000E+00
      21    -1     0     0   501   511  0.000000000E+00  0.000000000E+00 -1.437241910E+03  1.437241910E+03  0.000000000E+00  0.00000E+00  9.000E+00
      25     1     1     2     0     0  2.617146181E+02  1.936393006E+02 -2.418510549E+02  4.243909198E+02  1.250000000E+02  0.00000E+00  9.000E+00
      25     1     1     2     0     0 -1.549709572E+02 -9.769890511E+01 -8.030540574E+02  8.331157739E+02  1.250000000E+02  0.00000E+00  9.000E+00
      21     1     1     2   502   511 -1.067436609E+02 -9.594039544E+01 -2.680323565E+02  3.040396565E+02  0.000000000E+00  0.00000E+00  9.000E+00
#rwgt            1           1   2.8625283392889733E-002           3      194078           0
</event>
<event>
      5   9999  3.19816E-02  2.44282E+01 -1.00000E+00  1.59507E-01
      21    -1     0     0   502   501  0.000000000E+00  0.000000000E+00  4.289308805E+03  4.289308805E+03  0.000000000E+00  0.00000E+00  9.000E+00
      21    -1     0     0   512   502  0.000000000E+00  0.000000000E+00 -1.636984006E+02  1.636984006E+02  0.000000000E+00  0.00000E+00  9.000E+00
      25     1     1     2     0     0  2.642780843E+02  6.515993538E+02  3.174711065E+03  3.254049780E+03  1.250000000E+02  0.00000E+00  9.000E+00
      25     1     1     2     0     0 -2.698830904E+02 -6.278229253E+02  9.465744911E+02  1.174149384E+03  1.250000000E+02  0.00000E+00  9.000E+00
      21     1     1     2   512   501  5.605006048E+00 -2.377642850E+01  4.324848513E+00  2.480804224E+01  1.025477084E-06  0.00000E+00  9.000E+00
#rwgt            1           1   8.9248458817770462E-003           3      194112           0
</event>
<event>
      5   9999  3.19816E-02  7.37341E+01 -1.00000E+00  1.30088E-01
      21    -1     0     0   502   501  0.000000000E+00  0.000000000E+00  8.272786552E+02  8.272786552E+02  0.000000000E+00  0.00000E+00  9.000E+00
       2    -1     0     0   501     0  0.000000000E+00  0.000000000E+00 -4.015486037E+02  4.015486037E+02  0.000000000E+00  0.00000E+00  9.000E+00
      25     1     1     2     0     0  4.916633439E+02  7.018317261E+01  1.895856032E+01  5.124870228E+02  1.250000000E+02  0.00000E+00  9.000E+00
      25     1     1     2     0     0 -4.436136696E+02 -1.261112837E+02  2.415541656E+02  5.354162481E+02  1.250000000E+02  0.00000E+00  9.000E+00
       2     1     1     2   502     0 -4.804967431E+01  5.592811107E+01  1.652173255E+02  1.809239881E+02  0.000000000E+00  0.00000E+00  9.000E+00
#rwgt            1           1   2.8056267413832089E-002           3      194333           0
</event>
<event>
      5   9999  3.19816E-02  2.60229E+01 -1.00000E+00  1.57457E-01
      21    -1     0     0   502   511  0.000000000E+00  0.000000000E+00  2.737013851E+03  2.737013851E+03  0.000000000E+00  0.00000E+00  9.000E+00
      21    -1     0     0   501   502  0.000000000E+00  0.000000000E+00 -1.565634977E+02  1.565634977E+02  0.000000000E+00  0.00000E+00  9.000E+00
      25     1     1     2     0     0  2.711498417E+02 -2.121101547E+02  9.599734634E+01  3.786204496E+02  1.250000000E+02  0.00000E+00  9.000E+00
      25     1     1     2     0     0 -2.485992532E+02  2.250971816E+02  2.401341835E+03  2.427866952E+03  1.250000000E+02  0.00000E+00  9.000E+00
      21     1     1     2   501   511 -2.255058852E+01 -1.298702692E+01  8.311117219E+01  8.708994692E+01  0.000000000E+00  0.00000E+00  9.000E+00
#rwgt            1           1   2.5763775167090448E-002           3      194518           0
</event>
<event>
      5   9999  3.19816E-02  4.75958E+01 -1.00000E+00  1.40308E-01
       2    -1     0     0   502     0  0.000000000E+00  0.000000000E+00  3.627782204E+02  3.627782204E+02  0.000000000E+00  0.00000E+00  9.000E+00
      21    -1     0     0   501   502  0.000000000E+00  0.000000000E+00 -3.680728653E+03  3.680728653E+03  0.000000000E+00  0.00000E+00  9.000E+00
      25     1     1     2     0     0 -1.869610850E+02  6.617560045E+02 -2.757295696E+03  2.844499958E+03  1.250000000E+02  0.00000E+00  9.000E+00
      25     1     1     2     0     0  2.323057386E+02 -6.472915613E+02 -7.373561624E+02  1.016007594E+03  1.250000000E+02  0.00000E+00  9.000E+00
       2     1     1     2   501     0 -4.534465361E+01 -1.446444314E+01  1.767014256E+02  1.829993211E+02  9.725607898E-06  0.00000E+00  9.000E+00
#rwgt            1           1   3.6583175320399980E-002           3      194716           0
</event>
<event>
      5   9999  3.19816E-02  1.80427E+01 -1.00000E+00  1.70146E-01
      21    -1     0     0   502   511  0.000000000E+00  0.000000000E+00  2.266088680E+03  2.266088680E+03  0.000000000E+00  0.00000E+00  9.000E+00
      21    -1     0     0   501   502  0.000000000E+00  0.000000000E+00 -7.047031435E+01  7.047031435E+01  0.000000000E+00  0.00000E+00  9.000E+00
      25     1     1     2     0     0  1.163719306E+02  8.017597611E+01  2.062726984E+03  2.071337303E+03  1.250000000E+02  0.00000E+00  9.000E+00
      25     1     1     2     0     0 -1.003014068E+02 -7.197372203E+01  5.327427309E+01  1.835857757E+02  1.250000000E+02  0.00000E+00  9.000E+00
      21     1     1     2   501   511 -1.607052387E+01 -8.202254086E+00  7.961710937E+01  8.163591620E+01  9.536743164E-07  0.00000E+00  9.000E+00
#rwgt            1           1   2.4776773494748806E-002           3      194822           0
</event>
<event>
      5   9999  3.19816E-02  9.14566E+01 -1.00000E+00  1.25598E-01
       2    -1     0     0   502     0  0.000000000E+00  0.000000000E+00  4.357337601E+02  4.357337601E+02  0.000000000E+00  0.00000E+00  9.000E+00
      21    -1     0     0   501   502  0.000000000E+00  0.000000000E+00 -3.058827678E+02  3.058827678E+02  0.000000000E+00  0.00000E+00  9.000E+00
      25     1     1     2     0     0 -1.482896115E+02 -6.809667138E+01 -1.996406818E+02  2.865455764E+02  1.250000000E+02  0.00000E+00  9.000E+00
      25     1     1     2     0     0  5.696859353E+01  7.307441741E+01  5.384771958E+01  1.646507456E+02  1.250000000E+02  0.00000E+00  9.000E+00
       2     1     1     2   501     0  9.132101797E+01 -4.977746032E+00  2.756439545E+02  2.904202058E+02  0.000000000E+00  0.00000E+00  9.000E+00
#rwgt            1           1   2.8289465766637319E-002           3      194955           0
</event>
<event>
      5   9999  3.19816E-02  1.86083E+01 -1.00000E+00  1.68996E-01
       1    -1     0     0   502     0  0.000000000E+00  0.000000000E+00  1.468527865E+02  1.468527865E+02  0.000000000E+00  0.00000E+00  9.000E+00
      21    -1     0     0   501   502  0.000000000E+00  0.000000000E+00 -3.202833957E+02  3.202833957E+02  0.000000000E+00  0.00000E+00  9.000E+00
      25     1     1     2     0     0  4.032211608E+01  1.414828500E+01 -2.263485104E+02  2.620776511E+02  1.250000000E+02  0.00000E+00  9.000E+00
      25     1     1     2     0     0 -4.600445123E+01 -3.186771553E+01 -1.204342633E+01  1.374845626E+02  1.250000000E+02  0.00000E+00  9.000E+00
       1     1     1     2   501     0  5.682335146E+00  1.771943053E+01  6.496132759E+01  6.757396861E+01  1.651812370E-06  0.00000E+00  9.000E+00
#rwgt            1           1   2.5552967683112927E-002           3      195016           0
</event>
<event>
      5   9999  3.19816E-02  9.99424E+02 -1.00000E+00  9.09972E-02
      21    -1     0     0   502   501  0.000000000E+00  0.000000000E+00  9.533346124E+02  9.533346124E+02  0.000000000E+00  0.00000E+00  9.000E+00
       1    -1     0     0   501     0  0.000000000E+00  0.000000000E+00 -1.769958794E+03  1.769958794E+03  0.000000000E+00  0.00000E+00  9.000E+00
      25     1     1     2     0     0  7.759325869E+02  7.779963179E+02 -1.225564014E+02  1.112652112E+03  1.250000000E+02  0.00000E+00  9.000E+00
      25     1     1     2     0     0  1.509717516E+02 -4.042357823E+02 -2.763081920E+02  5.274184813E+02  1.250000000E+02  0.00000E+00  9.000E+00
       1     1     1     2   502     0 -9.269043385E+02 -3.737605356E+02 -4.177595886E+02  1.083222814E+03  2.642899792E-05  0.00000E+00  9.000E+00
#rwgt            2          12   2.2658583297185912E-004           3      195161           0
</event>
<event>
      5   9999  3.19816E-02  8.30561E+01 -1.00000E+00  1.27566E-01
      21    -1     0     0   511   501  0.000000000E+00  0.000000000E+00  9.413530307E+02  9.413530307E+02  0.000000000E+00  0.00000E+00  9.000E+00
      21    -1     0     0   501   502  0.000000000E+00  0.000000000E+00 -2.119127351E+02  2.119127351E+02  0.000000000E+00  0.00000E+00  9.000E+00
      25     1     1     2     0     0 -2.274964539E+01  2.862886568E+02  5.439227884E+02  6.276589369E+02  1.250000000E+02  0.00000E+00  9.000E+00
      25     1     1     2     0     0  5.933678216E+00 -3.676246506E+02  8.925357822E+01  3.984649213E+02  1.250000000E+02  0.00000E+00  9.000E+00
      21     1     1     2   511   502  1.681596717E+01  8.133599380E+01  9.626392898E+01  1.271419076E+02  0.000000000E+00  0.00000E+00  9.000E+00
#rwgt            1           1   2.9124570940169087E-002           3      195180           0
</event>
<event>
      5   9999  3.19816E-02  1.09860E+02 -1.00000E+00  1.22019E-01
      21    -1     0     0   502   512  0.000000000E+00  0.000000000E+00  7.795575686E+02  7.795575686E+02  0.000000000E+00  0.00000E+00  9.000E+00
      21    -1     0     0   501   502  0.000000000E+00  0.000000000E+00 -3.217963419E+02  3.217963419E+02  0.000000000E+00  0.00000E+00  9.000E+00
      25     1     1     2     0     0  4.649605909E+01  3.831873686E+02  1.492896873E+02  4.323272530E+02  1.250000000E+02  0.00000E+00  9.000E+00
      25     1     1     2     0     0 -1.398671835E+02 -3.252991493E+02  3.840264262E+01  3.774680496E+02  1.250000000E+02  0.00000E+00  9.000E+00
      21     1     1     2   501   512  9.337112436E+01 -5.788821932E+01  2.700688968E+02  2.915586079E+02  3.814697266E-06  0.00000E+00  9.000E+00
#rwgt            1           1   2.5108412396176484E-002           3      195238           0
</event>
<event>
      5   9999  3.19816E-02  6.65110E+01 -1.00000E+00  1.32355E-01
      21    -1     0     0   502   501  0.000000000E+00  0.000000000E+00  4.233739131E+01  4.233739131E+01  0.000000000E+00  0.00000E+00  9.000E+00
      21    -1     0     0   501   511  0.000000000E+00  0.000000000E+00 -2.080637895E+03  2.080637895E+03  0.000000000E+00  0.00000E+00  9.000E+00
      25     1     1     2     0     0  2.251337791E+02 -5.329380458E+01 -8.205855285E+02  8.616908133E+02  1.250000000E+02  0.00000E+00  9.000E+00
      25     1     1     2     0     0 -2.096328521E+02 -1.138562954E+01 -7.482930516E+02  7.871740953E+02  1.250000000E+02  0.00000E+00  9.000E+00
      21     1     1     2   502   511 -1.550092703E+01  6.467943412E+01 -4.694219233E+02  4.741103774E+02  5.394796609E-06  0.00000E+00  9.000E+00
#rwgt            1           1   3.3722531864160826E-002           3      195302           0
</event>
<event>
      5   9999  3.19816E-02  2.11489E+02 -1.00000E+00  1.10772E-01
      21    -1     0     0   502   501  0.000000000E+00  0.000000000E+00  5.833707225E+02  5.833707225E+02  0.000000000E+00  0.00000E+00  9.000E+00
      21    -1     0     0   512   502  0.000000000E+00  0.000000000E+00 -2.152735282E+02  2.152735282E+02  0.000000000E+00  0.00000E+00  9.000E+00
      25     1     1     2     0     0  5.324940277E+01  1.784883200E+02  1.148725128E+02  2.520203831E+02  1.250000000E+02  0.00000E+00  9.000E+00
      25     1     1     2     0     0  1.564525360E+02 -1.510533916E+02  2.177782040E+02  3.321849925E+02  1.250000000E+02  0.00000E+00  9.000E+00
      21     1     1     2   512   501 -2.097019387E+02 -2.743492838E+01  3.544647748E+01  2.144388751E+02  2.739220927E-06  0.00000E+00  9.000E+00
#rwgt            2          11   3.4580923421606213E-003           3      195364           0
</event>
<event>
      5   9999  3.19816E-02  4.79692E+01 -1.00000E+00  1.40111E-01
      21    -1     0     0   502   501  0.000000000E+00  0.000000000E+00  7.770944843E+02  7.770944843E+02  0.000000000E+00  0.00000E+00  9.000E+00
      21    -1     0     0   511   502  0.000000000E+00  0.000000000E+00 -3.389301983E+02  3.389301983E+02  0.000000000E+00  0.00000E+00  9.000E+00
      25     1     1     2     0     0  4.991841508E+01  1.775844520E+02 -2.033730516E+02  3.016847426E+02  1.250000000E+02  0.00000E+00  9.000E+00
      25     1     1     2     0     0 -1.917214508E+01 -2.144043768E+02  6.975268715E+02  7.406116016E+02  1.250000000E+02  0.00000E+00  9.000E+00
      21     1     1     2   511   501 -3.074627000E+01  3.681992481E+01 -5.598953386E+01  7.372833841E+01  0.000000000E+00  0.00000E+00  9.000E+00
#rwgt            1           1   2.5835641944067185E-002           3      195399           0
</event>
<event>
      5   9999  3.19816E-02  4.10594E+01 -1.00000E+00  1.44140E-01
       2    -1     0     0   502     0  0.000000000E+00  0.000000000E+00  1.609611695E+03  1.609611695E+03  0.000000000E+00  0.00000E+00  9.000E+00
      21    -1     0     0   501   502  0.000000000E+00  0.000000000E+00 -3.763648803E+02  3.763648803E+02  0.000000000E+00  0.00000E+00  9.000E+00
      25     1     1     2     0     0  2.698041803E+02 -1.883865735E+02 -5.692922738E+01  3.565806132E+02  1.250000000E+02  0.00000E+00  9.000E+00
      25     1     1     2     0     0 -2.302371043E+02  1.993557721E+02 -9.235463741E+00  3.293359104E+02  1.250000000E+02  0.00000E+00  9.000E+00
       2     1     1     2   501     0 -3.956707593E+01 -1.096919861E+01  1.299411506E+03  1.300060052E+03  0.000000000E+00  0.00000E+00  9.000E+00
#rwgt            1           1   2.9388192593103782E-002           3      195581           0
</event>
<event>
      5   9999  3.19816E-02  1.05534E+02 -1.00000E+00  1.22785E-01
      21    -1     0     0   502   511  0.000000000E+00  0.000000000E+00  6.534807950E+02  6.534807950E+02  0.000000000E+00  0.00000E+00  9.000E+00
      21    -1     0     0   501   502  0.000000000E+00  0.000000000E+00 -6.519602665E+02  6.519602665E+02  0.000000000E+00  0.00000E+00  9.000E+00
      25     1     1     2     0     0 -5.002151419E+02  3.239889067E+01  3.636687722E+02  6.317791166E+02  1.250000000E+02  0.00000E+00  9.000E+00
      25     1     1     2     0     0  4.101033845E+02 -8.732806924E+01 -3.623996186E+02  5.681280324E+02  1.250000000E+02  0.00000E+00  9.000E+00
      21     1     1     2   501   511  9.011175740E+01  5.492917857E+01  2.513749120E-01  1.055339124E+02  1.830357615E-06  0.00000E+00  9.000E+00
#rwgt            1           1   3.1149370834315501E-002           3      195656           0
</event>
<event>
      5   9999  3.19816E-02  8.77682E+01 -1.00000E+00  1.26431E-01
      21    -1     0     0   502   501  0.000000000E+00  0.000000000E+00  1.109954069E+03  1.109954069E+03  0.000000000E+00  0.00000E+00  9.000E+00
      21    -1     0     0   501   512  0.000000000E+00  0.000000000E+00 -1.251311261E+02  1.251311261E+02  0.000000000E+00  0.00000E+00  9.000E+00
      25     1     1     2     0     0  3.342411974E+02  2.864177875E+01  4.465515880E+02  5.723380560E+02  1.250000000E+02  0.00000E+00  9.000E+00
      25     1     1     2     0     0 -2.566279520E+02  1.233915059E+01  4.758725157E+02  5.550583857E+02  1.250000000E+02  0.00000E+00  9.000E+00
      21     1     1     2   502   512 -7.761324544E+01 -4.098092934E+01  6.239883876E+01  1.076887530E+02  1.907348633E-06  0.00000E+00  9.000E+00
#rwgt            1           1   2.8014260464546165E-002           3      195751           0
</event>
<event>
      5   9999  3.19816E-02  2.07665E+01 -1.00000E+00  1.65033E-01
      21    -1     0     0   511   501  0.000000000E+00  0.000000000E+00  2.872144305E+02  2.872144305E+02  0.000000000E+00  0.00000E+00  9.000E+00
      21    -1     0     0   501   502  0.000000000E+00  0.000000000E+00 -6.556354029E+02  6.556354029E+02  0.000000000E+00  0.00000E+00  9.000E+00
      25     1     1     2     0     0  1.695117416E+02  3.457930946E+02 -2.845469597E+02  4.948727786E+02  1.250000000E+02  0.00000E+00  9.000E+00
      25     1     1     2     0     0 -1.881011598E+02 -3.365366589E+02 -1.046650979E+02  4.185913901E+02  1.250000000E+02  0.00000E+00  9.000E+00
      21     1     1     2   511   502  1.858941822E+01 -9.256435631E+00  2.079108519E+01  2.938566476E+01  2.384185791E-07  0.00000E+00  9.000E+00
#rwgt            1           1   2.8509174032302794E-002           3      195833           0
</event>
<event>
      5   9999  3.19816E-02  6.19070E+01 -1.00000E+00  1.33981E-01
      21    -1     0     0   502   501  0.000000000E+00  0.000000000E+00  1.842194023E+02  1.842194023E+02  0.000000000E+00  0.00000E+00  9.000E+00
      21    -1     0     0   512   502  0.000000000E+00  0.000000000E+00 -4.141370685E+02  4.141370685E+02  0.000000000E+00  0.00000E+00  9.000E+00
      25     1     1     2     0     0  9.382301845E+01 -9.406185790E+01 -1.263841467E+02  2.219196802E+02  1.250000000E+02  0.00000E+00  9.000E+00
      25     1     1     2     0     0 -3.712386867E+01  6.920867750E+01  9.023552568E+01  1.730187064E+02  1.250000000E+02  0.00000E+00  9.000E+00
      21     1     1     2   512   501 -5.669914978E+01  2.485318040E+01 -1.937690452E+02  2.034180843E+02  0.000000000E+00  0.00000E+00  9.000E+00
#rwgt            1           1   3.0189992134802716E-002           3      195989           0
</event>
<event>
      5   9999  3.19816E-02  4.30496E+01 -1.00000E+00  1.42889E-01
      21    -1     0     0   502   501  0.000000000E+00  0.000000000E+00  2.207917197E+02  2.207917197E+02  0.000000000E+00  0.00000E+00  9.000E+00
      21    -1     0     0   511   502  0.000000000E+00  0.000000000E+00 -4.986176894E+02  4.986176894E+02  0.000000000E+00  0.00000E+00  9.000E+00
      25     1     1     2     0     0 -6.071523936E+01 -2.384746460E+02 -8.931778564E+01  2.901019888E+02  1.250000000E+02  0.00000E+00  9.000E+00
      25     1     1     2     0     0  1.009985056E+02  2.536576845E+02 -7.731772827E+01  3.100741043E+02  1.250000000E+02  0.00000E+00  9.000E+00
      21     1     1     2   511   501 -4.028326624E+01 -1.518303851E+01 -1.111904558E+02  1.192333160E+02  1.348699152E-06  0.00000E+00  9.000E+00
#rwgt            1           1   2.9820267226816046E-002           3      196039           0
</event>
<event>
      5   9999  3.19816E-02  3.34518E+01 -1.00000E+00  1.49826E-01
      21    -1     0     0   512   501  0.000000000E+00  0.000000000E+00  1.309520163E+03  1.309520163E+03  0.000000000E+00  0.00000E+00  9.000E+00
      21    -1     0     0   501   502  0.000000000E+00  0.000000000E+00 -9.389881297E+01  9.389881297E+01  0.000000000E+00  0.00000E+00  9.000E+00
      25     1     1     2     0     0 -2.038735079E+02  2.257201923E+02  4.642083688E+02  5.688834873E+02  1.250000000E+02  0.00000E+00  9.000E+00
      25     1     1     2     0     0  2.131280292E+02 -1.935739933E+02  5.760747041E+02  6.560346884E+02  1.250000000E+02  0.00000E+00  9.000E+00
      21     1     1     2   512   502 -9.254521213E+00 -3.214619900E+01  1.753382775E+02  1.785008007E+02  2.697398305E-06  0.00000E+00  9.000E+00
#rwgt            1           1   2.9221417141012493E-002           3      196129           0
</event>
<event>
      5   9999  3.19816E-02  5.12066E+02 -1.00000E+00  9.85587E-02
      21    -1     0     0   502   501  0.000000000E+00  0.000000000E+00  1.987386794E+03  1.987386794E+03  0.000000000E+00  0.00000E+00  9.000E+00
       5    -1     0     0   501     0  0.000000000E+00  0.000000000E+00 -2.527518587E+02  2.527518587E+02  0.000000000E+00  0.00000E+00  9.000E+00
      25     1     1     2     0     0 -1.749460510E+02 -7.829059799E+01  1.202910103E+03  1.224480811E+03  1.250000000E+02  0.00000E+00  9.000E+00
      25     1     1     2     0     0 -2.274156817E+02 -2.384373692E+02  1.944874677E+02  4.025178833E+02  1.250000000E+02  0.00000E+00  9.000E+00
       5     1     1     2   502     0  4.023617327E+02  3.167279672E+02  3.372373641E+02  6.131399586E+02  8.529922400E-06  0.00000E+00  9.000E+00
#rwgt            2          16   1.8621999771837607E-005           3      196716           0
</event>
<event>
      5   9999  3.19816E-02  9.95843E+01 -1.00000E+00  1.23909E-01
      21    -1     0     0   502   501  0.000000000E+00  0.000000000E+00  2.386272811E+02  2.386272811E+02  0.000000000E+00  0.00000E+00  9.000E+00
      21    -1     0     0   501   511  0.000000000E+00  0.000000000E+00 -5.621081583E+02  5.621081583E+02  0.000000000E+00  0.00000E+00  9.000E+00
      25     1     1     2     0     0 -1.722634183E+02 -7.010323849E+01 -2.409739093E+02  3.290631768E+02  1.250000000E+02  0.00000E+00  9.000E+00
      25     1     1     2     0     0  1.544223599E+02  1.680763203E+02  8.758195852E+01  2.745751521E+02  1.250000000E+02  0.00000E+00  9.000E+00
      21     1     1     2   502   511  1.784105838E+01 -9.797308180E+01 -1.700889264E+02  1.970971106E+02  1.907348633E-06  0.00000E+00  9.000E+00
#rwgt            1           1   2.2386786633113040E-002           3      196750           0
</event>
<event>
      5   9999  3.19816E-02  3.72091E+01 -1.00000E+00  1.46815E-01
      21    -1     0     0   502   512  0.000000000E+00  0.000000000E+00  1.146746737E+03  1.146746737E+03  0.000000000E+00  0.00000E+00  9.000E+00
      21    -1     0     0   501   502  0.000000000E+00  0.000000000E+00 -1.248286491E+03  1.248286491E+03  0.000000000E+00  0.00000E+00  9.000E+00
      25     1     1     2     0     0  2.701393533E+01 -3.417146744E+02 -5.755021985E+02  6.814150365E+02  1.250000000E+02  0.00000E+00  9.000E+00
      25     1     1     2     0     0 -2.749671966E+00  3.699239768E+02 -5.579598154E+02  6.810253042E+02  1.250000000E+02  0.00000E+00  9.000E+00
      21     1     1     2   501   512 -2.426426336E+01 -2.820930246E+01  1.031922260E+03  1.032592887E+03  0.000000000E+00  0.00000E+00  9.000E+00
#rwgt            1           1   3.4855764415605998E-002           3      196790           0
</event>
<event>
      5   9999  3.19816E-02  4.44101E+01 -1.00000E+00  1.42078E-01
      21    -1     0     0   502   501  0.000000000E+00  0.000000000E+00  5.107502288E+01  5.107502288E+01  0.000000000E+00  0.00000E+00  9.000E+00
      21    -1     0     0   511   502  0.000000000E+00  0.000000000E+00 -8.551765675E+02  8.551765675E+02  0.000000000E+00  0.00000E+00  9.000E+00
      25     1     1     2     0     0  7.166964891E+01  2.281496725E+01 -9.663868652E+01  1.749888483E+02  1.250000000E+02  0.00000E+00  9.000E+00
      25     1     1     2     0     0 -2.867114480E+01 -3.392298572E+01 -6.084974442E+02  6.227896459E+02  1.250000000E+02  0.00000E+00  9.000E+00
      21     1     1     2   511   501 -4.299850411E+01  1.110801847E+01 -9.896541389E+01  1.084730961E+02  1.348699152E-06  0.00000E+00  9.000E+00
#rwgt            2          11   2.0839127337013001E-003           3      197017           0
</event>
<event>
      5   9999  3.19816E-02  1.34412E+01 -1.00000E+00  1.81994E-01
      21    -1     0     0   502   501  0.000000000E+00  0.000000000E+00  2.412719033E+02  2.412719033E+02  0.000000000E+00  0.00000E+00  9.000E+00
       2    -1     0     0   501     0  0.000000000E+00  0.000000000E+00 -1.329383329E+03  1.329383329E+03  0.000000000E+00  0.00000E+00  9.000E+00
      25     1     1     2     0     0 -1.847751419E+02 -2.575624017E+01  1.486911251E+02  2.693311859E+02  1.250000000E+02  0.00000E+00  9.000E+00
      25     1     1     2     0     0  1.788659075E+02  1.368366743E+01 -3.388279223E+02  4.032488271E+02  1.250000000E+02  0.00000E+00  9.000E+00
       2     1     1     2   502     0  5.909234421E+00  1.207257274E+01 -8.979746285E+02  8.980752193E+02  0.000000000E+00  0.00000E+00  9.000E+00
#rwgt            1           1   2.6430639697521869E-002           3      197037           0
</event>
<event>
      5   9999  3.19816E-02  1.24945E+01 -1.00000E+00  1.85203E-01
      21    -1     0     0   511   501  0.000000000E+00  0.000000000E+00  9.976668494E+02  9.976668494E+02  0.000000000E+00  0.00000E+00  9.000E+00
      21    -1     0     0   501   502  0.000000000E+00  0.000000000E+00 -4.639386659E+02  4.639386659E+02  0.000000000E+00  0.00000E+00  9.000E+00
      25     1     1     2     0     0 -1.098849857E+02 -1.122887535E+02 -2.250401582E+02  3.015817420E+02  1.250000000E+02  0.00000E+00  9.000E+00
      25     1     1     2     0     0  9.993719449E+01  1.047287485E+02 -1.549926733E+02  2.461773393E+02  1.250000000E+02  0.00000E+00  9.000E+00
      21     1     1     2   511   502  9.947791257E+00  7.560004992E+00  9.137610151E+02  9.138464340E+02  1.525878906E-05  0.00000E+00  9.000E+00
#rwgt            1           1   2.6567785890921403E-002           3      197245           0
</event>
<event>
      5   9999  3.19816E-02  4.61180E+01 -1.00000E+00  1.41108E-01
      21    -1     0     0   512   501  0.000000000E+00  0.000000000E+00  2.102539065E+02  2.102539065E+02  0.000000000E+00  0.00000E+00  9.000E+00
      21    -1     0     0   501   502  0.000000000E+00  0.000000000E+00 -2.296960341E+02  2.296960341E+02  0.000000000E+00  0.00000E+00  9.000E+00
      25     1     1     2     0     0 -5.642801745E+01 -8.182475293E+01  1.022792293E+02  1.896455960E+02  1.250000000E+02  0.00000E+00  9.000E+00
      25     1     1     2     0     0  7.371710323E+01  3.907017073E+01 -1.353123593E+02  2.022254290E+02  1.250000000E+02  0.00000E+00  9.000E+00
      21     1     1     2   512   502 -1.728908577E+01  4.275458220E+01  1.359100244E+01  4.807891568E+01  4.460403188E-07  0.00000E+00  9.000E+00
#rwgt            1           1   2.9874711372131126E-002           3      197441           0
</event>
<event>
      5   9999  3.19816E-02  8.96297E+01 -1.00000E+00  1.26005E-01
      21    -1     0     0   511   501  0.000000000E+00  0.000000000E+00  2.979773306E+02  2.979773306E+02  0.000000000E+00  0.00000E+00  9.000E+00
      21    -1     0     0   501   502  0.000000000E+00  0.000000000E+00 -7.019775904E+02  7.019775904E+02  0.000000000E+00  0.00000E+00  9.000E+00
      25     1     1     2     0     0 -8.916426679E+01 -1.626933988E+02 -3.683319212E+02  4.309440946E+02  1.250000000E+02  0.00000E+00  9.000E+00
      25     1     1     2     0     0  1.448278662E+02  2.329432943E+02 -2.138290418E+02  3.695748210E+02  1.250000000E+02  0.00000E+00  9.000E+00
      21     1     1     2   511   502 -5.566359937E+01 -7.024989547E+01  1.781607032E+02  1.994360054E+02  0.000000000E+00  0.00000E+00  9.000E+00
#rwgt            1           1   2.4299376241308804E-002           3      197485           0
</event>
<event>
      5   9999  3.19816E-02  3.83570E+01 -1.00000E+00  1.45979E-01
      21    -1     0     0   512   501  0.000000000E+00  0.000000000E+00  1.288091089E+03  1.288091089E+03  0.000000000E+00  0.00000E+00  9.000E+00
      21    -1     0     0   501   502  0.000000000E+00  0.000000000E+00 -8.537991915E+01  8.537991915E+01  0.000000000E+00  0.00000E+00  9.000E+00
      25     1     1     2     0     0  1.205883881E+02 -1.274120685E+02  1.517620139E+02  2.634997218E+02  1.250000000E+02  0.00000E+00  9.000E+00
      25     1     1     2     0     0 -1.526137198E+02  1.485222141E+02  4.996298480E+02  5.573192806E+02  1.250000000E+02  0.00000E+00  9.000E+00
      21     1     1     2   512   502  3.202533165E+01 -2.111014560E+01  5.513193084E+02  5.526520061E+02  1.078959322E-05  0.00000E+00  9.000E+00
#rwgt            1           1   3.0653837032793882E-002           3      197531           0
</event>
<event>
      5   9999  3.19816E-02  1.19375E+02 -1.00000E+00  1.20465E-01
      21    -1     0     0   502   501  0.000000000E+00  0.000000000E+00  1.616393367E+02  1.616393367E+02  0.000000000E+00  0.00000E+00  9.000E+00
      21    -1     0     0   501   511  0.000000000E+00  0.000000000E+00 -2.217192025E+03  2.217192025E+03  0.000000000E+00  0.00000E+00  9.000E+00
      25     1     1     2     0     0  1.434142517E+02 -5.056816372E+01 -3.193848975E+02  3.751752918E+02  1.250000000E+02  0.00000E+00  9.000E+00
      25     1     1     2     0     0 -4.939776663E+01 -2.299320216E+01  9.653388978E+01  1.670706993E+02  1.250000000E+02  0.00000E+00  9.000E+00
      21     1     1     2   502   511 -9.401648506E+01  7.356136588E+01 -1.832701680E+03  1.836585371E+03  3.737624730E-05  0.00000E+00  9.000E+00
#rwgt            1           1   2.6756472156011107E-002           3      197625           0
</event>
<event>
      5   9999  3.19816E-02  1.33004E+01 -1.00000E+00  1.82449E-01
      21    -1     0     0   502   501  0.000000000E+00  0.000000000E+00  3.500966289E+02  3.500966289E+02  0.000000000E+00  0.00000E+00  9.000E+00
      21    -1     0     0   512   502  0.000000000E+00  0.000000000E+00 -3.190711257E+02  3.190711257E+02  0.000000000E+00  0.00000E+00  9.000E+00
      25     1     1     2     0     0 -1.912488914E+02  1.071889760E+02  2.330040288E+02  3.434843409E+02  1.250000000E+02  0.00000E+00  9.000E+00
      25     1     1     2     0     0  1.818097883E+02 -9.781863548E+01 -1.848811032E+02  3.040218855E+02  1.250000000E+02  0.00000E+00  9.000E+00
      21     1     1     2   512   501  9.439103123E+00 -9.370340529E+00 -1.709742237E+01  2.166152813E+01  4.129530925E-07  0.00000E+00  9.000E+00
#rwgt            1           1   2.8332912595609917E-002           3      197682           0
</event>
<event>
      5   9999  3.19816E-02  1.57328E+01 -1.00000E+00  1.75454E-01
      21    -1     0     0   502   501  0.000000000E+00  0.000000000E+00  3.242710502E+02  3.242710502E+02  0.000000000E+00  0.00000E+00  9.000E+00
      21    -1     0     0   511   502  0.000000000E+00  0.000000000E+00 -2.732222998E+02  2.732222998E+02  0.000000000E+00  0.00000E+00  9.000E+00
      25     1     1     2     0     0 -8.177458756E+01 -1.814063216E+02 -1.269642128E+02  2.670959529E+02  1.250000000E+02  0.00000E+00  9.000E+00
      25     1     1     2     0     0  9.208653328E+01  1.695242452E+02  1.990834204E+02  3.041013114E+02  1.250000000E+02  0.00000E+00  9.000E+00
      21     1     1     2   511   501 -1.031194572E+01  1.188207642E+01 -2.107045710E+01  2.629608577E+01  0.000000000E+00  0.00000E+00  9.000E+00
#rwgt            1           1   2.9869375838659361E-002           3      197940           0
</event>
<event>
      5   9999  3.19816E-02  8.46686E+00 -1.00000E+00  2.04501E-01
      21    -1     0     0   502   512  0.000000000E+00  0.000000000E+00  3.609263149E+02  3.609263149E+02  0.000000000E+00  0.00000E+00  9.000E+00
      21    -1     0     0   501   502  0.000000000E+00  0.000000000E+00 -2.465169030E+02  2.465169030E+02  0.000000000E+00  0.00000E+00  9.000E+00
      25     1     1     2     0     0  9.938539088E+01  1.567763436E+02 -8.498789875E+01  2.393830001E+02  1.250000000E+02  0.00000E+00  9.000E+00
      25     1     1     2     0     0 -9.604574504E+01 -1.645567361E+02  7.000216162E+01  2.383883537E+02  1.250000000E+02  0.00000E+00  9.000E+00
      21     1     1     2   501   512 -3.339645834E+00  7.780392502E+00  1.293951490E+02  1.296718641E+02  2.697398305E-06  0.00000E+00  9.000E+00
#rwgt            1           1   3.0080888291393191E-002           3      198136           0
</event>
<event>
      5   9999  3.19816E-02  1.16594E+02 -1.00000E+00  1.20901E-01
      21    -1     0     0   511   501  0.000000000E+00  0.000000000E+00  4.544911003E+02  4.544911003E+02  0.000000000E+00  0.00000E+00  9.000E+00
      21    -1     0     0   501   502  0.000000000E+00  0.000000000E+00 -1.354368068E+03  1.354368068E+03  0.000000000E+00  0.00000E+00  9.000E+00
      25     1     1     2     0     0  1.954282486E+02 -6.974664806E+02 -7.459587432E+02  1.047249320E+03  1.250000000E+02  0.00000E+00  9.000E+00
      25     1     1     2     0     0 -2.057999002E+02  5.813347966E+02 -1.336892562E+02  6.432740955E+02  1.250000000E+02  0.00000E+00  9.000E+00
      21     1     1     2   511   502  1.037165165E+01  1.161316839E+02 -2.022896804E+01  1.183357525E+02  2.443063442E-06  0.00000E+00  9.000E+00
#rwgt            1           1   2.7193212256263592E-002           3      198350           0
</event>
<event>
      5   9999  3.19816E-02  7.18644E+01 -1.00000E+00  1.30645E-01
      21    -1     0     0   502   501  0.000000000E+00  0.000000000E+00  3.722734602E+02  3.722734602E+02  0.000000000E+00  0.00000E+00  9.000E+00
      21    -1     0     0   512   502  0.000000000E+00  0.000000000E+00 -4.391681261E+02  4.391681261E+02  0.000000000E+00  0.00000E+00  9.000E+00
      25     1     1     2     0     0  2.239311527E+02 -9.162608715E+01 -1.569638641E+02  3.143296926E+02  1.250000000E+02  0.00000E+00  9.000E+00
      25     1     1     2     0     0 -1.603218234E+02  5.818432907E+01  2.466157920E+02  3.248582030E+02  1.250000000E+02  0.00000E+00  9.000E+00
      21     1     1     2   512   501 -6.360932933E+01  3.344175808E+01 -1.565465937E+02  1.722536907E+02  1.907348633E-06  0.00000E+00  9.000E+00
#rwgt            1           1   2.8766324668805774E-002           3      198412           0
</event>
<event>
      5   9999  3.19816E-02  4.70476E+01 -1.00000E+00  1.40601E-01
      21    -1     0     0   511   501  0.000000000E+00  0.000000000E+00  2.292415762E+02  2.292415762E+02  0.000000000E+00  0.00000E+00  9.000E+00
      21    -1     0     0   501   502  0.000000000E+00  0.000000000E+00 -1.480320277E+03  1.480320277E+03  0.000000000E+00  0.00000E+00  9.000E+00
      25     1     1     2     0     0  9.429491851E+01 -6.364254011E+01  9.397953155E+01  1.933883578E+02  1.250000000E+02  0.00000E+00  9.000E+00
      25     1     1     2     0     0 -1.134215241E+02  2.065828338E+01 -1.418662517E+03  1.428817534E+03  1.250000000E+02  0.00000E+00  9.000E+00
      21     1     1     2   511   502  1.912660557E+01  4.298425673E+01  7.360428464E+01  8.735596193E+01  1.348699152E-06  0.00000E+00  9.000E+00
#rwgt            1           1   2.8658529246122503E-002           3      198490           0
</event>
<event>
      5   9999  3.19816E-02  2.67012E+01 -1.00000E+00  1.56639E-01
      21    -1     0     0   502   501  0.000000000E+00  0.000000000E+00  1.181617688E+02  1.181617688E+02  0.000000000E+00  0.00000E+00  9.000E+00
      21    -1     0     0   501   512  0.000000000E+00  0.000000000E+00 -1.800933363E+03  1.800933363E+03  0.000000000E+00  0.00000E+00  9.000E+00
      25     1     1     2     0     0  2.496029035E+02 -6.496348177E+01 -9.200719062E+01  3.010185817E+02  1.250000000E+02  0.00000E+00  9.000E+00
      25     1     1     2     0     0 -2.234861770E+02  5.940717780E+01 -1.517470340E+03  1.540070296E+03  1.250000000E+02  0.00000E+00  9.000E+00
      21     1     1     2   502   512 -2.611672651E+01  5.556303977E+00 -7.329406404E+01  7.800625450E+01  9.536743164E-07  0.00000E+00  9.000E+00
#rwgt            1           1   3.4863110987179223E-002           3      198629           0
</event>
<event>
      5   9999  3.19816E-02  9.11075E+01 -1.00000E+00  1.25675E-01
      21    -1     0     0   502   501  0.000000000E+00  0.000000000E+00  1.093419903E+02  1.093419903E+02  0.000000000E+00  0.00000E+00  9.000E+00
       2    -1     0     0   501     0  0.000000000E+00  0.000000000E+00 -1.775239319E+03  1.775239319E+03  0.000000000E+00  0.00000E+00  9.000E+00
      25     1     1     2     0     0 -2.823509826E+00 -1.200748035E+02  2.035768100E+01  1.745433064E+02  1.250000000E+02  0.00000E+00  9.000E+00
      25     1     1     2     0     0  7.906286652E+01  7.019362646E+01 -1.402311609E+03  1.411836014E+03  1.250000000E+02  0.00000E+00  9.000E+00
       2     1     1     2   502     0 -7.623935670E+01  4.988117705E+01 -2.839434007E+02  2.982019888E+02  3.814697266E-06  0.00000E+00  9.000E+00
#rwgt            2          13   5.2801571877869125E-004           3      198822           0
</event>
<event>
      5   9999  3.19816E-02  7.81320E+01 -1.00000E+00  1.28848E-01
      21    -1     0     0   502   511  0.000000000E+00  0.000000000E+00  2.921319293E+03  2.921319293E+03  0.000000000E+00  0.00000E+00  9.000E+00
      21    -1     0     0   501   502  0.000000000E+00  0.000000000E+00 -6.780894470E+01  6.780894470E+01  0.000000000E+00  0.00000E+00  9.000E+00
      25     1     1     2     0     0 -2.856975547E+02  7.035515750E+01  1.433407622E+03  1.468623625E+03  1.250000000E+02  0.00000E+00  9.000E+00
      25     1     1     2     0     0  3.289942046E+02 -1.353936263E+02  6.907141793E+02  7.869432624E+02  1.250000000E+02  0.00000E+00  9.000E+00
      21     1     1     2   501   511 -4.329664987E+01  6.503846877E+01  7.293885472E+02  7.335613506E+02  1.078959322E-05  0.00000E+00  9.000E+00
#rwgt            1           1   2.8300938804057964E-002           3      198856           0
</event>
<event>
      5   9999  3.19816E-02  2.18076E+01 -1.00000E+00  1.63327E-01
      21    -1     0     0   502   501  0.000000000E+00  0.000000000E+00  5.871607843E+02  5.871607843E+02  0.000000000E+00  0.00000E+00  9.000E+00
      21    -1     0     0   512   502  0.000000000E+00  0.000000000E+00 -4.123694675E+02  4.123694675E+02  0.000000000E+00  0.00000E+00  9.000E+00
      25     1     1     2     0     0 -2.270300030E+02 -1.194625537E+02  1.307606584E+01  2.856744782E+02  1.250000000E+02  0.00000E+00  9.000E+00
      25     1     1     2     0     0  2.065864047E+02  1.118710677E+02  3.967930807E+02  4.777685918E+02  1.250000000E+02  0.00000E+00  9.000E+00
      21     1     1     2   512   501  2.044359836E+01  7.591485958E+00 -2.350778297E+02  2.360871818E+02  4.672030912E-06  0.00000E+00  9.000E+00
#rwgt            1           1   3.0268909597690744E-002           3      198952           0
</event>
<event>
      5   9999  3.19816E-02  9.13281E+01 -1.00000E+00  1.25626E-01
      21    -1     0     0   502   501  0.000000000E+00  0.000000000E+00  9.424204761E+02  9.424204761E+02  0.000000000E+00  0.00000E+00  9.000E+00
      21    -1     0     0   501   511  0.000000000E+00  0.000000000E+00 -1.986948715E+02  1.986948715E+02  0.000000000E+00  0.00000E+00  9.000E+00
      25     1     1     2     0     0 -3.318763168E+02  3.074157872E+01  2.293454903E+02  4.234516363E+02  1.250000000E+02  0.00000E+00  9.000E+00
      25     1     1     2     0     0  3.758480219E+02  4.930408277E+01  4.684476723E+02  6.154354960E+02  1.250000000E+02  0.00000E+00  9.000E+00
      21     1     1     2   502   511 -4.397170503E+01 -8.004566149E+01  4.593244201E+01  1.022282153E+02  1.168007728E-06  0.00000E+00  9.000E+00
#rwgt            1           1   2.3809196418336544E-002           3      199070           0
</event>
<event>
      5   9999  3.19816E-02  4.54906E+02 -1.00000E+00  1.00032E-01
      21    -1     0     0   502   501  0.000000000E+00  0.000000000E+00  1.862875872E+03  1.862875872E+03  0.000000000E+00  0.00000E+00  9.000E+00
      21    -1     0     0   501   512  0.000000000E+00  0.000000000E+00 -3.998040392E+02  3.998040392E+02  0.000000000E+00  0.00000E+00  9.000E+00
      25     1     1     2     0     0 -4.936680843E+02 -1.795329716E+02  9.922104932E+02  1.129622472E+03  1.250000000E+02  0.00000E+00  9.000E+00
      25     1     1     2     0     0  4.642723831E+02 -2.744226539E+02  1.414092696E+02  5.713827266E+02  1.250000000E+02  0.00000E+00  9.000E+00
      21     1     1     2   502   512  2.939570118E+01  4.539556256E+02  3.294520705E+02  5.616747136E+02  7.629394531E-06  0.00000E+00  9.000E+00
#rwgt            1           1   2.7639651687227013E-002           3      199158           0
</event>
<event>
      5   9999  3.19816E-02  2.72729E+02 -1.00000E+00  1.06955E-01
      21    -1     0     0   511   501  0.000000000E+00  0.000000000E+00  1.162358740E+03  1.162358740E+03  0.000000000E+00  0.00000E+00  9.000E+00
      21    -1     0     0   501   502  0.000000000E+00  0.000000000E+00 -6.841284852E+02  6.841284852E+02  0.000000000E+00  0.00000E+00  9.000E+00
      25     1     1     2     0     0 -5.055491387E+02 -5.348761123E+02 -1.811970330E+02  7.681990315E+02  1.250000000E+02  0.00000E+00  9.000E+00
      25     1     1     2     0     0  5.022373643E+02  2.621670636E+02  4.605994163E+02  7.407771336E+02  1.250000000E+02  0.00000E+00  9.000E+00
      21     1     1     2   511   502  3.311774412E+00  2.727090487E+02  1.988278715E+02  3.375110599E+02  6.607249480E-06  0.00000E+00  9.000E+00
#rwgt            2          11   4.9020094589908502E-003           3      199205           0
</event>
<event>
      5   9999  3.19816E-02  2.94815E+01 -1.00000E+00  1.53568E-01
      21    -1     0     0   502   512  0.000000000E+00  0.000000000E+00  5.355248654E+02  5.355248654E+02  0.000000000E+00  0.00000E+00  9.000E+00
      21    -1     0     0   501   502  0.000000000E+00  0.000000000E+00 -2.431562430E+02  2.431562430E+02  0.000000000E+00  0.00000E+00  9.000E+00
      25     1     1     2     0     0  4.098500626E+01 -1.547894420E+02  1.733441547E+02  2.670444496E+02  1.250000000E+02  0.00000E+00  9.000E+00
      25     1     1     2     0     0 -5.751621113E+01  1.303788439E+02 -1.495508102E+02  2.414481359E+02  1.250000000E+02  0.00000E+00  9.000E+00
      21     1     1     2   501   512  1.653120486E+01  2.441059811E+01  2.685752779E+02  2.701885230E+02  3.814697266E-06  0.00000E+00  9.000E+00
#rwgt            1           1   2.6459173028738542E-002           3      199255           0
</event>
<event>
      5   9999  3.19816E-02  6.19036E+01 -1.00000E+00  1.33983E-01
      21    -1     0     0   502   501  0.000000000E+00  0.000000000E+00  4.864089723E+02  4.864089723E+02  0.000000000E+00  0.00000E+00  9.000E+00
      21    -1     0     0   501   511  0.000000000E+00  0.000000000E+00 -4.881543484E+02  4.881543484E+02  0.000000000E+00  0.00000E+00  9.000E+00
      25     1     1     2     0     0  1.810346952E+00 -4.220857784E+02 -2.114286867E+01  4.407172593E+02  1.250000000E+02  0.00000E+00  9.000E+00
      25     1     1     2     0     0 -2.104721029E+01  3.632470306E+02  1.308367135E+02  4.063676117E+02  1.250000000E+02  0.00000E+00  9.000E+00
      21     1     1     2   502   511  1.923686334E+01  5.883874787E+01 -1.114392209E+02  1.274784496E+02  1.348699152E-06  0.00000E+00  9.000E+00
#rwgt            1           1   3.0281206922389718E-002           3      199336           0
</event>
<event>
      5   9999  3.19816E-02  8.34914E+01 -1.00000E+00  1.27458E-01
      21    -1     0     0   502   512  0.000000000E+00  0.000000000E+00  2.715702465E+02  2.715702465E+02  0.000000000E+00  0.00000E+00  9.000E+00
      21    -1     0     0   501   502  0.000000000E+00  0.000000000E+00 -3.092179565E+02  3.092179565E+02  0.000000000E+00  0.00000E+00  9.000E+00
      25     1     1     2     0     0  1.218547362E+02  4.765318863E+01 -1.486419916E+02  2.341769519E+02  1.250000000E+02  0.00000E+00  9.000E+00
      25     1     1     2     0     0 -2.050425216E+02 -4.053906420E+01  6.883466691E+01  2.530791630E+02  1.250000000E+02  0.00000E+00  9.000E+00
      21     1     1     2   501   512  8.318778541E+01 -7.114124435E+00  4.215961475E+01  9.353208820E+01  2.132480600E-06  0.00000E+00  9.000E+00
#rwgt            1           1   2.8075219496975449E-002           3      199437           0
</event>
<event>
      5   9999  3.19816E-02  5.04859E+01 -1.00000E+00  1.38836E-01
      21    -1     0     0   502   501  0.000000000E+00  0.000000000E+00  4.666462673E+01  4.666462673E+01  0.000000000E+00  0.00000E+00  9.000E+00
      21    -1     0     0   501   511  0.000000000E+00  0.000000000E+00 -1.549332756E+03  1.549332756E+03  0.000000000E+00  0.00000E+00  9.000E+00
      25     1     1     2     0     0 -6.075981451E+01 -1.597420016E+02 -8.317682939E+02  8.582964272E+02  1.250000000E+02  0.00000E+00  9.000E+00
      25     1     1     2     0     0  8.290236880E+01  2.051130596E+02 -5.238676043E+02  5.822425928E+02  1.250000000E+02  0.00000E+00  9.000E+00
      21     1     1     2   502   511 -2.214255429E+01 -4.537105792E+01 -1.470322314E+02  1.554583632E+02  0.000000000E+00  0.00000E+00  9.000E+00
#rwgt            1           1   2.9663239721303025E-002           3      199481           0
</event>
<event>
      5   9999  3.62884E-02  1.37329E+01 -1.00000E+00  1.81072E-01
      21    -1     0     0   502   501  0.000000000E+00  0.000000000E+00  5.326216910E+02  5.326216910E+02  0.000000000E+00  0.00000E+00  9.000E+00
      21    -1     0     0   501   512  0.000000000E+00  0.000000000E+00 -6.242302051E+02  6.242302051E+02  0.000000000E+00  0.00000E+00  9.000E+00
      25     1     1     2     0     0  1.313977662E+02  2.540517474E+02  7.120622979E+01  3.201608822E+02  1.250000000E+02  0.00000E+00  9.000E+00
      25     1     1     2     0     0 -1.450811847E+02 -2.528865866E+02  2.621411659E+02  4.115132643E+02  1.250000000E+02  0.00000E+00  9.000E+00
      21     1     1     2   502   512  1.368341853E+01 -1.165160874E+00 -4.249559097E+02  4.251777496E+02  5.394796609E-06  0.00000E+00  9.000E+00
#rwgt            1           1   3.0101379789889488E-002           3      199568           0
</event>
<event>
      5   9999  3.19816E-02  9.81577E+01 -1.00000E+00  1.24192E-01
      21    -1     0     0   502   501  0.000000000E+00  0.000000000E+00  2.543249737E+02  2.543249737E+02  0.000000000E+00  0.00000E+00  9.000E+00
      21    -1     0     0   501   511  0.000000000E+00  0.000000000E+00 -8.877877765E+02  8.877877765E+02  0.000000000E+00  0.00000E+00  9.000E+00
      25     1     1     2     0     0  2.125689838E+02 -3.657419430E+02 -4.729233643E+02  6.467103294E+02  1.250000000E+02  0.00000E+00  9.000E+00
      25     1     1     2     0     0 -1.284194446E+02  3.152068180E+02 -8.735443717E+01  3.729647296E+02  1.250000000E+02  0.00000E+00  9.000E+00
      21     1     1     2   502   511 -8.414953918E+01  5.053512501E+01 -7.318500136E+01  1.224376912E+02  2.523185073E-06  0.00000E+00  9.000E+00
#rwgt            1           1   2.8816736330011559E-002           3      199772           0
</event>
<event>
      5   9999  3.19816E-02  1.18363E+02 -1.00000E+00  1.20622E-01
      21    -1     0     0   502   512  0.000000000E+00  0.000000000E+00  1.460108421E+02  1.460108421E+02  0.000000000E+00  0.00000E+00  9.000E+00
      21    -1     0     0   501   502  0.000000000E+00  0.000000000E+00 -7.112563853E+02  7.112563853E+02  0.000000000E+00  0.00000E+00  9.000E+00
      25     1     1     2     0     0 -1.775500939E+02 -9.311770131E+01 -1.075167548E+02  2.595761829E+02  1.250000000E+02  0.00000E+00  9.000E+00
      25     1     1     2     0     0  2.265516410E+02 -1.462532635E+01 -3.633638113E+02  4.463158137E+02  1.250000000E+02  0.00000E+00  9.000E+00
      21     1     1     2   501   512 -4.900154703E+01  1.077430277E+02 -9.436497704E+01  1.513752308E+02  3.015782986E-06  0.00000E+00  9.000E+00
#rwgt            1           1   2.7248573056970257E-002           3      199841           0
</event>
<event>
      5   9999  3.19816E-02  6.82805E+01 -1.00000E+00  1.31770E-01
      21    -1     0     0   502   501  0.000000000E+00  0.000000000E+00  6.514959134E+02  6.514959134E+02  0.000000000E+00  0.00000E+00  9.000E+00
      21    -1     0     0   501   511  0.000000000E+00  0.000000000E+00 -1.462410686E+02  1.462410686E+02  0.000000000E+00  0.00000E+00  9.000E+00
      25     1     1     2     0     0 -1.087064963E+02  1.987114616E+02  1.635419834E+02  3.060626205E+02  1.250000000E+02  0.00000E+00  9.000E+00
      25     1     1     2     0     0  1.731729480E+02 -1.762101702E+02  3.121899302E+02  4.172846110E+02  1.250000000E+02  0.00000E+00  9.000E+00
      21     1     1     2   502   511 -6.446645179E+01 -2.250129141E+01  2.952293120E+01  7.438975056E+01  9.536743164E-07  0.00000E+00  9.000E+00
#rwgt            1           1   2.7352849094726652E-002           3      199903           0
</event>
<event>
      5   9999  3.19816E-02  1.64226E+01 -1.00000E+00  1.73755E-01
      21    -1     0     0   502   512  0.000000000E+00  0.000000000E+00  1.238131660E+02  1.238131660E+02  0.000000000E+00  0.00000E+00  9.000E+00
      21    -1     0     0   501   502  0.000000000E+00  0.000000000E+00 -8.732364619E+02  8.732364619E+02  0.000000000E+00  0.00000E+00  9.000E+00
      25     1     1     2     0     0  2.071390101E+01 -2.677711129E+02 -2.202571949E+02  3.691458608E+02  1.250000000E+02  0.00000E+00  9.000E+00
      25     1     1     2     0     0 -3.197948167E+01  2.797205888E+02 -5.281877104E+02  6.114520034E+02  1.250000000E+02  0.00000E+00  9.000E+00
      21     1     1     2   501   512  1.126558066E+01 -1.194947582E+01 -9.783905674E-01  1.645176368E+01  1.662665129E-07  0.00000E+00  9.000E+00
#rwgt            1           1   2.8983690685060695E-002           3      199999           0
</event>
<event>
      5   9999  3.19816E-02  1.10452E+02 -1.00000E+00  1.21917E-01
      21    -1     0     0   502   511  0.000000000E+00  0.000000000E+00  7.945408182E+02  7.945408182E+02  0.000000000E+00  0.00000E+00  9.000E+00
      21    -1     0     0   501   502  0.000000000E+00  0.000000000E+00 -7.343786849E+02  7.343786849E+02  0.000000000E+00  0.00000E+00  9.000E+00
      25     1     1     2     0     0  6.617677351E+02 -1.760393182E+02  8.111942187E+00  6.961445111E+02  1.250000000E+02  0.00000E+00  9.000E+00
      25     1     1     2     0     0 -6.558995920E+02  6.574286132E+01 -6.226568833E+01  6.738163062E+02  1.250000000E+02  0.00000E+00  9.000E+00
      21     1     1     2   501   511 -5.868143103E+00  1.102964569E+02  1.143158794E+02  1.589586858E+02  1.907348633E-06  0.00000E+00  9.000E+00
#rwgt            1           1   3.1569816368791997E-002           3      200137           0
</event>
<event>
      5   9999  3.19816E-02  4.82406E+01 -1.00000E+00  1.39969E-01
      21    -1     0     0   512   501  0.000000000E+00  0.000000000E+00  9.009916895E+02  9.009916895E+02  0.000000000E+00  0.00000E+00  9.000E+00
      21    -1     0     0   501   502  0.000000000E+00  0.000000000E+00 -1.118301563E+02  1.118301563E+02  0.000000000E+00  0.00000E+00  9.000E+00
      25     1     1     2     0     0 -1.359633782E+02 -6.775645883E+01  1.094216170E+01  1.970322533E+02  1.250000000E+02  0.00000E+00  9.000E+00
      25     1     1     2     0     0  1.454784801E+02  2.046359535E+01  5.596315885E+02  5.919419412E+02  1.250000000E+02  0.00000E+00  9.000E+00
      21     1     1     2   512   502 -9.515101877E+00  4.729286348E+01  2.185877830E+02  2.238476512E+02  0.000000000E+00  0.00000E+00  9.000E+00
#rwgt            1           1   2.9267099102202425E-002           3      200221           0
</event>
<event>
      5   9999  3.19816E-02  7.31472E+01 -1.00000E+00  1.30261E-01
      21    -1     0     0   502   501  0.000000000E+00  0.000000000E+00  2.889153899E+02  2.889153899E+02  0.000000000E+00  0.00000E+00  9.000E+00
      21    -1     0     0   501   511  0.000000000E+00  0.000000000E+00 -5.638266113E+02  5.638266113E+02  0.000000000E+00  0.00000E+00  9.000E+00
      25     1     1     2     0     0 -1.444151189E+02  1.621819413E+02  1.427276626E+02  2.883659036E+02  1.250000000E+02  0.00000E+00  9.000E+00
      25     1     1     2     0     0  2.124741902E+02 -1.353775105E+02 -2.311118193E+02  3.640192644E+02  1.250000000E+02  0.00000E+00  9.000E+00
      21     1     1     2   502   511 -6.805907128E+01 -2.680443082E+01 -1.865270647E+02  2.003568331E+02  0.000000000E+00  0.00000E+00  9.000E+00
#rwgt            2          11   2.2324569667926905E-003           3      200353           0
</event>
<event>
      5   9999  3.19816E-02  1.26293E+01 -1.00000E+00  1.84724E-01
      21    -1     0     0   512   501  0.000000000E+00  0.000000000E+00  6.269870312E+02  6.269870312E+02  0.000000000E+00  0.00000E+00  9.000E+00
      21    -1     0     0   501   502  0.000000000E+00  0.000000000E+00 -4.027734837E+02  4.027734837E+02  0.000000000E+00  0.00000E+00  9.000E+00
      25     1     1     2     0     0 -5.262532052E+01 -9.734698417E+01 -3.390456045E+02  3.779190147E+02  1.250000000E+02  0.00000E+00  9.000E+00
      25     1     1     2     0     0  6.364630781E+01  1.035143374E+02  1.276969265E+02  2.160962184E+02  1.250000000E+02  0.00000E+00  9.000E+00
      21     1     1     2   512   502 -1.102098729E+01 -6.167353268E+00  4.355622255E+02  4.357452819E+02  5.394796609E-06  0.00000E+00  9.000E+00
#rwgt            1           1   2.7718356408320523E-002           3      200418           0
</event>
<event>
      5   9999  3.19816E-02  6.34189E+01 -1.00000E+00  1.33430E-01
      21    -1     0     0   502   501  0.000000000E+00  0.000000000E+00  7.922514157E+01  7.922514157E+01  0.000000000E+00  0.00000E+00  9.000E+00
      21    -1     0     0   511   502  0.000000000E+00  0.000000000E+00 -1.294845758E+03  1.294845758E+03  0.000000000E+00  0.00000E+00  9.000E+00
      25     1     1     2     0     0 -1.551751408E+02  4.771023982E+01 -8.693866810E+02  8.932042278E+02  1.250000000E+02  0.00000E+00  9.000E+00
      25     1     1     2     0     0  9.357551368E+01 -3.262909427E+01 -3.509872037E+01  1.633338750E+02  1.250000000E+02  0.00000E+00  9.000E+00
      21     1     1     2   511   501  6.159962714E+01 -1.508114556E+01 -3.111352147E+02  3.175327965E+02  3.814697266E-06  0.00000E+00  9.000E+00
#rwgt            1           1   3.1025339367449483E-002           3      200611           0
</event>
<event>
      5   9999  3.19816E-02  4.31759E+01 -1.00000E+00  1.42812E-01
      21    -1     0     0   502   501  0.000000000E+00  0.000000000E+00  9.093116022E+02  9.093116022E+02  0.000000000E+00  0.00000E+00  9.000E+00
      21    -1     0     0   501   512  0.000000000E+00  0.000000000E+00 -4.781477385E+02  4.781477385E+02  0.000000000E+00  0.00000E+00  9.000E+00
      25     1     1     2     0     0 -3.126572907E+02  1.810053629E+02  2.267330644E+02  4.444664277E+02  1.250000000E+02  0.00000E+00  9.000E+00
      25     1     1     2     0     0  3.524492350E+02 -1.642496103E+02  4.992449026E+02  6.450340072E+02  1.250000000E+02  0.00000E+00  9.000E+00
      21     1     1     2   502   512 -3.979194426E+01 -1.675575258E+01 -2.948141032E+02  2.979589058E+02  5.394796609E-06  0.00000E+00  9.000E+00
#rwgt            1           1   2.8695852820022457E-002           3      200692           0
</event>
<event>
      5   9999  3.19816E-02  8.89999E+01 -1.00000E+00  1.26148E-01
      21    -1     0     0   511   501  0.000000000E+00  0.000000000E+00  1.597609560E+03  1.597609560E+03  0.000000000E+00  0.00000E+00  9.000E+00
      21    -1     0     0   501   502  0.000000000E+00  0.000000000E+00 -2.325231379E+03  2.325231379E+03  0.000000000E+00  0.00000E+00  9.000E+00
      25     1     1     2     0     0 -7.692973172E+02  1.556262264E+03  2.720306850E+02  1.761645904E+03  1.250000000E+02  0.00000E+00  9.000E+00
      25     1     1     2     0     0  7.597810783E+02 -1.644751894E+03 -9.979082985E+02  2.072178094E+03  1.250000000E+02  0.00000E+00  9.000E+00
      21     1     1     2   511   502  9.516238877E+00  8.848963074E+01 -1.744205781E+00  8.901694111E+01  1.384605763E-06  0.00000E+00  9.000E+00
#rwgt            1           1   1.9835423838459706E-002           3      200787           0
</event>
<event>
      5   9999  3.19816E-02  4.03887E+01 -1.00000E+00  1.44580E-01
      21    -1     0     0   502   512  0.000000000E+00  0.000000000E+00  4.013770402E+02  4.013770402E+02  0.000000000E+00  0.00000E+00  9.000E+00
      21    -1     0     0   501   502  0.000000000E+00  0.000000000E+00 -2.608362880E+02  2.608362880E+02  0.000000000E+00  0.00000E+00  9.000E+00
      25     1     1     2     0     0 -1.385190535E+01  3.927596144E+01  8.304663647E+01  1.557440858E+02  1.250000000E+02  0.00000E+00  9.000E+00
      25     1     1     2     0     0 -2.563810621E+01 -3.080342133E+01 -2.036118492E+02  2.422580203E+02  1.250000000E+02  0.00000E+00  9.000E+00
      21     1     1     2   501   512  3.949001155E+01 -8.472540114E+00  2.611059649E+02  2.642112221E+02  0.000000000E+00  0.00000E+00  9.000E+00
#rwgt            1           1   2.6130299336281179E-002           3      200903           0
</event>
<event>
      5   9999  3.19816E-02  2.38630E+01 -1.00000E+00  1.60280E-01
      21    -1     0     0   511   501  0.000000000E+00  0.000000000E+00  7.344156310E+01  7.344156310E+01  0.000000000E+00  0.00000E+00  9.000E+00
      21    -1     0     0   501   502  0.000000000E+00  0.000000000E+00 -5.996404478E+02  5.996404478E+02  0.000000000E+00  0.00000E+00  9.000E+00
      25     1     1     2     0     0 -3.636564430E+01  3.430802464E+01 -2.005102588E+01  1.361122488E+02  1.250000000E+02  0.00000E+00  9.000E+00
      25     1     1     2     0     0  5.082530779E+01 -1.532484375E+01 -4.892009877E+02  5.077013582E+02  1.250000000E+02  0.00000E+00  9.000E+00
      21     1     1     2   511   502 -1.445966349E+01 -1.898318088E+01 -1.694687108E+01  2.926840386E+01  2.384185791E-07  0.00000E+00  9.000E+00
#rwgt            1           1   2.7502730281494137E-002           3      200963           0
</event>
<event>
      5   9999  3.19816E-02  5.00140E+01 -1.00000E+00  1.39069E-01
       1    -1     0     0   502     0  0.000000000E+00  0.000000000E+00  1.418426712E+03  1.418426712E+03  0.000000000E+00  0.00000E+00  9.000E+00
      21    -1     0     0   501   502  0.000000000E+00  0.000000000E+00 -8.448147785E+01  8.448147785E+01  0.000000000E+00  0.00000E+00  9.000E+00
      25     1     1     2     0     0 -4.456208031E+01 -3.305333042E+01  3.461952488E+02  3.722290316E+02  1.250000000E+02  0.00000E+00  9.000E+00
      25     1     1     2     0     0  5.943152775E+01 -1.469917822E+01 -2.457667907E+00  1.392092399E+02  1.250000000E+02  0.00000E+00  9.000E+00
       1     1     1     2   501     0 -1.486944743E+01  4.775250864E+01  9.902076534E+02  9.914699186E+02  1.525878906E-05  0.00000E+00  9.000E+00
#rwgt            1           1   3.1627676887334331E-002           3      201121           0
</event>
<event>
      5   9999  3.19816E-02  1.85278E+01 -1.00000E+00  1.69156E-01
       1    -1     0     0   502     0  0.000000000E+00  0.000000000E+00  1.153568795E+03  1.153568795E+03  0.000000000E+00  0.00000E+00  9.000E+00
      21    -1     0     0   501   502  0.000000000E+00  0.000000000E+00 -2.230180434E+02  2.230180434E+02  0.000000000E+00  0.00000E+00  9.000E+00
      25     1     1     2     0     0 -8.478384794E+01 -1.595998110E+02  4.002562433E+02  4.566075567E+02  1.250000000E+02  0.00000E+00  9.000E+00
      25     1     1     2     0     0  8.939982900E+01  1.775433444E+02 -1.239154088E+02  2.655070566E+02  1.250000000E+02  0.00000E+00  9.000E+00
       1     1     1     2   501     0 -4.615981057E+00 -1.794353338E+01  6.542099175E+02  6.544722254E+02  1.321449896E-05  0.00000E+00  9.000E+00
#rwgt            1           1   3.1436994842637206E-002           3      201191           0
</event>
<event>
      5   9999  3.19816E-02  3.11568E+01 -1.00000E+00  1.51907E-01
      21    -1     0     0   502   501  0.000000000E+00  0.000000000E+00  1.201792373E+02  1.201792373E+02  0.000000000E+00  0.00000E+00  9.000E+00
       2    -1     0     0   501     0  0.000000000E+00  0.000000000E+00 -2.292350260E+03  2.292350260E+03  0.000000000E+00  0.00000E+00  9.000E+00
      25     1     1     2     0     0  1.138777586E+02 -1.294530558E+02 -9.188196523E+01  2.319343293E+02  1.250000000E+02  0.00000E+00  9.000E+00
      25     1     1     2     0     0 -1.315406350E+02  1.551195007E+02 -2.348056000E+02  3.348487240E+02  1.250000000E+02  0.00000E+00  9.000E+00
       2     1     1     2   502     0  1.766287641E+01 -2.566644488E+01 -1.845483458E+03  1.845746444E+03  2.157918644E-05  0.00000E+00  9.000E+00
#rwgt            1           1   2.9001944683828364E-002           3      201358           0
</event>
<event>
      5   9999  3.19816E-02  4.41737E+01 -1.00000E+00  1.42217E-01
      21    -1     0     0   511   501  0.000000000E+00  0.000000000E+00  1.111408091E+02  1.111408091E+02  0.000000000E+00  0.00000E+00  9.000E+00
      21    -1     0     0   501   502  0.000000000E+00  0.000000000E+00 -2.479519270E+03  2.479519270E+03  0.000000000E+00  0.00000E+00  9.000E+00
      25     1     1     2     0     0  5.572146157E+01 -1.143105297E+01 -1.126541247E+02  1.776274249E+02  1.250000000E+02  0.00000E+00  9.000E+00
      25     1     1     2     0     0 -1.953579348E+01 -1.390494822E+01 -2.326296349E+03  2.329775676E+03  1.250000000E+02  0.00000E+00  9.000E+00
      21     1     1     2   511   502 -3.618566809E+01  2.533600119E+01  7.057201278E+01  8.325697880E+01  6.180515955E-06  0.00000E+00  9.000E+00
#rwgt            1           1   5.9066257285767261E-002           3      201505           0
</event>
<event>
      5   9999  3.19816E-02  6.82246E+01 -1.00000E+00  1.31788E-01
      21    -1     0     0   512   501  0.000000000E+00  0.000000000E+00  3.892086846E+02  3.892086846E+02  0.000000000E+00  0.00000E+00  9.000E+00
      21    -1     0     0   501   502  0.000000000E+00  0.000000000E+00 -4.177032692E+02  4.177032692E+02  0.000000000E+00  0.00000E+00  9.000E+00
      25     1     1     2     0     0  1.076806284E+02  2.150509905E+02  1.831971275E+02  3.271516985E+02  1.250000000E+02  0.00000E+00  9.000E+00
      25     1     1     2     0     0 -1.359393495E+02 -2.771480702E+02 -2.350672041E+02  4.076421838E+02  1.250000000E+02  0.00000E+00  9.000E+00
      21     1     1     2   512   502  2.825872102E+01  6.209707963E+01  2.337549207E+01  7.211807153E+01  1.305872339E-06  0.00000E+00  9.000E+00
#rwgt            1           1   2.9774139580027056E-002           3      201614           0
</event>
<event>
      5   9999  3.19816E-02  2.52299E+01 -1.00000E+00  1.58454E-01
      21    -1     0     0   511   501  0.000000000E+00  0.000000000E+00  2.844256995E+02  2.844256995E+02  0.000000000E+00  0.00000E+00  9.000E+00
      21    -1     0     0   501   502  0.000000000E+00  0.000000000E+00 -5.965790257E+02  5.965790257E+02  0.000000000E+00  0.00000E+00  9.000E+00
      25     1     1     2     0     0  1.877434094E+02 -2.138604501E+02  3.215242052E+01  3.124782521E+02  1.250000000E+02  0.00000E+00  9.000E+00
      25     1     1     2     0     0 -1.975676161E+02  2.370991061E+02 -3.921442842E+02  5.144425028E+02  1.250000000E+02  0.00000E+00  9.000E+00
      21     1     1     2   511   502  9.824206737E+00 -2.323865600E+01  4.783853747E+01  5.408397025E+01  9.536743164E-07  0.00000E+00  9.000E+00
#rwgt            1           1   3.0984627652389182E-002           3      201716           0
</event>
<event>
      5   9999  3.19816E-02  2.34039E+02 -1.00000E+00  1.09218E-01
      21    -1     0     0   502   501  0.000000000E+00  0.000000000E+00  8.743408566E+02  8.743408566E+02  0.000000000E+00  0.00000E+00  9.000E+00
       2    -1     0     0   501     0  0.000000000E+00  0.000000000E+00 -1.563546550E+03  1.563546550E+03  0.000000000E+00  0.00000E+00  9.000E+00
      25     1     1     2     0     0  1.199010475E+02 -9.976854294E+02  3.892463321E+01  1.013357096E+03  1.250000000E+02  0.00000E+00  9.000E+00
      25     1     1     2     0     0  4.574310494E+01  8.323481637E+02 -2.293465321E+02  8.735678159E+02  1.250000000E+02  0.00000E+00  9.000E+00
       2     1     1     2   502     0 -1.656441525E+02  1.653372657E+02 -4.987837946E+02  5.509624945E+02  0.000000000E+00  0.00000E+00  9.000E+00
#rwgt            1           1   3.1619535287172158E-002           3      202015           0
</event>
<event>
      5   9999  3.19816E-02  8.01545E+01 -1.00000E+00  1.28309E-01
      21    -1     0     0   511   501  0.000000000E+00  0.000000000E+00  5.218144945E+02  5.218144945E+02  0.000000000E+00  0.00000E+00  9.000E+00
      21    -1     0     0   501   502  0.000000000E+00  0.000000000E+00 -4.058960586E+02  4.058960586E+02  0.000000000E+00  0.00000E+00  9.000E+00
      25     1     1     2     0     0  3.089630664E+02 -1.471238092E+01 -2.542372694E+02  4.194475172E+02  1.250000000E+02  0.00000E+00  9.000E+00
      25     1     1     2     0     0 -2.313807754E+02 -5.430506302E+00  2.439325643E+02  3.587403651E+02  1.250000000E+02  0.00000E+00  9.000E+00
      21     1     1     2   511   502 -7.758229101E+01  2.014288723E+01  1.262231409E+02  1.495226708E+02  1.907348633E-06  0.00000E+00  9.000E+00
#rwgt            1           1   2.8609995461827291E-002           3      202095           0
</event>
<event>
      5   9999  3.19816E-02  2.72164E+01 -1.00000E+00  1.56036E-01
       3    -1     0     0   502     0  0.000000000E+00  0.000000000E+00  1.748324134E+03  1.748324134E+03  0.000000000E+00  0.00000E+00  9.000E+00
      21    -1     0     0   501   502  0.000000000E+00  0.000000000E+00 -2.029851713E+03  2.029851713E+03  0.000000000E+00  0.00000E+00  9.000E+00
      25     1     1     2     0     0 -4.095832073E+02  4.074398329E+02 -1.737737267E+03  1.835516666E+03  1.250000000E+02  0.00000E+00  9.000E+00
      25     1     1     2     0     0  3.863300308E+02 -4.215827564E+02  1.092634466E+02  5.954380018E+02  1.250000000E+02  0.00000E+00  9.000E+00
       3     1     1     2   501     0  2.325317653E+01  1.414292353E+01  1.346946241E+03  1.347221180E+03  1.525878906E-05  0.00000E+00  9.000E+00
#rwgt            1           1   2.0777535037488939E-002           3      202189           0
</event>
<event>
      5   9999  3.19816E-02  1.90418E+02 -1.00000E+00  1.12430E-01
       1    -1     0     0   502     0  0.000000000E+00  0.000000000E+00  1.951892697E+03  1.951892697E+03  0.000000000E+00  0.00000E+00  9.000E+00
      21    -1     0     0   501   502  0.000000000E+00  0.000000000E+00 -9.064064188E+01  9.064064188E+01  0.000000000E+00  0.00000E+00  9.000E+00
      25     1     1     2     0     0 -5.655164819E+00 -1.251649909E+02  3.108682891E+02  3.577182536E+02  1.250000000E+02  0.00000E+00  9.000E+00
      25     1     1     2     0     0 -1.357426920E+02  2.527021647E+02  3.502306659E+02  4.696498502E+02  1.250000000E+02  0.00000E+00  9.000E+00
       1     1     1     2   501     0  1.413978568E+02 -1.275371738E+02  1.200153100E+03  1.215165235E+03  1.525878906E-05  0.00000E+00  9.000E+00
#rwgt            1           1   2.7076837389504626E-002           3      202376           0
</event>
<event>
      5   9999  3.19816E-02  1.62438E+02 -1.00000E+00  1.15039E-01
      21    -1     0     0   511   501  0.000000000E+00  0.000000000E+00  1.367814746E+03  1.367814746E+03  0.000000000E+00  0.00000E+00  9.000E+00
      21    -1     0     0   501   502  0.000000000E+00  0.000000000E+00 -8.309047440E+02  8.309047440E+02  0.000000000E+00  0.00000E+00  9.000E+00
      25     1     1     2     0     0 -6.410959603E+02  5.348118870E+01  7.996475832E+02  1.033888546E+03  1.250000000E+02  0.00000E+00  9.000E+00
      25     1     1     2     0     0  6.222779989E+02 -2.148258875E+02 -5.284606867E+02  8.533907472E+02  1.250000000E+02  0.00000E+00  9.000E+00
      21     1     1     2   511   502  1.881796132E+01  1.613446989E+02  2.657231054E+02  3.114401969E+02  0.000000000E+00  0.00000E+00  9.000E+00
#rwgt            1           1   3.2088646573425757E-002           3      202441           0
</event>
<event>
      5   9999  3.19816E-02  8.27884E+01 -1.00000E+00  1.27633E-01
       2    -1     0     0   502     0  0.000000000E+00  0.000000000E+00  2.078328732E+03  2.078328732E+03  0.000000000E+00  0.00000E+00  9.000E+00
      21    -1     0     0   501   502  0.000000000E+00  0.000000000E+00 -1.686211398E+02  1.686211398E+02  0.000000000E+00  0.00000E+00  9.000E+00
      25     1     1     2     0     0 -5.044665162E+02 -1.676399994E+02  6.202575078E+02  8.263982160E+02  1.250000000E+02  0.00000E+00  9.000E+00
      25     1     1     2     0     0  4.418870067E+02  2.218408516E+02  1.052496153E+03  1.169551470E+03  1.250000000E+02  0.00000E+00  9.000E+00
       2     1     1     2   501     0  6.257950952E+01 -5.420085219E+01  2.369539317E+02  2.510001855E+02  2.697398305E-06  0.00000E+00  9.000E+00
#rwgt            2          18   6.2473382831123084E-004           3      202526           0
</event>
<event>
      5   9999  3.19816E-02  3.03283E+01 -1.00000E+00  1.52712E-01
      21    -1     0     0   511   501  0.000000000E+00  0.000000000E+00  1.226699857E+03  1.226699857E+03  0.000000000E+00  0.00000E+00  9.000E+00
      21    -1     0     0   501   502  0.000000000E+00  0.000000000E+00 -1.685855645E+02  1.685855645E+02  0.000000000E+00  0.00000E+00  9.000E+00
      25     1     1     2     0     0  1.843159644E+02  1.758012379E+02  6.656860751E+00  2.838093793E+02  1.250000000E+02  0.00000E+00  9.000E+00
      25     1     1     2     0     0 -1.798176184E+02 -1.458084182E+02  5.561573671E+02  6.152483139E+02  1.250000000E+02  0.00000E+00  9.000E+00
      21     1     1     2   511   502 -4.498346027E+00 -2.999281973E+01  4.953000645E+02  4.962277282E+02  5.394796609E-06  0.00000E+00  9.000E+00
#rwgt            1           1   2.9876732565543868E-002           3      202575           0
</event>
<event>
      5   9999  3.19816E-02  2.51614E+01 -1.00000E+00  1.58542E-01
      21    -1     0     0   512   501  0.000000000E+00  0.000000000E+00  4.321320954E+01  4.321320954E+01  0.000000000E+00  0.00000E+00  9.000E+00
      21    -1     0     0   501   502  0.000000000E+00  0.000000000E+00 -1.550761145E+03  1.550761145E+03  0.000000000E+00  0.00000E+00  9.000E+00
      25     1     1     2     0     0  5.680819428E+01  1.172515345E+01 -1.604244648E+02  2.114844180E+02  1.250000000E+02  0.00000E+00  9.000E+00
      25     1     1     2     0     0 -5.066536710E+01  1.267489592E+01 -1.350344650E+03  1.357123172E+03  1.250000000E+02  0.00000E+00  9.000E+00
      21     1     1     2   512   502 -6.142827187E+00 -2.440004937E+01  3.221178796E+00  2.536676424E+01  9.300998768E-07  0.00000E+00  9.000E+00
#rwgt            1           1   2.6126802792886754E-002           3      202713           0
</event>
<event>
      5   9999  3.19816E-02  2.92546E+02 -1.00000E+00  1.05948E-01
      21    -1     0     0   502   511  0.000000000E+00  0.000000000E+00  5.424547254E+02  5.424547254E+02  0.000000000E+00  0.00000E+00  9.000E+00
      21    -1     0     0   501   502  0.000000000E+00  0.000000000E+00 -5.584894410E+02  5.584894410E+02  0.000000000E+00  0.00000E+00  9.000E+00
      25     1     1     2     0     0  6.830102559E-01  2.020122276E+02 -7.442310503E+01  2.489441808E+02  1.250000000E+02  0.00000E+00  9.000E+00
      25     1     1     2     0     0 -6.494836471E+01 -4.874117900E+02 -1.032659875E+02  5.177619214E+02  1.250000000E+02  0.00000E+00  9.000E+00
      21     1     1     2   501   511  6.426535445E+01  2.853995624E+02  1.616543769E+02  3.342380642E+02  5.394796609E-06  0.00000E+00  9.000E+00
#rwgt            1           1   2.8247810058171827E-002           3      202794           0
</event>
<event>
      5   9999  3.19816E-02  1.28575E+01 -1.00000E+00  1.83931E-01
      21    -1     0     0   502   512  0.000000000E+00  0.000000000E+00  3.337979495E+02  3.337979495E+02  0.000000000E+00  0.00000E+00  9.000E+00
      21    -1     0     0   501   502  0.000000000E+00  0.000000000E+00 -8.069308779E+01  8.069308779E+01  0.000000000E+00  0.00000E+00  9.000E+00
      25     1     1     2     0     0  1.629205881E+01 -7.260712849E+01  5.171428175E+01  1.543910400E+02  1.250000000E+02  0.00000E+00  9.000E+00
      25     1     1     2     0     0 -4.164196450E+00  7.687681529E+01  1.618083302E+02  2.184818551E+02  1.250000000E+02  0.00000E+00  9.000E+00
      21     1     1     2   501   512 -1.212786236E+01 -4.269686791E+00  3.958224973E+01  4.161814225E+01  6.743495762E-07  0.00000E+00  9.000E+00
#rwgt            1           1   5.1341272181996106E-002           3      202844           0
</event>
<event>
      5   9999  3.19816E-02  3.71365E+02 -1.00000E+00  1.02666E-01
      21    -1     0     0   502   501  0.000000000E+00  0.000000000E+00  4.170443213E+02  4.170443213E+02  0.000000000E+00  0.00000E+00  9.000E+00
      21    -1     0     0   511   502  0.000000000E+00  0.000000000E+00 -5.436680970E+02  5.436680970E+02  0.000000000E+00  0.00000E+00  9.000E+00
      25     1     1     2     0     0  1.474742388E+02 -3.094271181E+02 -1.674184092E+02  4.014320817E+02  1.250000000E+02  0.00000E+00  9.000E+00
      25     1     1     2     0     0  5.192191602E+01 -3.866898322E+00  1.184231414E+02  1.798885174E+02  1.250000000E+02  0.00000E+00  9.000E+00
      21     1     1     2   511   501 -1.993961548E+02  3.132940164E+02 -7.762850782E+01  3.793918192E+02  5.642013343E-06  0.00000E+00  9.000E+00
#rwgt            2          11   3.5568789546878469E-003           3      202941           0
</event>
<event>
      5   9999  3.32913E-02  8.08103E+01 -1.00000E+00  1.28138E-01
      21    -1     0     0   512   501  0.000000000E+00  0.000000000E+00  2.156422528E+02  2.156422528E+02  0.000000000E+00  0.00000E+00  9.000E+00
      21    -1     0     0   501   502  0.000000000E+00  0.000000000E+00 -5.631104587E+02  5.631104587E+02  0.000000000E+00  0.00000E+00  9.000E+00
      25     1     1     2     0     0 -2.189544626E+02  1.303179138E+02 -2.465745990E+02  3.759625623E+02  1.250000000E+02  0.00000E+00  9.000E+00
      25     1     1     2     0     0  2.057169605E+02 -5.059916085E+01 -1.678965457E+02  2.978153673E+02  1.250000000E+02  0.00000E+00  9.000E+00
      21     1     1     2   512   502  1.323750212E+01 -7.971875290E+01  6.700293887E+01  1.049747819E+02  9.536743164E-07  0.00000E+00  9.000E+00
#rwgt            1           1   3.1240548221027939E-002           3      202961           0
</event>
<event>
      5   9999  3.19816E-02  2.21819E+01 -1.00000E+00  1.62742E-01
      21    -1     0     0   502   501  0.000000000E+00  0.000000000E+00  6.446487557E+01  6.446487557E+01  0.000000000E+00  0.00000E+00  9.000E+00
      21    -1     0     0   501   511  0.000000000E+00  0.000000000E+00 -1.126834533E+03  1.126834533E+03  0.000000000E+00  0.00000E+00  9.000E+00
      25     1     1     2     0     0  8.603014041E+00  1.964969703E+02 -2.760155255E+02  3.612404206E+02  1.250000000E+02  0.00000E+00  9.000E+00
      25     1     1     2     0     0 -1.661987115E+01 -1.758144431E+02 -5.259772827E+02  5.687389915E+02  1.250000000E+02  0.00000E+00  9.000E+00
      21     1     1     2   502   511  8.016857112E+00 -2.068252714E+01 -2.603768494E+02  2.613199966E+02  3.814697266E-06  0.00000E+00  9.000E+00
#rwgt            1           1   2.9765847202088608E-002           3      203026           0
</event>
<event>
      5   9999  3.19816E-02  1.57978E+01 -1.00000E+00  1.75289E-01
      21    -1     0     0   502   501  0.000000000E+00  0.000000000E+00  9.102913177E+01  9.102913177E+01  0.000000000E+00  0.00000E+00  9.000E+00
      21    -1     0     0   512   502  0.000000000E+00  0.000000000E+00 -6.631190874E+02  6.631190874E+02  0.000000000E+00  0.00000E+00  9.000E+00
      25     1     1     2     0     0 -1.114523704E+02 -1.678355023E+02 -2.437734526E+02  3.400601166E+02  1.250000000E+02  0.00000E+00  9.000E+00
      25     1     1     2     0     0  9.682462719E+01  1.618690359E+02 -2.632638191E+02  3.471446840E+02  1.250000000E+02  0.00000E+00  9.000E+00
      21     1     1     2   512   501  1.462774323E+01  5.966466372E+00 -6.505268401E+01  6.694341857E+01  1.348699152E-06  0.00000E+00  9.000E+00
#rwgt            1           1   2.6506917855481520E-002           3      203158           0
</event>
<event>
      5   9999  3.19816E-02  2.32790E+01 -1.00000E+00  1.61106E-01
      21    -1     0     0   502   511  0.000000000E+00  0.000000000E+00  1.389470107E+02  1.389470107E+02  0.000000000E+00  0.00000E+00  9.000E+00
      21    -1     0     0   501   502  0.000000000E+00  0.000000000E+00 -2.436178156E+03  2.436178156E+03  0.000000000E+00  0.00000E+00  9.000E+00
      25     1     1     2     0     0 -2.035641416E+02  3.610779190E+02 -8.832531159E+02  9.836547616E+02  1.250000000E+02  0.00000E+00  9.000E+00
      25     1     1     2     0     0  1.809983255E+02 -3.667960164E+02 -1.469919741E+03  1.530878426E+03  1.250000000E+02  0.00000E+00  9.000E+00
      21     1     1     2   501   511  2.256581604E+01  5.718097392E+00  5.594171203E+01  6.059197832E+01  1.907348633E-06  0.00000E+00  9.000E+00
#rwgt            1           1   6.9939224046868365E-002           3      203270           0
</event>
<event>
      5   9999  3.19816E-02  1.35666E+01 -1.00000E+00  1.81594E-01
      21    -1     0     0   502   501  0.000000000E+00  0.000000000E+00  2.687574409E+02  2.687574409E+02  0.000000000E+00  0.00000E+00  9.000E+00
      21    -1     0     0   501   512  0.000000000E+00  0.000000000E+00 -1.170161603E+02  1.170161603E+02  0.000000000E+00  0.00000E+00  9.000E+00
      25     1     1     2     0     0  9.790622140E+01 -2.240450121E+01  1.217448271E+02  2.013315494E+02  1.250000000E+02  0.00000E+00  9.000E+00
      25     1     1     2     0     0 -9.976586666E+01  8.965950774E+00  4.278439785E+01  1.657984352E+02  1.250000000E+02  0.00000E+00  9.000E+00
      21     1     1     2   502   512  1.859645260E+00  1.343855044E+01 -1.278794433E+01  1.864361656E+01  1.685873940E-07  0.00000E+00  9.000E+00
#rwgt            1           1   3.1756863940741308E-002           3      203426           0
</event>
<event>
      5   9999  3.19816E-02  4.62029E+01 -1.00000E+00  1.41061E-01
      21    -1     0     0   502   501  0.000000000E+00  0.000000000E+00  2.432492741E+02  2.432492741E+02  0.000000000E+00  0.00000E+00  9.000E+00
      21    -1     0     0   501   511  0.000000000E+00  0.000000000E+00 -1.184590173E+03  1.184590173E+03  0.000000000E+00  0.00000E+00  9.000E+00
      25     1     1     2     0     0 -1.814217304E+02 -1.921307263E+01 -9.285228537E+01  2.398531495E+02  1.250000000E+02  0.00000E+00  9.000E+00
      25     1     1     2     0     0  1.978781637E+02  6.238592714E+01  8.247216367E+01  2.558797166E+02  1.250000000E+02  0.00000E+00  9.000E+00
      21     1     1     2   502   511 -1.645643330E+01 -4.317285451E+01 -9.309607772E+02  9.321065810E+02  1.078959322E-05  0.00000E+00  9.000E+00
#rwgt            1           1   2.8466640083602151E-002           3      203630           0
</event>
<event>
      5   9999  3.19816E-02  4.22687E+01 -1.00000E+00  1.43370E-01
      21    -1     0     0   502   501  0.000000000E+00  0.000000000E+00  3.359276866E+02  3.359276866E+02  0.000000000E+00  0.00000E+00  9.000E+00
      21    -1     0     0   501   512  0.000000000E+00  0.000000000E+00 -1.435375048E+02  1.435375048E+02  0.000000000E+00  0.00000E+00  9.000E+00
      25     1     1     2     0     0 -3.961309822E+01  2.051452368E+01 -3.932082515E+01  1.384238799E+02  1.250000000E+02  0.00000E+00  9.000E+00
      25     1     1     2     0     0  6.038423032E+01  1.629856522E+01  2.564482298E+02  2.920660765E+02  1.250000000E+02  0.00000E+00  9.000E+00
      21     1     1     2   502   512 -2.077113210E+01 -3.681308890E+01 -2.473722287E+01  4.897523495E+01  1.011524364E-06  0.00000E+00  9.000E+00
#rwgt            1           1   2.9983058086503124E-002           3      203698           0
</event>
<event>
      5   9999  3.19816E-02  2.69979E+01 -1.00000E+00  1.56290E-01
      21    -1     0     0   502   501  0.000000000E+00  0.000000000E+00  3.052910890E+02  3.052910890E+02  0.000000000E+00  0.00000E+00  9.000E+00
      21    -1     0     0   501   511  0.000000000E+00  0.000000000E+00 -6.026581793E+02  6.026581793E+02  0.000000000E+00  0.00000E+00  9.000E+00
      25     1     1     2     0     0  2.363451072E+02 -2.778118144E+02  4.090696151E-01  3.855691653E+02  1.250000000E+02  0.00000E+00  9.000E+00
      25     1     1     2     0     0 -2.156004777E+02  2.950902758E+02 -2.302782754E+02  4.496831340E+02  1.250000000E+02  0.00000E+00  9.000E+00
      21     1     1     2   502   511 -2.074462948E+01 -1.727846142E+01 -6.749788455E+01  7.269696898E+01  9.536743164E-07  0.00000E+00  9.000E+00
#rwgt            1           1   2.9546591738247030E-002           3      203754           0
</event>
<event>
      5   9999  3.19816E-02  1.00640E+02 -1.00000E+00  1.23703E-01
      21    -1     0     0   502   501  0.000000000E+00  0.000000000E+00  8.281712003E+01  8.281712003E+01  0.000000000E+00  0.00000E+00  9.000E+00
       2    -1     0     0   501     0  0.000000000E+00  0.000000000E+00 -2.728202214E+03  2.728202214E+03  0.000000000E+00  0.00000E+00  9.000E+00
      25     1     1     2     0     0  1.880682666E+02  1.243443380E+02 -5.393824781E+02  5.978207465E+02  1.250000000E+02  0.00000E+00  9.000E+00
      25     1     1     2     0     0 -2.874903696E+02 -1.087338939E+02 -4.768155740E+02  5.809060715E+02  1.250000000E+02  0.00000E+00  9.000E+00
       2     1     1     2   502     0  9.942210300E+01 -1.561044400E+01 -1.629187041E+03  1.632292516E+03  2.157918644E-05  0.00000E+00  9.000E+00
#rwgt            1           1   3.1327577469744142E-002           3      203938           0
</event>
<event>
      5   9999  3.19816E-02  3.77942E+01 -1.00000E+00  1.46385E-01
      21    -1     0     0   511   501  0.000000000E+00  0.000000000E+00  1.161708321E+03  1.161708321E+03  0.000000000E+00  0.00000E+00  9.000E+00
      21    -1     0     0   501   502  0.000000000E+00  0.000000000E+00 -5.291422315E+02  5.291422315E+02  0.000000000E+00  0.00000E+00  9.000E+00
      25     1     1     2     0     0 -2.564678434E+02  6.350509960E+02  6.199650455E+02  9.322270002E+02  1.250000000E+02  0.00000E+00  9.000E+00
      25     1     1     2     0     0  2.311072633E+02 -6.630732275E+02 -1.234273005E+01  7.133400418E+02  1.250000000E+02  0.00000E+00  9.000E+00
      21     1     1     2   511   502  2.536058002E+01  2.802223155E+01  2.494377449E+01  4.528351097E+01  3.371747881E-07  0.00000E+00  9.000E+00
#rwgt            1           1   2.9896290933582585E-002           3      204028           0
</event>
<event>
      5   9999  3.19816E-02  5.12848E+01 -1.00000E+00  1.38450E-01
      21    -1     0     0   502   501  0.000000000E+00  0.000000000E+00  4.491694732E+02  4.491694732E+02  0.000000000E+00  0.00000E+00  9.000E+00
      21    -1     0     0   501   512  0.000000000E+00  0.000000000E+00 -6.994818459E+02  6.994818459E+02  0.000000000E+00  0.00000E+00  9.000E+00
      25     1     1     2     0     0 -2.281904236E+02 -8.092393469E+01 -5.533607274E+02  6.168084365E+02  1.250000000E+02  0.00000E+00  9.000E+00
      25     1     1     2     0     0  2.259077097E+02  1.321579533E+02  3.552830369E+02  4.586404411E+02  1.250000000E+02  0.00000E+00  9.000E+00
      21     1     1     2   502   512  2.282713973E+00 -5.123401858E+01 -5.223468210E+01  7.320244161E+01  0.000000000E+00  0.00000E+00  9.000E+00
#rwgt            1           1   2.3750060200795949E-002           3      204205           0
</event>
<event>
      5   9999  3.19816E-02  3.05993E+02 -1.00000E+00  1.05314E-01
      21    -1     0     0   511   501  0.000000000E+00  0.000000000E+00  6.784574673E+02  6.784574673E+02  0.000000000E+00  0.00000E+00  9.000E+00
      21    -1     0     0   501   502  0.000000000E+00  0.000000000E+00 -3.055438993E+03  3.055438993E+03  0.000000000E+00  0.00000E+00  9.000E+00
      25     1     1     2     0     0  5.608691792E+02  2.485529033E+02 -1.029793824E+03  1.205177623E+03  1.250000000E+02  0.00000E+00  9.000E+00
      25     1     1     2     0     0 -6.293152434E+02  4.968695563E+01 -1.839635457E+03  1.948945891E+03  1.250000000E+02  0.00000E+00  9.000E+00
      21     1     1     2   511   502  6.844606420E+01 -2.982398590E+02  4.924477561E+02  5.797729466E+02  1.427329020E-05  0.00000E+00  9.000E+00
#rwgt            2          11   1.7217609054775429E-002           3      204527           0
</event>
<event>
      5   9999  3.19816E-02  2.98417E+02 -1.00000E+00  1.05667E-01
       2    -1     0     0   502     0  0.000000000E+00  0.000000000E+00  1.482209678E+03  1.482209678E+03  0.000000000E+00  0.00000E+00  9.000E+00
      21    -1     0     0   501   502  0.000000000E+00  0.000000000E+00 -4.559534000E+02  4.559534000E+02  0.000000000E+00  0.00000E+00  9.000E+00
      25     1     1     2     0     0 -4.439520506E+02  1.745297749E+02  7.950837072E+02  9.355945527E+02  1.250000000E+02  0.00000E+00  9.000E+00
      25     1     1     2     0     0  1.544237267E+02 -2.468228903E+02 -2.719831214E+02  4.175739993E+02  1.250000000E+02  0.00000E+00  9.000E+00
       2     1     1     2   501     0  2.895283239E+02  7.229311542E+01  5.031556927E+02  5.849945265E+02  7.629394531E-06  0.00000E+00  9.000E+00
#rwgt            2          18   1.1566145574816429E-003           3      204592           0
</event>
<event>
      5   9999  3.19816E-02  1.83962E+01 -1.00000E+00  1.69421E-01
      21    -1     0     0   511   501  0.000000000E+00  0.000000000E+00  3.532906365E+02  3.532906365E+02  0.000000000E+00  0.00000E+00  9.000E+00
      21    -1     0     0   501   502  0.000000000E+00  0.000000000E+00 -8.438665670E+02  8.438665670E+02  0.000000000E+00  0.00000E+00  9.000E+00
      25     1     1     2     0     0  1.773666916E+02 -2.948725853E+02 -5.379772056E+02  6.507328627E+02  1.250000000E+02  0.00000E+00  9.000E+00
      25     1     1     2     0     0 -1.614569972E+02  3.041085066E+02 -1.142702340E+02  3.837095674E+02  1.250000000E+02  0.00000E+00  9.000E+00
      21     1     1     2   511   502 -1.590969435E+01 -9.235921351E+00  1.616715091E+02  1.627147734E+02  0.000000000E+00  0.00000E+00  9.000E+00
#rwgt            1           1   2.9119384262602181E-002           3      204701           0
</event>
<event>
      5   9999  3.19816E-02  5.93281E+01 -1.00000E+00  1.34965E-01
      21    -1     0     0   512   501  0.000000000E+00  0.000000000E+00  2.544463057E+02  2.544463057E+02  0.000000000E+00  0.00000E+00  9.000E+00
      21    -1     0     0   501   502  0.000000000E+00  0.000000000E+00 -4.637155589E+02  4.637155589E+02  0.000000000E+00  0.00000E+00  9.000E+00
      25     1     1     2     0     0 -1.788700770E+01  2.234525930E+02 -3.109868823E+02  4.032230739E+02  1.250000000E+02  0.00000E+00  9.000E+00
      25     1     1     2     0     0 -3.613234116E+01 -1.989222221E+02  7.069138803E+01  2.479876385E+02  1.250000000E+02  0.00000E+00  9.000E+00
      21     1     1     2   512   502  5.401934886E+01 -2.453037092E+01  3.102624100E+01  6.695115219E+01  1.430511475E-06  0.00000E+00  9.000E+00
#rwgt            1           1   3.0110474480350237E-002           3      204912           0
</event>
<event>
      5   9999  3.19816E-02  1.29870E+02 -1.00000E+00  1.18929E-01
      21    -1     0     0   502   501  0.000000000E+00  0.000000000E+00  1.732253593E+02  1.732253593E+02  0.000000000E+00  0.00000E+00  9.000E+00
      21    -1     0     0   501   511  0.000000000E+00  0.000000000E+00 -3.098182360E+03  3.098182360E+03  0.000000000E+00  0.00000E+00  9.000E+00
      25     1     1     2     0     0  2.478257305E+02 -3.135042064E+02 -2.560343502E+02  4.907963617E+02  1.250000000E+02  0.00000E+00  9.000E+00
      25     1     1     2     0     0 -3.773891801E+02  3.045837191E+02 -1.127459973E+03  1.233687491E+03  1.250000000E+02  0.00000E+00  9.000E+00
      21     1     1     2   502   511  1.295634496E+02  8.920487251E+00 -1.541462677E+03  1.546923866E+03  3.737624730E-05  0.00000E+00  9.000E+00
#rwgt            1           1   3.2965534406117346E-002           3      205001           0
</event>
<event>
      5   9999  3.19816E-02  2.59676E+02 -1.00000E+00  1.07670E-01
       1    -1     0     0   502     0  0.000000000E+00  0.000000000E+00  1.711668957E+03  1.711668957E+03  0.000000000E+00  0.00000E+00  9.000E+00
      21    -1     0     0   501   502  0.000000000E+00  0.000000000E+00 -1.215957407E+02  1.215957407E+02  0.000000000E+00  0.00000E+00  9.000E+00
      25     1     1     2     0     0  2.189742368E+02  4.117172777E+01  2.524142617E+02  3.591417367E+02  1.250000000E+02  0.00000E+00  9.000E+00
      25     1     1     2     0     0 -1.615955885E+02 -2.944296418E+02  8.239959075E+02  8.985522822E+02  1.250000000E+02  0.00000E+00  9.000E+00
       1     1     1     2   501     0 -5.737864834E+01  2.532579140E+02  5.136630468E+02  5.755706785E+02  0.000000000E+00  0.00000E+00  9.000E+00
#rwgt            2          17   4.4234260116186549E-004           3      205151           0
</event>
<event>
      5   9999  3.19816E-02  1.53537E+01 -1.00000E+00  1.76435E-01
      21    -1     0     0   502   501  0.000000000E+00  0.000000000E+00  4.073945350E+02  4.073945350E+02  0.000000000E+00  0.00000E+00  9.000E+00
      21    -1     0     0   511   502  0.000000000E+00  0.000000000E+00 -4.551368692E+02  4.551368692E+02  0.000000000E+00  0.00000E+00  9.000E+00
      25     1     1     2     0     0 -3.245413595E+02  3.516081968E+01  1.933832770E+02  3.994815003E+02  1.250000000E+02  0.00000E+00  9.000E+00
      25     1     1     2     0     0  3.392000575E+02 -3.059363869E+01 -1.897265969E+02  4.094066821E+02  1.250000000E+02  0.00000E+00  9.000E+00
      21     1     1     2   511   501 -1.465869798E+01 -4.567180995E+00 -5.139901430E+01  5.364322175E+01  6.743495762E-07  0.00000E+00  9.000E+00
#rwgt            1           1   2.9027541747094210E-002           3      205215           0
</event>
<event>
      5   9999  3.19816E-02  1.50016E+01 -1.00000E+00  1.77379E-01
      21    -1     0     0   502   512  0.000000000E+00  0.000000000E+00  4.687262553E+02  4.687262553E+02  0.000000000E+00  0.00000E+00  9.000E+00
      21    -1     0     0   501   502  0.000000000E+00  0.000000000E+00 -2.868944505E+02  2.868944505E+02  0.000000000E+00  0.00000E+00  9.000E+00
      25     1     1     2     0     0  2.834805154E+02 -1.537153322E+02  1.429014310E+02  3.742130743E+02  1.250000000E+02  0.00000E+00  9.000E+00
      25     1     1     2     0     0 -2.978769345E+02  1.579331920E+02  2.421802278E+01  3.603957184E+02  1.250000000E+02  0.00000E+00  9.000E+00
      21     1     1     2   501   512  1.439641908E+01 -4.217859849E+00  1.471235097E+01  2.101191317E+01  0.000000000E+00  0.00000E+00  9.000E+00
#rwgt            1           1   2.8434861471381610E-002           3      205497           0
</event>
<event>
      5   9999  3.19816E-02  1.88406E+02 -1.00000E+00  1.12600E-01
      21    -1     0     0   502   501  0.000000000E+00  0.000000000E+00  2.430991514E+02  2.430991514E+02  0.000000000E+00  0.00000E+00  9.000E+00
       2    -1     0     0   501     0  0.000000000E+00  0.000000000E+00 -7.209571960E+02  7.209571960E+02  0.000000000E+00  0.00000E+00  9.000E+00
      25     1     1     2     0     0  8.011676981E+00 -1.060453179E+02  1.278947281E+02  2.080669553E+02  1.250000000E+02  0.00000E+00  9.000E+00
      25     1     1     2     0     0  1.307453762E+02 -2.140402454E+01 -8.270593853E+01  2.000443899E+02  1.250000000E+02  0.00000E+00  9.000E+00
       2     1     1     2   502     0 -1.387570532E+02  1.274493424E+02 -5.230468342E+02  5.559450022E+02  7.629394531E-06  0.00000E+00  9.000E+00
#rwgt            1           1   3.0807248125963315E-002           3      205755           0
</event>
<event>
      5   9999  3.19816E-02  1.60886E+02 -1.00000E+00  1.15200E-01
       1    -1     0     0   502     0  0.000000000E+00  0.000000000E+00  1.221033184E+03  1.221033184E+03  0.000000000E+00  0.00000E+00  9.000E+00
      21    -1     0     0   501   502  0.000000000E+00  0.000000000E+00 -5.081623804E+02  5.081623804E+02  0.000000000E+00  0.00000E+00  9.000E+00
      25     1     1     2     0     0 -2.251569012E+02  4.800937828E+01 -2.172686320E+02  3.403398140E+02  1.250000000E+02  0.00000E+00  9.000E+00
      25     1     1     2     0     0  2.701650401E+02 -2.024719248E+02 -7.766130258E+01  3.682937783E+02  1.250000000E+02  0.00000E+00  9.000E+00
       1     1     1     2   501     0 -4.500813896E+01  1.544625465E+02  1.007800739E+03  1.020561972E+03  1.078959322E-05  0.00000E+00  9.000E+00
#rwgt            1           1   3.2730608853727500E-002           3      205887           0
</event>
<event>
      5   9999  3.19816E-02  1.04875E+02 -1.00000E+00  1.22905E-01
      21    -1     0     0   502   501  0.000000000E+00  0.000000000E+00  1.018430300E+03  1.018430300E+03  0.000000000E+00  0.00000E+00  9.000E+00
       1    -1     0     0   501     0  0.000000000E+00  0.000000000E+00 -1.321278044E+03  1.321278044E+03  0.000000000E+00  0.00000E+00  9.000E+00
      25     1     1     2     0     0  1.749716832E+01 -4.937569858E+02  3.552182893E+02  6.212142504E+02  1.250000000E+02  0.00000E+00  9.000E+00
      25     1     1     2     0     0 -1.179529921E+02  4.636355762E+02  4.118082373E+02  6.434919426E+02  1.250000000E+02  0.00000E+00  9.000E+00
       1     1     1     2   502     0  1.004558238E+02  3.012140955E+01 -1.069874270E+03  1.075002152E+03  0.000000000E+00  0.00000E+00  9.000E+00
#rwgt            1           1   3.0083131787418997E-002           3      205920           0
</event>
<event>
      5   9999  3.19816E-02  5.90911E+01 -1.00000E+00  1.35059E-01
      21    -1     0     0   502   511  0.000000000E+00  0.000000000E+00  3.583905901E+02  3.583905901E+02  0.000000000E+00  0.00000E+00  9.000E+00
      21    -1     0     0   501   502  0.000000000E+00  0.000000000E+00 -6.383756656E+02  6.383756656E+02  0.000000000E+00  0.00000E+00  9.000E+00
      25     1     1     2     0     0  3.287196883E+02  1.054007431E+02 -4.119642693E+02  5.518201785E+02  1.250000000E+02  0.00000E+00  9.000E+00
      25     1     1     2     0     0 -3.404855558E+02 -4.749288302E+01  1.154118517E+02  3.835764372E+02  1.250000000E+02  0.00000E+00  9.000E+00
      21     1     1     2   501   511  1.176586750E+01 -5.790786008E+01  1.656734215E+01  6.136964007E+01  7.907449699E-07  0.00000E+00  9.000E+00
#rwgt            1           1   2.9472665519095543E-002           3      206075           0
</event>
<event>
      5   9999  3.19816E-02  1.79258E+01 -1.00000E+00  1.70391E-01
      21    -1     0     0   512   501  0.000000000E+00  0.000000000E+00  5.132040584E+02  5.132040584E+02  0.000000000E+00  0.00000E+00  9.000E+00
      21    -1     0     0   501   502  0.000000000E+00  0.000000000E+00 -4.685769717E+02  4.685769717E+02  0.000000000E+00  0.00000E+00  9.000E+00
      25     1     1     2     0     0 -2.743782702E+02  4.599278409E+01 -3.429927642E+02  4.589856290E+02  1.250000000E+02  0.00000E+00  9.000E+00
      25     1     1     2     0     0  2.737885880E+02 -2.807672015E+01  2.746717662E+02  4.084336817E+02  1.250000000E+02  0.00000E+00  9.000E+00
      21     1     1     2   512   502  5.896821222E-01 -1.791606394E+01  1.129480846E+02  1.143617195E+02  0.000000000E+00  0.00000E+00  9.000E+00
#rwgt            1           1   3.0665245777658976E-002           3      206179           0
</event>
<event>
      5   9999  3.19816E-02  2.35515E+01 -1.00000E+00  1.60717E-01
      21    -1     0     0   502   501  0.000000000E+00  0.000000000E+00  1.027077505E+03  1.027077505E+03  0.000000000E+00  0.00000E+00  9.000E+00
      21    -1     0     0   511   502  0.000000000E+00  0.000000000E+00 -4.347181933E+01  4.347181933E+01  0.000000000E+00  0.00000E+00  9.000E+00
      25     1     1     2     0     0  1.004005828E+01  1.198011857E+02  6.524613349E+02  6.751177085E+02  1.250000000E+02  0.00000E+00  9.000E+00
      25     1     1     2     0     0 -2.527505049E+00 -1.421223900E+02  3.126507356E+02  3.654868595E+02  1.250000000E+02  0.00000E+00  9.000E+00
      21     1     1     2   511   501 -7.512553230E+00  2.232120433E+01  1.849361496E+01  2.994475602E+01  5.331201500E-07  0.00000E+00  9.000E+00
#rwgt            1           1   3.3755898872526752E-002           3      206360           0
</event>
<event>
      5   9999  3.19816E-02  5.34885E+01 -1.00000E+00  1.37425E-01
      21    -1     0     0   512   501  0.000000000E+00  0.000000000E+00  4.704836062E+02  4.704836062E+02  0.000000000E+00  0.00000E+00  9.000E+00
      21    -1     0     0   501   502  0.000000000E+00  0.000000000E+00 -8.466553142E+02  8.466553142E+02  0.000000000E+00  0.00000E+00  9.000E+00
      25     1     1     2     0     0  2.736596250E+02  4.837958069E+02 -2.556835370E+02  6.244573998E+02  1.250000000E+02  0.00000E+00  9.000E+00
      25     1     1     2     0     0 -2.865338861E+02 -5.357118688E+02 -1.398012693E+02  6.358130772E+02  1.250000000E+02  0.00000E+00  9.000E+00
      21     1     1     2   512   502  1.287426114E+01  5.191606187E+01  1.931309828E+01  5.686844332E+01  1.092571186E-06  0.00000E+00  9.000E+00
#rwgt            1           1   2.9660407361161569E-002           3      206438           0
</event>
<event>
      5   9999  3.19816E-02  8.84981E+00 -1.00000E+00  2.02098E-01
      21    -1     0     0   502   511  0.000000000E+00  0.000000000E+00  8.598699042E+02  8.598699042E+02  0.000000000E+00  0.00000E+00  9.000E+00
      21    -1     0     0   501   502  0.000000000E+00  0.000000000E+00 -1.320971909E+02  1.320971909E+02  0.000000000E+00  0.00000E+00  9.000E+00
      25     1     1     2     0     0  3.375461278E+01  1.315136400E+02 -4.445306312E+01  1.898322581E+02  1.250000000E+02  0.00000E+00  9.000E+00
      25     1     1     2     0     0 -3.915944659E+01 -1.385212746E+02  5.973567707E+02  6.270420379E+02  1.250000000E+02  0.00000E+00  9.000E+00
      21     1     1     2   501   511  5.404833815E+00  7.007634644E+00  1.748690056E+02  1.750927991E+02  1.907348633E-06  0.00000E+00  9.000E+00
#rwgt            1           1   2.9418980990875657E-002           3      206582           0
</event>
<event>
      5   9999  3.19816E-02  3.05926E+01 -1.00000E+00  1.52452E-01
      21    -1     0     0   502   501  0.000000000E+00  0.000000000E+00  2.258704068E+02  2.258704068E+02  0.000000000E+00  0.00000E+00  9.000E+00
       1    -1     0     0   501     0  0.000000000E+00  0.000000000E+00 -1.147314116E+03  1.147314116E+03  0.000000000E+00  0.00000E+00  9.000E+00
      25     1     1     2     0     0  7.550735085E+01  2.729907501E+01  1.527734685E+02  2.130993482E+02  1.250000000E+02  0.00000E+00  9.000E+00
      25     1     1     2     0     0 -7.275748405E+01  3.169659793E+00 -7.983817967E+01  1.652356897E+02  1.250000000E+02  0.00000E+00  9.000E+00
       1     1     1     2   502     0 -2.749866798E+00 -3.046873481E+01 -9.943789977E+02  9.948494844E+02  1.525878906E-05  0.00000E+00  9.000E+00
#rwgt            1           1   2.5338798564625883E-002           3      206893           0
</event>
<event>
      5   9999  3.19816E-02  1.20608E+02 -1.00000E+00  1.20275E-01
      21    -1     0     0   502   501  0.000000000E+00  0.000000000E+00  7.215555004E+02  7.215555004E+02  0.000000000E+00  0.00000E+00  9.000E+00
      21    -1     0     0   501   511  0.000000000E+00  0.000000000E+00 -2.325105183E+02  2.325105183E+02  0.000000000E+00  0.00000E+00  9.000E+00
      25     1     1     2     0     0  1.198559697E+02  1.752812299E+02  3.150653398E+02  3.999751635E+02  1.250000000E+02  0.00000E+00  9.000E+00
      25     1     1     2     0     0 -8.557178127E+01 -5.964919411E+01  3.234003494E+02  3.620681456E+02  1.250000000E+02  0.00000E+00  9.000E+00
      21     1     1     2   502   511 -3.428418840E+01 -1.156320358E+02 -1.494207071E+02  1.920227095E+02  4.264961200E-06  0.00000E+00  9.000E+00
#rwgt            1           1   2.7888499239578785E-002           3      207008           0
</event>
<event>
      5   9999  3.19816E-02  1.10192E+02 -1.00000E+00  1.21961E-01
      21    -1     0     0   512   501  0.000000000E+00  0.000000000E+00  5.568405309E+02  5.568405309E+02  0.000000000E+00  0.00000E+00  9.000E+00
      21    -1     0     0   501   502  0.000000000E+00  0.000000000E+00 -7.061422569E+02  7.061422569E+02  0.000000000E+00  0.00000E+00  9.000E+00
      25     1     1     2     0     0  4.140129751E+02  4.005877074E+01  1.087997723E+02  4.477430503E+02  1.250000000E+02  0.00000E+00  9.000E+00
      25     1     1     2     0     0 -3.039610648E+02 -3.450788527E+01 -4.710856566E+02  5.754388055E+02  1.250000000E+02  0.00000E+00  9.000E+00
      21     1     1     2   512   502 -1.100519102E+02 -5.550885474E+00  2.129841584E+02  2.398009320E+02  2.697398305E-06  0.00000E+00  9.000E+00
#rwgt            1           1   2.7917270694958616E-002           3      207077           0
</event>
<event>
      5   9999  3.19816E-02  1.59151E+02 -1.00000E+00  1.15383E-01
      21    -1     0     0   502   511  0.000000000E+00  0.000000000E+00  2.734869027E+02  2.734869027E+02  0.000000000E+00  0.00000E+00  9.000E+00
      21    -1     0     0   501   502  0.000000000E+00  0.000000000E+00 -5.179753287E+02  5.179753287E+02  0.000000000E+00  0.00000E+00  9.000E+00
      25     1     1     2     0     0  2.178447693E+02 -1.046636988E+02  2.391519758E+01  2.731442294E+02  1.250000000E+02  0.00000E+00  9.000E+00
      25     1     1     2     0     0 -6.351897179E+01  6.577071542E+01 -3.162453972E+02  3.521315067E+02  1.250000000E+02  0.00000E+00  9.000E+00
      21     1     1     2   501   511 -1.543257975E+02  3.889298340E+01  4.784177359E+01  1.661864954E+02  2.132480600E-06  0.00000E+00  9.000E+00
#rwgt            1           1   2.7070298912444449E-002           3      207179           0
</event>
<event>
      5   9999  3.19816E-02  8.76859E+01 -1.00000E+00  1.26450E-01
      21    -1     0     0   502   501  0.000000000E+00  0.000000000E+00  3.176168375E+02  3.176168375E+02  0.000000000E+00  0.00000E+00  9.000E+00
      21    -1     0     0   501   512  0.000000000E+00  0.000000000E+00 -2.540753827E+02  2.540753827E+02  0.000000000E+00  0.00000E+00  9.000E+00
      25     1     1     2     0     0 -9.828796807E+01 -1.247201416E+02  1.276363162E+02  2.390223161E+02  1.250000000E+02  0.00000E+00  9.000E+00
      25     1     1     2     0     0  2.883210083E+01  1.782429496E+02  7.099823007E+00  2.197208379E+02  1.250000000E+02  0.00000E+00  9.000E+00
      21     1     1     2   502   512  6.945586723E+01 -5.352280798E+01 -7.119468447E+01  1.129490662E+02  1.651812370E-06  0.00000E+00  9.000E+00
#rwgt            1           1   2.8398170461281989E-002           3      207219           0
</event>
<event>
      5   9999  3.19816E-02  3.39785E+01 -1.00000E+00  1.49376E-01
      21    -1     0     0   511   501  0.000000000E+00  0.000000000E+00  3.141058259E+02  3.141058259E+02  0.000000000E+00  0.00000E+00  9.000E+00
      21    -1     0     0   501   502  0.000000000E+00  0.000000000E+00 -2.809679690E+02  2.809679690E+02  0.000000000E+00  0.00000E+00  9.000E+00
      25     1     1     2     0     0 -2.127395368E+02 -5.301193985E+01 -7.986945588E+01  2.647121196E+02  1.250000000E+02  0.00000E+00  9.000E+00
      25     1     1     2     0     0  2.422831749E+02  3.622760592E+01  1.101517388E+02  2.962633656E+02  1.250000000E+02  0.00000E+00  9.000E+00
      21     1     1     2   511   502 -2.954363806E+01  1.678433393E+01  2.855574050E+00  3.409830961E+01  6.237164002E-07  0.00000E+00  9.000E+00
#rwgt            1           1   2.9054085764014290E-002           3      207306           0
</event>
<event>
      5   9999  3.19816E-02  8.92324E+02 -1.00000E+00  9.21948E-02
       2    -1     0     0   502     0  0.000000000E+00  0.000000000E+00  1.155862815E+03  1.155862815E+03  0.000000000E+00  0.00000E+00  9.000E+00
      21    -1     0     0   501   502  0.000000000E+00  0.000000000E+00 -1.436189395E+03  1.436189395E+03  0.000000000E+00  0.00000E+00  9.000E+00
      25     1     1     2     0     0 -2.689300879E+02  2.247325302E+02 -5.690722756E+02  6.799237878E+02  1.250000000E+02  0.00000E+00  9.000E+00
      25     1     1     2     0     0 -5.687229475E+02 -5.322717871E+02 -2.989523088E+02  8.436566419E+02  1.250000000E+02  0.00000E+00  9.000E+00
       2     1     1     2   501     0  8.376530355E+02  3.075392569E+02  5.876980044E+02  1.068471781E+03  1.321449896E-05  0.00000E+00  9.000E+00
#rwgt            2          18   8.1381254089767465E-004           3      207435           0
</event>
<event>
      5   9999  3.19816E-02  3.06263E+01 -1.00000E+00  1.52419E-01
      21    -1     0     0   511   501  0.000000000E+00  0.000000000E+00  5.333469352E+02  5.333469352E+02  0.000000000E+00  0.00000E+00  9.000E+00
      21    -1     0     0   501   502  0.000000000E+00  0.000000000E+00 -1.859362483E+02  1.859362483E+02  0.000000000E+00  0.00000E+00  9.000E+00
      25     1     1     2     0     0  1.542645581E+02  1.297614884E+01  3.880454680E+02  4.360851058E+02  1.250000000E+02  0.00000E+00  9.000E+00
      25     1     1     2     0     0 -1.796449137E+02  4.164620785E+00 -8.023576861E+01  2.331360497E+02  1.250000000E+02  0.00000E+00  9.000E+00
      21     1     1     2   511   502  2.538035565E+01 -1.714076963E+01  3.960098749E+01  5.006202800E+01  4.768371582E-07  0.00000E+00  9.000E+00
#rwgt            1           1   2.8208409347982161E-002           3      207454           0
</event>
<event>
      5   9999  3.19816E-02  1.59542E+01 -1.00000E+00  1.74897E-01
      21    -1     0     0   502   512  0.000000000E+00  0.000000000E+00  2.483440231E+03  2.483440231E+03  0.000000000E+00  0.00000E+00  9.000E+00
      21    -1     0     0   501   502  0.000000000E+00  0.000000000E+00 -7.145709718E+01  7.145709718E+01  0.000000000E+00  0.00000E+00  9.000E+00
      25     1     1     2     0     0  9.853154572E+01 -2.264130925E+01  4.879992457E+02  5.137989473E+02  1.250000000E+02  0.00000E+00  9.000E+00
      25     1     1     2     0     0 -1.115939448E+02  3.180150816E+01  6.574242693E+01  1.827884327E+02  1.250000000E+02  0.00000E+00  9.000E+00
      21     1     1     2   501   512  1.306239910E+01 -9.160198905E+00  1.858241461E+03  1.858309948E+03  3.051757812E-05  0.00000E+00  9.000E+00
#rwgt            1           1   3.0480564362345648E-002           3      207547           0
</event>
<event>
      5   9999  3.19816E-02  4.15316E+01 -1.00000E+00  1.43835E-01
      21    -1     0     0   502   501  0.000000000E+00  0.000000000E+00  2.304157538E+02  2.304157538E+02  0.000000000E+00  0.00000E+00  9.000E+00
      21    -1     0     0   501   511  0.000000000E+00  0.000000000E+00 -5.155412237E+02  5.155412237E+02  0.000000000E+00  0.00000E+00  9.000E+00
      25     1     1     2     0     0  7.067730264E+01 -2.567193682E+02 -2.861492641E+02  4.103736303E+02  1.250000000E+02  0.00000E+00  9.000E+00
      25     1     1     2     0     0 -1.078348530E+02  2.381669366E+02  1.882309494E+01  2.903982681E+02  1.250000000E+02  0.00000E+00  9.000E+00
      21     1     1     2   502   511  3.715755039E+01  1.855243153E+01 -1.779930074E+01  4.518507910E+01  9.830249847E-07  0.00000E+00  9.000E+00
#rwgt            1           1   2.8455831743700730E-002           3      207654           0
</event>
<event>
      5   9999  3.19816E-02  2.21993E+01 -1.00000E+00  1.62715E-01
      21    -1     0     0   502   512  0.000000000E+00  0.000000000E+00  6.127501059E+01  6.127501059E+01  0.000000000E+00  0.00000E+00  9.000E+00
      21    -1     0     0   501   502  0.000000000E+00  0.000000000E+00 -1.028136484E+03  1.028136484E+03  0.000000000E+00  0.00000E+00  9.000E+00
      25     1     1     2     0     0  4.953914700E+01  4.480846759E+01 -8.967175978E+02  9.078487627E+02  1.250000000E+02  0.00000E+00  9.000E+00
      25     1     1     2     0     0 -5.690543180E+01 -2.386696341E+01 -4.174739129E+01  1.455187438E+02  1.250000000E+02  0.00000E+00  9.000E+00
      21     1     1     2   501   512  7.366284800E+00 -2.094150419E+01 -2.839648414E+01  3.604398786E+01  3.371747881E-07  0.00000E+00  9.000E+00
#rwgt            1           1   3.1207781376742395E-002           3      207779           0
</event>
<event>
      5   9999  3.19816E-02  3.72632E+02 -1.00000E+00  1.02620E-01
      21    -1     0     0   511   501  0.000000000E+00  0.000000000E+00  4.130619833E+02  4.130619833E+02  0.000000000E+00  0.00000E+00  9.000E+00
      21    -1     0     0   501   502  0.000000000E+00  0.000000000E+00 -8.277795858E+02  8.277795858E+02  0.000000000E+00  0.00000E+00  9.000E+00
      25     1     1     2     0     0 -5.195571267E+02  4.142805965E+01 -2.893827700E+02  6.091168029E+02  1.250000000E+02  0.00000E+00  9.000E+00
      25     1     1     2     0     0  1.517555020E+02 -1.012329746E+02 -1.347747724E+02  2.589731392E+02  1.250000000E+02  0.00000E+00  9.000E+00
      21     1     1     2   511   502  3.678016247E+02  5.980491496E+01  9.439939884E+00  3.727516270E+02  2.992129421E-06  0.00000E+00  9.000E+00
#rwgt            2          11   3.1101868237650514E-003           3      207988           0
</event>
<event>
      5   9999  3.19816E-02  5.01979E+01 -1.00000E+00  1.38978E-01
      21    -1     0     0   502   501  0.000000000E+00  0.000000000E+00  7.288310431E+02  7.288310431E+02  0.000000000E+00  0.00000E+00  9.000E+00
       4    -1     0     0   501     0  0.000000000E+00  0.000000000E+00 -5.066031007E+02  5.066031007E+02  0.000000000E+00  0.00000E+00  9.000E+00
      25     1     1     2     0     0 -1.397461654E+02  2.618825450E+02  1.097758261E+02  3.402751682E+02  1.250000000E+02  0.00000E+00  9.000E+00
      25     1     1     2     0     0  9.352021381E+01 -2.814527824E+02  4.503594332E+02  5.535434203E+02  1.250000000E+02  0.00000E+00  9.000E+00
       4     1     1     2   502     0  4.622595158E+01  1.957023739E+01 -3.379073170E+02  3.416155553E+02  3.814697266E-06  0.00000E+00  9.000E+00
#rwgt            1           1   2.8782402455355072E-002           3      208023           0
</event>
<event>
      5   9999  3.19816E-02  1.91866E+02 -1.00000E+00  1.12308E-01
      21    -1     0     0   502   501  0.000000000E+00  0.000000000E+00  2.880607321E+02  2.880607321E+02  0.000000000E+00  0.00000E+00  9.000E+00
      21    -1     0     0   501   511  0.000000000E+00  0.000000000E+00 -1.244743537E+03  1.244743537E+03  0.000000000E+00  0.00000E+00  9.000E+00
      25     1     1     2     0     0 -3.517672263E+01  2.319696207E+01  1.894013031E+02  2.308102131E+02  1.250000000E+02  0.00000E+00  9.000E+00
      25     1     1     2     0     0  1.037717730E+02  1.559884316E+02 -1.143858044E+02  2.526065793E+02  1.250000000E+02  0.00000E+00  9.000E+00
      21     1     1     2   502   511 -6.859505041E+01 -1.791853937E+02 -1.031698304E+03  1.049387477E+03  1.525878906E-05  0.00000E+00  9.000E+00
#rwgt            1           1   2.4726755336305382E-002           3      208133           0
</event>
<event>
      5   9999  3.19816E-02  2.18125E+02 -1.00000E+00  1.10293E-01
      21    -1     0     0   502   501  0.000000000E+00  0.000000000E+00  1.465484929E+03  1.465484929E+03  0.000000000E+00  0.00000E+00  9.000E+00
      21    -1     0     0   512   502  0.000000000E+00  0.000000000E+00 -8.047830632E+02  8.047830632E+02  0.000000000E+00  0.00000E+00  9.000E+00
      25     1     1     2     0     0  6.462464440E+02 -6.891727976E+02  3.349931467E+02  1.010167818E+03  1.250000000E+02  0.00000E+00  9.000E+00
      25     1     1     2     0     0 -8.159107322E+02  5.520869615E+02  3.146283219E+02  1.041693965E+03  1.250000000E+02  0.00000E+00  9.000E+00
      21     1     1     2   512   501  1.696642882E+02  1.370858361E+02  1.108039707E+01  2.184062095E+02  3.720399507E-06  0.00000E+00  9.000E+00
#rwgt            1           1   2.2419046963472286E-002           3      208165           0
</event>
<event>
      5   9999  3.19816E-02  6.89524E+01 -1.00000E+00  1.31553E-01
      21    -1     0     0   511   501  0.000000000E+00  0.000000000E+00  8.825531569E+02  8.825531569E+02  0.000000000E+00  0.00000E+00  9.000E+00
      21    -1     0     0   501   502  0.000000000E+00  0.000000000E+00 -6.093426879E+02  6.093426879E+02  0.000000000E+00  0.00000E+00  9.000E+00
      25     1     1     2     0     0  3.116002463E+01 -2.320048657E+02 -5.361149113E+02  5.981984645E+02  1.250000000E+02  0.00000E+00  9.000E+00
      25     1     1     2     0     0  3.549651783E+01  2.496494898E+02  4.731853138E+02  5.505580911E+02  1.250000000E+02  0.00000E+00  9.000E+00
      21     1     1     2   511   502 -6.665654246E+01 -1.764462411E+01  3.361400665E+02  3.431392891E+02  5.394796609E-06  0.00000E+00  9.000E+00
#rwgt            1           1   2.4750382363672316E-002           3      208213           0
</event>
<event>
      5   9999  3.19816E-02  4.32930E+02 -1.00000E+00  1.00662E-01
      21    -1     0     0   502   501  0.000000000E+00  0.000000000E+00  9.295801508E+02  9.295801508E+02  0.000000000E+00  0.00000E+00  9.000E+00
       2    -1     0     0   501     0  0.000000000E+00  0.000000000E+00 -1.064758310E+03  1.064758310E+03  0.000000000E+00  0.00000E+00  9.000E+00
      25     1     1     2     0     0  3.413753968E+02  1.093658546E+02 -5.640228111E+02  6.798858604E+02  1.250000000E+02  0.00000E+00  9.000E+00
      25     1     1     2     0     0 -3.709868455E+02  3.225504098E+02  6.530562720E+02  8.269083993E+02  1.250000000E+02  0.00000E+00  9.000E+00
       2     1     1     2   502     0  2.961144874E+01 -4.319162644E+02 -2.242116200E+02  4.875442009E+02  7.629394531E-06  0.00000E+00  9.000E+00
#rwgt            2          13   6.6540564297865436E-004           3      208487           0
</event>
<event>
      5   9999  3.19816E-02  7.10528E+01 -1.00000E+00  1.30893E-01
      21    -1     0     0   502   501  0.000000000E+00  0.000000000E+00  1.044676568E+03  1.044676568E+03  0.000000000E+00  0.00000E+00  9.000E+00
      21    -1     0     0   501   511  0.000000000E+00  0.000000000E+00 -4.504264389E+02  4.504264389E+02  0.000000000E+00  0.00000E+00  9.000E+00
      25     1     1     2     0     0  2.591694125E+02 -3.932976170E+02  7.126019252E+02  8.632950270E+02  1.250000000E+02  0.00000E+00  9.000E+00
      25     1     1     2     0     0 -2.564441925E+02  3.222970595E+02  6.487694998E+01  4.352850067E+02  1.250000000E+02  0.00000E+00  9.000E+00
      21     1     1     2   502   511 -2.725220015E+00  7.100055753E+01 -1.832287456E+02  1.965229737E+02  5.394796609E-06  0.00000E+00  9.000E+00
#rwgt            1           1   3.5178163461292850E-002           3      208506           0
</event>
<event>
      5   9999  3.19816E-02  1.13914E+02 -1.00000E+00  1.21336E-01
      21    -1     0     0   502   501  0.000000000E+00  0.000000000E+00  1.752550545E+03  1.752550545E+03  0.000000000E+00  0.00000E+00  9.000E+00
      21    -1     0     0   512   502  0.000000000E+00  0.000000000E+00 -4.861381688E+02  4.861381688E+02  0.000000000E+00  0.00000E+00  9.000E+00
      25     1     1     2     0     0 -3.546026775E+02 -6.659207322E+02  1.238097122E+03  1.455232958E+03  1.250000000E+02  0.00000E+00  9.000E+00
      25     1     1     2     0     0  3.518466743E+02  5.520399552E+02  1.649619675E+00  6.664622387E+02  1.250000000E+02  0.00000E+00  9.000E+00
      21     1     1     2   512   501  2.756003231E+00  1.138807770E+02  2.666563522E+01  1.169935170E+02  1.469710828E-06  0.00000E+00  9.000E+00
#rwgt            1           1   2.1412099771523928E-002           3      208630           0
</event>
<event>
      5   9999  3.19816E-02  3.15455E+02 -1.00000E+00  1.04888E-01
       2    -1     0     0   502     0  0.000000000E+00  0.000000000E+00  7.423420882E+02  7.423420882E+02  0.000000000E+00  0.00000E+00  9.000E+00
      21    -1     0     0   501   502  0.000000000E+00  0.000000000E+00 -7.248013464E+02  7.248013464E+02  0.000000000E+00  0.00000E+00  9.000E+00
      25     1     1     2     0     0 -4.604094021E+02 -2.199127640E+02 -4.649143656E+01  5.273754782E+02  1.250000000E+02  0.00000E+00  9.000E+00
      25     1     1     2     0     0  4.163808413E+02 -9.245505608E+01 -2.370213707E+02  5.037112988E+02  1.250000000E+02  0.00000E+00  9.000E+00
       2     1     1     2   501     0  4.402856074E+01  3.123678201E+02  3.010535490E+02  4.360566575E+02  3.814697266E-06  0.00000E+00  9.000E+00
#rwgt            1           1   2.8147439581414743E-002           3      208745           0
</event>
<event>
      5   9999  3.19816E-02  3.73146E+01 -1.00000E+00  1.46737E-01
      21    -1     0     0   511   501  0.000000000E+00  0.000000000E+00  1.043662762E+03  1.043662762E+03  0.000000000E+00  0.00000E+00  9.000E+00
      21    -1     0     0   501   502  0.000000000E+00  0.000000000E+00 -1.136611481E+03  1.136611481E+03  0.000000000E+00  0.00000E+00  9.000E+00
      25     1     1     2     0     0  9.150397399E+02  2.960075750E+02  4.126536113E+02  1.053957406E+03  1.250000000E+02  0.00000E+00  9.000E+00
      25     1     1     2     0     0 -8.797489131E+02 -3.081294584E+02 -5.320711476E+02  1.080567730E+03  1.250000000E+02  0.00000E+00  9.000E+00
      21     1     1     2   511   502 -3.529082684E+01  1.212188336E+01  2.646881751E+01  4.574910727E+01  7.539457465E-07  0.00000E+00  9.000E+00
#rwgt            1           1   3.0407695922443950E-002           3      208784           0
</event>
<event>
      5   9999  3.19816E-02  2.93186E+01 -1.00000E+00  1.53736E-01
      21    -1     0     0   502   512  0.000000000E+00  0.000000000E+00  8.963945162E+01  8.963945162E+01  0.000000000E+00  0.00000E+00  9.000E+00
      21    -1     0     0   501   502  0.000000000E+00  0.000000000E+00 -8.946638089E+02  8.946638089E+02  0.000000000E+00  0.00000E+00  9.000E+00
      25     1     1     2     0     0 -1.125903394E+02  1.801843352E+02 -3.886282615E+02  4.602172365E+02  1.250000000E+02  0.00000E+00  9.000E+00
      25     1     1     2     0     0  1.356373830E+02 -1.983064762E+02 -4.139385853E+02  4.946646445E+02  1.250000000E+02  0.00000E+00  9.000E+00
      21     1     1     2   501   512 -2.304704359E+01  1.812214095E+01 -2.457510495E+00  2.942137945E+01  2.980232239E-08  0.00000E+00  9.000E+00
#rwgt            1           1   3.4488197620912334E-002           3      208974           0
</event>
<event>
      5   9999  3.19816E-02  2.13954E+01 -1.00000E+00  1.63988E-01
       2    -1     0     0   502     0  0.000000000E+00  0.000000000E+00  2.497070958E+03  2.497070958E+03  0.000000000E+00  0.00000E+00  9.000E+00
      21    -1     0     0   501   502  0.000000000E+00  0.000000000E+00 -2.710401018E+02  2.710401018E+02  0.000000000E+00  0.00000E+00  9.000E+00
      25     1     1     2     0     0 -7.261300539E+01  6.317606421E+02  3.203303099E+02  7.229319919E+02  1.250000000E+02  0.00000E+00  9.000E+00
      25     1     1     2     0     0  8.948692260E+01 -6.186063971E+02  1.391666856E+03  1.530700305E+03  1.250000000E+02  0.00000E+00  9.000E+00
       2     1     1     2   501     0 -1.687391722E+01 -1.315424501E+01  5.140336895E+02  5.144787627E+02  0.000000000E+00  0.00000E+00  9.000E+00
#rwgt            1           1   3.7596062852001608E-002           3      209093           0
</event>
<event>
      5   9999  3.19816E-02  6.05034E+02 -1.00000E+00  9.65550E-02
      21    -1     0     0   502   501  0.000000000E+00  0.000000000E+00  2.563656222E+02  2.563656222E+02  0.000000000E+00  0.00000E+00  9.000E+00
       2    -1     0     0   501     0  0.000000000E+00  0.000000000E+00 -3.371616426E+03  3.371616426E+03  0.000000000E+00  0.00000E+00  9.000E+00
      25     1     1     2     0     0  2.235895154E+02 -6.121399971E+01 -8.257878335E+02  8.667698490E+02  1.250000000E+02  0.00000E+00  9.000E+00
      25     1     1     2     0     0 -8.013279865E+02 -1.184659131E+02 -7.653687176E+02  1.121416510E+03  1.250000000E+02  0.00000E+00  9.000E+00
       2     1     1     2   502     0  5.777384710E+02  1.796799128E+02 -1.524094253E+03  1.639795690E+03  0.000000000E+00  0.00000E+00  9.000E+00
#rwgt            2          13   1.1103566024997071E-003           3      209381           0
</event>
<event>
      5   9999  3.19816E-02  1.78179E+01 -1.00000E+00  1.70618E-01
      21    -1     0     0   502   511  0.000000000E+00  0.000000000E+00  1.306607544E+02  1.306607544E+02  0.000000000E+00  0.00000E+00  9.000E+00
      21    -1     0     0   501   502  0.000000000E+00  0.000000000E+00 -2.305546003E+02  2.305546003E+02  0.000000000E+00  0.00000E+00  9.000E+00
      25     1     1     2     0     0  1.421839644E+01  2.001796936E+00  5.954766420E+01  1.392016318E+02  1.250000000E+02  0.00000E+00  9.000E+00
      25     1     1     2     0     0 -3.457235943E+00  1.219943478E+01 -1.608915825E+02  2.041369148E+02  1.250000000E+02  0.00000E+00  9.000E+00
      21     1     1     2   501   511 -1.076116050E+01 -1.420123172E+01  1.450072317E+00  1.787680808E+01  2.995096332E-07  0.00000E+00  9.000E+00
#rwgt            1           1   2.9157064990017415E-002           3      209430           0
</event>
<event>
      5   9999  3.19816E-02  7.64754E+00 -1.00000E+00  2.10262E-01
      21    -1     0     0   512   501  0.000000000E+00  0.000000000E+00  7.525737364E+02  7.525737364E+02  0.000000000E+00  0.00000E+00  9.000E+00
      21    -1     0     0   501   502  0.000000000E+00  0.000000000E+00 -4.095807313E+02  4.095807313E+02  0.000000000E+00  0.00000E+00  9.000E+00
      25     1     1     2     0     0 -8.717144918E+01 -4.341271856E+02  4.869540134E+02  6.699361806E+02  1.250000000E+02  0.00000E+00  9.000E+00
      25     1     1     2     0     0  9.376174832E+01  4.302473803E+02 -1.508154433E+02  4.819485155E+02  1.250000000E+02  0.00000E+00  9.000E+00
      21     1     1     2   512   502 -6.590299146E+00  3.879805347E+00  6.854434907E+00  1.026977168E+01  8.429369702E-08  0.00000E+00  9.000E+00
#rwgt            1           1   2.8893665808394926E-002           3      209582           0
</event>
<event>
      5   9999  3.19816E-02  5.25918E+01 -1.00000E+00  1.37835E-01
      21    -1     0     0   511   501  0.000000000E+00  0.000000000E+00  1.278019996E+03  1.278019996E+03  0.000000000E+00  0.00000E+00  9.000E+00
      21    -1     0     0   501   502  0.000000000E+00  0.000000000E+00 -2.455287658E+03  2.455287658E+03  0.000000000E+00  0.00000E+00  9.000E+00
      25     1     1     2     0     0 -5.746753377E+02 -1.416094273E+03  5.705350670E+01  1.534423291E+03  1.250000000E+02  0.00000E+00  9.000E+00
      25     1     1     2     0     0  5.803144868E+02  1.468382870E+03 -1.344013389E+03  2.077236180E+03  1.250000000E+02  0.00000E+00  9.000E+00
      21     1     1     2   511   502 -5.639149116E+00 -5.228859661E+01  1.096922204E+02  1.216481835E+02  2.697398305E-06  0.00000E+00  9.000E+00
#rwgt            1           1   2.5046281393297128E-002           3      209883           0
</event>
<event>
      5   9999  3.19816E-02  4.11764E+01 -1.00000E+00  1.44064E-01
       2    -1     0     0   502     0  0.000000000E+00  0.000000000E+00  4.455702281E+02  4.455702281E+02  0.000000000E+00  0.00000E+00  9.000E+00
      21    -1     0     0   501   502  0.000000000E+00  0.000000000E+00 -8.816182932E+02  8.816182932E+02  0.000000000E+00  0.00000E+00  9.000E+00
      25     1     1     2     0     0 -4.901642768E+01 -6.304719197E+01 -8.322194904E+02  8.453353410E+02  1.250000000E+02  0.00000E+00  9.000E+00
      25     1     1     2     0     0  4.080117000E+01  2.269866510E+01  6.553025663E+01  1.486579275E+02  1.250000000E+02  0.00000E+00  9.000E+00
       2     1     1     2   501     0  8.215257681E+00  4.034852688E+01  3.306411686E+02  3.331952528E+02  5.394796609E-06  0.00000E+00  9.000E+00
#rwgt            1           1   1.7969581702178040E-002           3      210070           0
</event>
<event>
      5   9999  3.19816E-02  1.61643E+01 -1.00000E+00  1.74379E-01
      21    -1     0     0   511   501  0.000000000E+00  0.000000000E+00  2.716462107E+02  2.716462107E+02  0.000000000E+00  0.00000E+00  9.000E+00
      21    -1     0     0   501   502  0.000000000E+00  0.000000000E+00 -3.550096989E+02  3.550096989E+02  0.000000000E+00  0.00000E+00  9.000E+00
      25     1     1     2     0     0 -2.987020931E+00  1.705147945E+02  1.810191936E+02  2.783472038E+02  1.250000000E+02  0.00000E+00  9.000E+00
      25     1     1     2     0     0  8.363358974E+00 -1.552708084E+02 -2.655001322E+02  3.321058414E+02  1.250000000E+02  0.00000E+00  9.000E+00
      21     1     1     2   511   502 -5.376338042E+00 -1.524398603E+01  1.117450341E+00  1.620286444E+01  2.874031890E-07  0.00000E+00  9.000E+00
#rwgt            1           1   3.0863620812432706E-002           3      210165           0
</event>
<event>
      5   9999  3.19816E-02  9.64358E+01 -1.00000E+00  1.24541E-01
      21    -1     0     0   502   501  0.000000000E+00  0.000000000E+00  1.668924344E+02  1.668924344E+02  0.000000000E+00  0.00000E+00  9.000E+00
      21    -1     0     0   512   502  0.000000000E+00  0.000000000E+00 -1.061670334E+03  1.061670334E+03  0.000000000E+00  0.00000E+00  9.000E+00
      25     1     1     2     0     0 -6.818884396E+01 -9.536198438E+00 -3.282053325E+02  3.578888065E+02  1.250000000E+02  0.00000E+00  9.000E+00
      25     1     1     2     0     0  9.586153231E+01 -8.284389008E+01  9.524712439E+01  2.018651981E+02  1.250000000E+02  0.00000E+00  9.000E+00
      21     1     1     2   512   501 -2.767268836E+01  9.238008852E+01 -6.618196916E+02  6.688087639E+02  1.078959322E-05  0.00000E+00  9.000E+00
#rwgt            1           1   3.0870112683923825E-002           3      210365           0
</event>
<event>
      5   9999  3.19816E-02  3.05747E+01 -1.00000E+00  1.52470E-01
      21    -1     0     0   502   501  0.000000000E+00  0.000000000E+00  2.985848179E+02  2.985848179E+02  0.000000000E+00  0.00000E+00  9.000E+00
      21    -1     0     0   511   502  0.000000000E+00  0.000000000E+00 -5.462591906E+02  5.462591906E+02  0.000000000E+00  0.00000E+00  9.000E+00
      25     1     1     2     0     0 -6.532340559E+01 -3.226766538E+02 -3.031666339E+01  3.534564616E+02  1.250000000E+02  0.00000E+00  9.000E+00
      25     1     1     2     0     0  5.168997002E+01  2.953098973E+02 -5.903074404E+01  3.301354528E+02  1.250000000E+02  0.00000E+00  9.000E+00
      21     1     1     2   511   501  1.363343557E+01  2.736675643E+01 -1.583269652E+02  1.612520940E+02  0.000000000E+00  0.00000E+00  9.000E+00
#rwgt            1           1   2.8871231944996086E-002           3      210433           0
</event>
<event>
      5   9999  3.19816E-02  4.12197E+01 -1.00000E+00  1.44036E-01
      21    -1     0     0   502   501  0.000000000E+00  0.000000000E+00  1.709583214E+02  1.709583214E+02  0.000000000E+00  0.00000E+00  9.000E+00
       2    -1     0     0   501     0  0.000000000E+00  0.000000000E+00 -3.369214007E+03  3.369214007E+03  0.000000000E+00  0.00000E+00  9.000E+00
      25     1     1     2     0     0  5.265570440E+02 -1.325570440E+02 -1.121173542E+03  1.251993930E+03  1.250000000E+02  0.00000E+00  9.000E+00
      25     1     1     2     0     0 -4.955190551E+02  1.596809737E+02 -5.755434957E+02  7.860740823E+02  1.250000000E+02  0.00000E+00  9.000E+00
       2     1     1     2   502     0 -3.103798883E+01 -2.712392974E+01 -1.501538647E+03  1.502104315E+03  2.157918644E-05  0.00000E+00  9.000E+00
#rwgt            1           1   1.7184636852082061E-002           3      210535           0
</event>
<event>
      5   9999  3.19816E-02  3.35944E+01 -1.00000E+00  1.49703E-01
      21    -1     0     0   502   501  0.000000000E+00  0.000000000E+00  1.423270088E+03  1.423270088E+03  0.000000000E+00  0.00000E+00  9.000E+00
      21    -1     0     0   511   502  0.000000000E+00  0.000000000E+00 -1.921233992E+02  1.921233992E+02  0.000000000E+00  0.00000E+00  9.000E+00
      25     1     1     2     0     0  1.333083891E+02  9.626922647E+01  1.039631121E+03  1.059951300E+03  1.250000000E+02  0.00000E+00  9.000E+00
      25     1     1     2     0     0 -1.668697570E+02 -9.477938558E+01  3.362618889E+02  4.068485046E+02  1.250000000E+02  0.00000E+00  9.000E+00
      21     1     1     2   511   501  3.356136798E+01 -1.489840894E+00 -1.447463211E+02  1.485936827E+02  1.907348633E-06  0.00000E+00  9.000E+00
#rwgt            1           1   2.9384113098524178E-002           3      210649           0
</event>
<event>
      5   9999  3.19816E-02  1.69405E+02 -1.00000E+00  1.14337E-01
      21    -1     0     0   502   501  0.000000000E+00  0.000000000E+00  3.267002582E+02  3.267002582E+02  0.000000000E+00  0.00000E+00  9.000E+00
       2    -1     0     0   501     0  0.000000000E+00  0.000000000E+00 -3.933654404E+03  3.933654404E+03  0.000000000E+00  0.00000E+00  9.000E+00
      25     1     1     2     0     0 -2.096910415E+02  7.540846228E+02 -5.038346718E+02  9.391955748E+02  1.250000000E+02  0.00000E+00  9.000E+00
      25     1     1     2     0     0  3.147913030E+02 -8.869453243E+02 -2.110899233E+03  2.314581203E+03  1.250000000E+02  0.00000E+00  9.000E+00
       2     1     1     2   502     0 -1.051002615E+02  1.328607015E+02 -9.922202402E+02  1.006577884E+03  1.868812365E-05  0.00000E+00  9.000E+00
#rwgt            1           1   3.8624820674502888E-002           3      210800           0
</event>
<event>
      5   9999  3.19816E-02  2.46887E+02 -1.00000E+00  1.08417E-01
      21    -1     0     0   502   501  0.000000000E+00  0.000000000E+00  4.827035529E+02  4.827035529E+02  0.000000000E+00  0.00000E+00  9.000E+00
      21    -1     0     0   501   511  0.000000000E+00  0.000000000E+00 -4.524882313E+02  4.524882313E+02  0.000000000E+00  0.00000E+00  9.000E+00
      25     1     1     2     0     0 -1.141338666E+02 -1.116432741E+02  2.867653976E+02  3.512124049E+02  1.250000000E+02  0.00000E+00  9.000E+00
      25     1     1     2     0     0  1.648422446E+02 -1.299798679E+02 -2.516675775E+01  2.456137157E+02  1.250000000E+02  0.00000E+00  9.000E+00
      21     1     1     2   502   511 -5.070837798E+01  2.416231420E+02 -2.313833182E+02  3.383656635E+02  6.031565972E-06  0.00000E+00  9.000E+00
#rwgt            2          11   3.8312447052368660E-003           3      210888           0
</event>
<event>
      5   9999  3.19816E-02  1.89690E+02 -1.00000E+00  1.12491E-01
      21    -1     0     0   512   501  0.000000000E+00  0.000000000E+00  6.837171464E+02  6.837171464E+02  0.000000000E+00  0.00000E+00  9.000E+00
      21    -1     0     0   501   502  0.000000000E+00  0.000000000E+00 -2.608987016E+02  2.608987016E+02  0.000000000E+00  0.00000E+00  9.000E+00
      25     1     1     2     0     0 -1.185872549E+02 -5.763303471E+01  1.788460064E+01  1.825633113E+02  1.250000000E+02  0.00000E+00  9.000E+00
      25     1     1     2     0     0  9.147889684E+01 -1.301098700E+02 -9.782173391E+01  2.247021550E+02  1.250000000E+02  0.00000E+00  9.000E+00
      21     1     1     2   512   502  2.710835802E+01  1.877429047E+02  5.027555781E+02  5.373503817E+02  5.394796609E-06  0.00000E+00  9.000E+00
#rwgt            1           1   3.0452177770343893E-002           3      210908           0
</event>
<event>
      5   9999  3.19816E-02  7.45146E+01 -1.00000E+00  1.29861E-01
      21    -1     0     0   502   511  0.000000000E+00  0.000000000E+00  4.749811765E+02  4.749811765E+02  0.000000000E+00  0.00000E+00  9.000E+00
      21    -1     0     0   501   502  0.000000000E+00  0.000000000E+00 -2.311917048E+02  2.311917048E+02  0.000000000E+00  0.00000E+00  9.000E+00
      25     1     1     2     0     0 -1.682430923E+02  2.434106846E+02  7.939098295E+01  3.308812894E+02  1.250000000E+02  0.00000E+00  9.000E+00
      25     1     1     2     0     0  1.546333828E+02 -1.701494815E+02  1.147601187E+02  2.857572641E+02  1.250000000E+02  0.00000E+00  9.000E+00
      21     1     1     2   501   511  1.360970945E+01 -7.326120312E+01  4.963836999E+01  8.953432777E+01  1.168007728E-06  0.00000E+00  9.000E+00
#rwgt            2          11   2.8018632346629643E-003           3      211124           0
</event>
<event>
      5   9999  3.22557E-02  2.24653E+02 -1.00000E+00  1.09841E-01
       2    -1     0     0   502     0  0.000000000E+00  0.000000000E+00  2.686124112E+03  2.686124112E+03  0.000000000E+00  0.00000E+00  9.000E+00
      21    -1     0     0   501   502  0.000000000E+00  0.000000000E+00 -6.097052651E+01  6.097052651E+01  0.000000000E+00  0.00000E+00  9.000E+00
      25     1     1     2     0     0  9.727500056E+01 -2.179580819E+02  1.421421726E+03  1.446731791E+03  1.250000000E+02  0.00000E+00  9.000E+00
      25     1     1     2     0     0 -2.323156231E+02  3.842235315E+01  6.866962992E+02  7.366299161E+02  1.250000000E+02  0.00000E+00  9.000E+00
       2     1     1     2   501     0  1.350406225E+02  1.795357287E+02  5.170355601E+02  5.637329315E+02  7.629394531E-06  0.00000E+00  9.000E+00
#rwgt            1           1   9.1040116390120093E-002           3      211174           0
</event>
<event>
      5   9999  3.19816E-02  9.50183E+01 -1.00000E+00  1.24834E-01
      21    -1     0     0   502   501  0.000000000E+00  0.000000000E+00  1.544011128E+03  1.544011128E+03  0.000000000E+00  0.00000E+00  9.000E+00
      21    -1     0     0   501   511  0.000000000E+00  0.000000000E+00 -2.230038493E+02  2.230038493E+02  0.000000000E+00  0.00000E+00  9.000E+00
      25     1     1     2     0     0  2.210762260E+02  2.920037644E+01  4.157203571E+02  4.880325553E+02  1.250000000E+02  0.00000E+00  9.000E+00
      25     1     1     2     0     0 -2.535393672E+02 -1.185011399E+02  1.056682220E+03  1.100239539E+03  1.250000000E+02  0.00000E+00  9.000E+00
      21     1     1     2   502   511  3.246314115E+01  8.930076349E+01 -1.513952979E+02  1.787428827E+02  3.814697266E-06  0.00000E+00  9.000E+00
#rwgt            1           1   2.6338928499767458E-002           3      211219           0
</event>
<event>
      5   9999  3.19816E-02  5.95275E+01 -1.00000E+00  1.34887E-01
      21    -1     0     0   502   501  0.000000000E+00  0.000000000E+00  7.970754020E+02  7.970754020E+02  0.000000000E+00  0.00000E+00  9.000E+00
       1    -1     0     0   501     0  0.000000000E+00  0.000000000E+00 -8.455820525E+02  8.455820525E+02  0.000000000E+00  0.00000E+00  9.000E+00
      25     1     1     2     0     0 -2.738687920E+02  2.919460863E+02  3.662513319E+02  5.567779366E+02  1.250000000E+02  0.00000E+00  9.000E+00
      25     1     1     2     0     0  2.175939254E+02 -2.725382609E+02  2.315207735E+02  4.368650691E+02  1.250000000E+02  0.00000E+00  9.000E+00
       1     1     1     2   502     0  5.627486665E+01 -1.940782535E+01 -6.462787560E+02  6.490144488E+02  7.629394531E-06  0.00000E+00  9.000E+00
#rwgt            1           1   2.6338126635308455E-002           3      211297           0
</event>
<event>
      5   9999  3.19816E-02  2.90790E+01 -1.00000E+00  1.53986E-01
      21    -1     0     0   502   501  0.000000000E+00  0.000000000E+00  5.546609751E+01  5.546609751E+01  0.000000000E+00  0.00000E+00  9.000E+00
       2    -1     0     0   501     0  0.000000000E+00  0.000000000E+00 -3.967823518E+03  3.967823518E+03  0.000000000E+00  0.00000E+00  9.000E+00
      25     1     1     2     0     0  1.029112149E+02  3.461440409E+02 -8.801164721E+02  9.594980040E+02  1.250000000E+02  0.00000E+00  9.000E+00
      25     1     1     2     0     0 -1.250014898E+02 -3.650545905E+02 -2.702105551E+03  2.732378018E+03  1.250000000E+02  0.00000E+00  9.000E+00
       2     1     1     2   502     0  2.209027487E+01  1.891054960E+01 -3.301353979E+02  3.314135937E+02  3.814697266E-06  0.00000E+00  9.000E+00
#rwgt            1           1   1.7203023288060271E-002           3      211363           0
</event>
<event>
      5   9999  3.19816E-02  2.90302E+01 -1.00000E+00  1.54038E-01
      21    -1     0     0   502   501  0.000000000E+00  0.000000000E+00  1.851142517E+02  1.851142517E+02  0.000000000E+00  0.00000E+00  9.000E+00
      21    -1     0     0   501   511  0.000000000E+00  0.000000000E+00 -3.093847803E+02  3.093847803E+02  0.000000000E+00  0.00000E+00  9.000E+00
      25     1     1     2     0     0 -1.776754917E+02  4.862898794E+01 -1.238459353E+02  2.547472757E+02  1.250000000E+02  0.00000E+00  9.000E+00
      25     1     1     2     0     0  1.581730859E+02 -2.712527753E+01  1.978542965E+01  2.043794730E+02  1.250000000E+02  0.00000E+00  9.000E+00
      21     1     1     2   502   511  1.950240581E+01 -2.150371041E+01 -2.021002292E+01  3.537228322E+01  5.331201500E-07  0.00000E+00  9.000E+00
#rwgt            1           1   2.4566713195981645E-002           3      211484           0
</event>
<event>
      5   9999  3.19816E-02  3.39226E+01 -1.00000E+00  1.49423E-01
      21    -1     0     0   502   501  0.000000000E+00  0.000000000E+00  6.362010651E+02  6.362010651E+02  0.000000000E+00  0.00000E+00  9.000E+00
      21    -1     0     0   512   502  0.000000000E+00  0.000000000E+00 -2.431834376E+02  2.431834376E+02  0.000000000E+00  0.00000E+00  9.000E+00
      25     1     1     2     0     0  2.254757346E+01 -4.936278580E+00  5.975666566E+02  6.109367144E+02  1.250000000E+02  0.00000E+00  9.000E+00
      25     1     1     2     0     0 -3.989653306E+01  3.408688224E+01 -1.363385509E+02  1.922676503E+02  1.250000000E+02  0.00000E+00  9.000E+00
      21     1     1     2   512   501  1.734895961E+01 -2.915060366E+01 -6.821047817E+01  7.618013800E+01  0.000000000E+00  0.00000E+00  9.000E+00
#rwgt            1           1   3.0641182061839196E-002           3      211646           0
</event>
<event>
      5   9999  3.19816E-02  2.16380E+02 -1.00000E+00  1.10418E-01
      -2    -1     0     0     0   501  0.000000000E+00  0.000000000E+00  1.606888980E+02  1.606888980E+02  0.000000000E+00  0.00000E+00  9.000E+00
      21    -1     0     0   501   502  0.000000000E+00  0.000000000E+00 -1.010033922E+03  1.010033922E+03  0.000000000E+00  0.00000E+00  9.000E+00
      25     1     1     2     0     0  1.414354335E+02 -3.581988332E+01 -1.390640538E+02  2.371726311E+02  1.250000000E+02  0.00000E+00  9.000E+00
      25     1     1     2     0     0 -3.577850117E+02  3.943668027E+01 -3.757792055E+02  5.351638792E+02  1.250000000E+02  0.00000E+00  9.000E+00
      -2     1     1     2     0   502  2.163495783E+02 -3.616796948E+00 -3.345017651E+02  3.983863101E+02  0.000000000E+00  0.00000E+00  9.000E+00
#rwgt            2           4   1.9622331607476941E-005           3      212219           0
</event>
<event>
      5   9999  3.19816E-02  1.30356E+01 -1.00000E+00  1.83326E-01
      21    -1     0     0   502   501  0.000000000E+00  0.000000000E+00  1.844890102E+02  1.844890102E+02  0.000000000E+00  0.00000E+00  9.000E+00
      21    -1     0     0   501   511  0.000000000E+00  0.000000000E+00 -6.031335795E+02  6.031335795E+02  0.000000000E+00  0.00000E+00  9.000E+00
      25     1     1     2     0     0  1.238317668E+02  2.582322164E+02 -1.636208452E+02  3.527250558E+02  1.250000000E+02  0.00000E+00  9.000E+00
      25     1     1     2     0     0 -1.319553737E+02 -2.684270146E+02 -2.058169155E+02  3.839933404E+02  1.250000000E+02  0.00000E+00  9.000E+00
      21     1     1     2   502   511  8.123606864E+00  1.019479819E+01 -4.920680854E+01  5.090419340E+01  6.743495762E-07  0.00000E+00  9.000E+00
#rwgt            1           1   3.3090631190884047E-002           3      212238           0
</event>
<event>
      5   9999  3.19816E-02  4.88769E+01 -1.00000E+00  1.39641E-01
       1    -1     0     0   502     0  0.000000000E+00  0.000000000E+00  1.100795898E+02  1.100795898E+02  0.000000000E+00  0.00000E+00  9.000E+00
      21    -1     0     0   501   502  0.000000000E+00  0.000000000E+00 -1.644175952E+03  1.644175952E+03  0.000000000E+00  0.00000E+00  9.000E+00
      25     1     1     2     0     0  2.055370773E+01 -1.817922364E+02 -1.310767227E+03  1.329363229E+03  1.250000000E+02  0.00000E+00  9.000E+00
      25     1     1     2     0     0 -1.005053316E+01  2.295272457E+02 -2.560932208E+02  3.660498702E+02  1.250000000E+02  0.00000E+00  9.000E+00
       1     1     1     2   501     0 -1.050317457E+01 -4.773500929E+01  3.276408514E+01  5.884244270E+01  1.261592536E-06  0.00000E+00  9.000E+00
#rwgt            1           1   2.4735645514724947E-002           3      212395           0
</event>
<event>
      5   9999  3.19816E-02  3.58481E+01 -1.00000E+00  1.47855E-01
      21    -1     0     0   511   501  0.000000000E+00  0.000000000E+00  4.938805330E+02  4.938805330E+02  0.000000000E+00  0.00000E+00  9.000E+00
      21    -1     0     0   501   502  0.000000000E+00  0.000000000E+00 -5.201298330E+02  5.201298330E+02  0.000000000E+00  0.00000E+00  9.000E+00
      25     1     1     2     0     0  3.628848653E+00  4.611039576E+02 -1.557736836E+02  5.025141479E+02  1.250000000E+02  0.00000E+00  9.000E+00
      25     1     1     2     0     0 -2.822544596E+01 -4.350253219E+02  9.848509728E+01  4.640776022E+02  1.250000000E+02  0.00000E+00  9.000E+00
      21     1     1     2   511   502  2.459659730E+01 -2.607863575E+01  3.103928631E+01  4.741861592E+01  6.743495762E-07  0.00000E+00  9.000E+00
#rwgt            1           1   2.1775332089778211E-002           3      212562           0
</event>
<event>
      5   9999  3.19816E-02  3.34170E+01 -1.00000E+00  1.49856E-01
      21    -1     0     0   512   501  0.000000000E+00  0.000000000E+00  2.704282144E+02  2.704282144E+02  0.000000000E+00  0.00000E+00  9.000E+00
      21    -1     0     0   501   502  0.000000000E+00  0.000000000E+00 -4.918887598E+02  4.918887598E+02  0.000000000E+00  0.00000E+00  9.000E+00
      25     1     1     2     0     0  1.089584738E+02 -1.957533835E+02 -2.356844929E+02  3.483726688E+02  1.250000000E+02  0.00000E+00  9.000E+00
      25     1     1     2     0     0 -1.407801597E+02  1.855516555E+02 -1.092540766E+02  2.860243407E+02  1.250000000E+02  0.00000E+00  9.000E+00
      21     1     1     2   512   502  3.182168591E+01  1.020172802E+01  1.234780240E+02  1.279199647E+02  2.336015456E-06  0.00000E+00  9.000E+00
#rwgt            1           1   2.7047340096788233E-002           3      212673           0
</event>
<event>
      5   9999  3.19816E-02  5.95924E+01 -1.00000E+00  1.34862E-01
      21    -1     0     0   502   501  0.000000000E+00  0.000000000E+00  7.867013701E+02  7.867013701E+02  0.000000000E+00  0.00000E+00  9.000E+00
       1    -1     0     0   501     0  0.000000000E+00  0.000000000E+00 -6.447078391E+02  6.447078391E+02  0.000000000E+00  0.00000E+00  9.000E+00
      25     1     1     2     0     0  3.240084896E+02 -1.096071378E+02  4.590380057E+02  5.859489028E+02  1.250000000E+02  0.00000E+00  9.000E+00
      25     1     1     2     0     0 -2.668362708E+02  1.264174481E+02  1.644103801E+02  3.603314304E+02  1.250000000E+02  0.00000E+00  9.000E+00
       1     1     1     2   502     0 -5.717221878E+01 -1.681031031E+01 -4.814548549E+02  4.851288761E+02  9.344061824E-06  0.00000E+00  9.000E+00
#rwgt            1           1   2.6733251174730795E-002           3      212869           0
</event>
<event>
      5   9999  3.19816E-02  1.24524E+02 -1.00000E+00  1.19690E-01
      21    -1     0     0   502   511  0.000000000E+00  0.000000000E+00  1.177346640E+02  1.177346640E+02  0.000000000E+00  0.00000E+00  9.000E+00
      21    -1     0     0   501   502  0.000000000E+00  0.000000000E+00 -1.640673859E+03  1.640673859E+03  0.000000000E+00  0.00000E+00  9.000E+00
      25     1     1     2     0     0 -1.863980084E+02 -5.317689267E+01 -6.870774752E+02  7.247568257E+02  1.250000000E+02  0.00000E+00  9.000E+00
      25     1     1     2     0     0  6.361270550E+01  3.243774357E+01 -8.873140994E+02  8.989160664E+02  1.250000000E+02  0.00000E+00  9.000E+00
      21     1     1     2   501   511  1.227853029E+02  2.073914910E+01  5.145237948E+01  1.347356310E+02  4.955437110E-06  0.00000E+00  9.000E+00
#rwgt            1           1   2.2931437515825742E-002           3      212970           0
</event>
<event>
      5   9999  3.19816E-02  2.65045E+01 -1.00000E+00  1.56873E-01
      21    -1     0     0   502   501  0.000000000E+00  0.000000000E+00  3.442723365E+02  3.442723365E+02  0.000000000E+00  0.00000E+00  9.000E+00
      21    -1     0     0   501   512  0.000000000E+00  0.000000000E+00 -3.307117256E+02  3.307117256E+02  0.000000000E+00  0.00000E+00  9.000E+00
      25     1     1     2     0     0 -6.358227259E+00 -1.697295755E+02  2.550890652E+02  3.309742996E+02  1.250000000E+02  0.00000E+00  9.000E+00
      25     1     1     2     0     0 -1.972882805E+01  1.650439985E+02 -1.729616832E+02  2.704985989E+02  1.250000000E+02  0.00000E+00  9.000E+00
      21     1     1     2   502   512  2.608705530E+01  4.685576973E+00 -6.856677107E+01  7.351116364E+01  0.000000000E+00  0.00000E+00  9.000E+00
#rwgt            1           1   2.7336717107879611E-002           3      213017           0
</event>
<event>
      5   9999  3.19816E-02  1.09350E+02 -1.00000E+00  1.22107E-01
      -3    -1     0     0     0   501  0.000000000E+00  0.000000000E+00  9.585965905E+02  9.585965905E+02  0.000000000E+00  0.00000E+00  9.000E+00
      21    -1     0     0   501   502  0.000000000E+00  0.000000000E+00 -2.463664798E+02  2.463664798E+02  0.000000000E+00  0.00000E+00  9.000E+00
      25     1     1     2     0     0  2.559002422E+00  1.461695643E+02  5.048428977E+01  1.988611413E+02  1.250000000E+02  0.00000E+00  9.000E+00
      25     1     1     2     0     0  1.042852124E+02 -1.228962152E+02 -1.065086901E+02  2.301042944E+02  1.250000000E+02  0.00000E+00  9.000E+00
      -3     1     1     2     0   502 -1.068442148E+02 -2.327334908E+01  7.682545111E+02  7.759976346E+02  1.078959322E-05  0.00000E+00  9.000E+00
#rwgt            1           1   2.4775383003200400E-002           3      213203           0
</event>
<event>
      5   9999  3.19816E-02  1.84870E+02 -1.00000E+00  1.12906E-01
      21    -1     0     0   502   511  0.000000000E+00  0.000000000E+00  3.335097555E+02  3.335097555E+02  0.000000000E+00  0.00000E+00  9.000E+00
      21    -1     0     0   501   502  0.000000000E+00  0.000000000E+00 -4.678926099E+02  4.678926099E+02  0.000000000E+00  0.00000E+00  9.000E+00
      25     1     1     2     0     0  1.043864097E+02  3.967452522E+01 -3.456583270E+02  3.841552675E+02  1.250000000E+02  0.00000E+00  9.000E+00
      25     1     1     2     0     0  7.482442121E+01 -8.506644029E+01  6.235250061E+01  1.798550183E+02  1.250000000E+02  0.00000E+00  9.000E+00
      21     1     1     2   501   511 -1.792108309E+02  4.539191507E+01  1.489229721E+02  2.373920796E+02  5.046370146E-06  0.00000E+00  9.000E+00
#rwgt            2          11   3.7688115646128308E-003           3      213238           0
</event>
<event>
      5   9999  3.19816E-02  3.69114E+01 -1.00000E+00  1.47038E-01
      21    -1     0     0   502   512  0.000000000E+00  0.000000000E+00  2.005525696E+02  2.005525696E+02  0.000000000E+00  0.00000E+00  9.000E+00
      21    -1     0     0   501   502  0.000000000E+00  0.000000000E+00 -8.931160435E+02  8.931160435E+02  0.000000000E+00  0.00000E+00  9.000E+00
      25     1     1     2     0     0 -6.679954643E+00 -3.531175740E+02 -1.948354283E+02  4.222824730E+02  1.250000000E+02  0.00000E+00  9.000E+00
      25     1     1     2     0     0 -1.036499492E+01  3.858577700E+02 -4.850225910E+02  6.323492433E+02  1.250000000E+02  0.00000E+00  9.000E+00
      21     1     1     2   501   512  1.704494956E+01 -3.274019599E+01 -1.270545451E+01  3.903689682E+01  6.307962682E-07  0.00000E+00  9.000E+00
#rwgt            1           1   2.7752036685716557E-002           3      213273           0
</event>
<event>
      5   9999  3.19816E-02  1.76938E+01 -1.00000E+00  1.70882E-01
      21    -1     0     0   502   501  0.000000000E+00  0.000000000E+00  8.074712040E+01  8.074712040E+01  0.000000000E+00  0.00000E+00  9.000E+00
      21    -1     0     0   511   502  0.000000000E+00  0.000000000E+00 -1.020381489E+03  1.020381489E+03  0.000000000E+00  0.00000E+00  9.000E+00
      25     1     1     2     0     0  9.287286130E+00  1.234017230E+02 -6.115803783E+01  1.862244466E+02  1.250000000E+02  0.00000E+00  9.000E+00
      25     1     1     2     0     0  7.131914413E+00 -1.168076830E+02 -3.879391242E+02  4.240479491E+02  1.250000000E+02  0.00000E+00  9.000E+00
      21     1     1     2   511   501 -1.641920054E+01 -6.594040034E+00 -4.905372069E+02  4.908562140E+02  0.000000000E+00  0.00000E+00  9.000E+00
#rwgt            1           1   2.6509582401704104E-002           3      213414           0
</event>
<event>
      5   9999  3.19816E-02  9.65587E+01 -1.00000E+00  1.24516E-01
      21    -1     0     0   502   501  0.000000000E+00  0.000000000E+00  9.054255379E+02  9.054255379E+02  0.000000000E+00  0.00000E+00  9.000E+00
      21    -1     0     0   512   502  0.000000000E+00  0.000000000E+00 -8.340671164E+01  8.340671164E+01  0.000000000E+00  0.00000E+00  9.000E+00
      25     1     1     2     0     0 -1.534547681E+02 -1.743922039E+02  4.528350454E+02  5.240663937E+02  1.250000000E+02  0.00000E+00  9.000E+00
      25     1     1     2     0     0  8.899950016E+01  1.024957064E+02  2.625458060E+02  3.209074339E+02  1.250000000E+02  0.00000E+00  9.000E+00
      21     1     1     2   512   501  6.445526789E+01  7.189649745E+01  1.066379748E+02  1.438584220E+02  1.348699152E-06  0.00000E+00  9.000E+00
#rwgt            1           1   2.9683109562674361E-002           3      213548           0
</event>
<event>
      5   9999  3.19816E-02  2.25314E+01 -1.00000E+00  1.62209E-01
      21    -1     0     0   502   511  0.000000000E+00  0.000000000E+00  4.641439559E+02  4.641439559E+02  0.000000000E+00  0.00000E+00  9.000E+00
      21    -1     0     0   501   502  0.000000000E+00  0.000000000E+00 -1.380665393E+03  1.380665393E+03  0.000000000E+00  0.00000E+00  9.000E+00
      25     1     1     2     0     0 -4.048566846E+02 -5.689467850E+02 -7.799371689E+02  1.054294251E+03  1.250000000E+02  0.00000E+00  9.000E+00
      25     1     1     2     0     0  4.223662371E+02  5.547664702E+02 -1.892671617E+02  7.332162936E+02  1.250000000E+02  0.00000E+00  9.000E+00
      21     1     1     2   501   511 -1.750955249E+01  1.418031482E+01  5.268289353E+01  5.729880477E+01  6.743495762E-07  0.00000E+00  9.000E+00
#rwgt            1           1   1.9801958875550887E-002           3      213602           0
</event>
<event>
      5   9999  3.19816E-02  9.32968E+01 -1.00000E+00  1.25199E-01
      21    -1     0     0   502   512  0.000000000E+00  0.000000000E+00  3.845372563E+02  3.845372563E+02  0.000000000E+00  0.00000E+00  9.000E+00
      21    -1     0     0   501   502  0.000000000E+00  0.000000000E+00 -2.691395093E+02  2.691395093E+02  0.000000000E+00  0.00000E+00  9.000E+00
      25     1     1     2     0     0 -8.670335120E+01  9.229158395E+01  1.844175687E+02  2.562616772E+02  1.250000000E+02  0.00000E+00  9.000E+00
      25     1     1     2     0     0  1.746439301E+02 -6.113473383E+01 -1.539699533E+02  2.712373582E+02  1.250000000E+02  0.00000E+00  9.000E+00
      21     1     1     2   501   512 -8.794057886E+01 -3.115685012E+01  8.495013167E+01  1.261777302E+02  0.000000000E+00  0.00000E+00  9.000E+00
#rwgt            1           1   2.9778882871415654E-002           3      213832           0
</event>
<event>
      5   9999  3.19816E-02  6.63905E+01 -1.00000E+00  1.32396E-01
      21    -1     0     0   502   501  0.000000000E+00  0.000000000E+00  7.028595380E+02  7.028595380E+02  0.000000000E+00  0.00000E+00  9.000E+00
      21    -1     0     0   501   511  0.000000000E+00  0.000000000E+00 -3.808608015E+02  3.808608015E+02  0.000000000E+00  0.00000E+00  9.000E+00
      25     1     1     2     0     0  4.198180022E+02 -2.435100941E+01  4.308392898E+02  6.148882991E+02  1.250000000E+02  0.00000E+00  9.000E+00
      25     1     1     2     0     0 -3.634119354E+02 -1.066407692E+01 -6.670854284E+01  3.902012135E+02  1.250000000E+02  0.00000E+00  9.000E+00
      21     1     1     2   502   511 -5.640606680E+01  3.501508633E+01 -4.213201048E+01  7.863082697E+01  1.846782373E-06  0.00000E+00  9.000E+00
#rwgt            1           1   2.7710307962802255E-002           3      213909           0
</event>
<event>
      5   9999  3.19816E-02  2.62438E+01 -1.00000E+00  1.57187E-01
      21    -1     0     0   502   512  0.000000000E+00  0.000000000E+00  1.070553314E+03  1.070553314E+03  0.000000000E+00  0.00000E+00  9.000E+00
      21    -1     0     0   501   502  0.000000000E+00  0.000000000E+00 -3.414150831E+02  3.414150831E+02  0.000000000E+00  0.00000E+00  9.000E+00
      25     1     1     2     0     0 -2.138748699E+02  2.179764301E+02  5.168743959E+01  3.339951728E+02  1.250000000E+02  0.00000E+00  9.000E+00
      25     1     1     2     0     0  1.896501243E+02 -2.078818441E+02 -8.154603276E+01  3.185228190E+02  1.250000000E+02  0.00000E+00  9.000E+00
      21     1     1     2   501   512  2.422474557E+01 -1.009458602E+01  7.589968240E+02  7.594504051E+02  1.525878906E-05  0.00000E+00  9.000E+00
#rwgt            1           1   2.9811726938939877E-002           3      214009           0
</event>
<event>
      5   9999  3.19816E-02  9.60386E+00 -1.00000E+00  1.97808E-01
      21    -1     0     0   511   501  0.000000000E+00  0.000000000E+00  7.210609552E+01  7.210609552E+01  0.000000000E+00  0.00000E+00  9.000E+00
      21    -1     0     0   501   502  0.000000000E+00  0.000000000E+00 -5.317726604E+02  5.317726604E+02  0.000000000E+00  0.00000E+00  9.000E+00
      25     1     1     2     0     0  9.802045110E+01  3.308853914E+00 -3.939904905E+02  4.248205079E+02  1.250000000E+02  0.00000E+00  9.000E+00
      25     1     1     2     0     0 -9.237991117E+01 -1.108178935E+01 -6.649214712E+01  1.694197736E+02  1.250000000E+02  0.00000E+00  9.000E+00
      21     1     1     2   511   502 -5.640539932E+00  7.772935438E+00  8.160726911E-01  9.638474500E+00  2.428020647E-07  0.00000E+00  9.000E+00
#rwgt            1           1   2.7274315074850074E-002           3      214127           0
</event>
<event>
      5   9999  3.19816E-02  2.90548E+02 -1.00000E+00  1.06046E-01
      21    -1     0     0   512   501  0.000000000E+00  0.000000000E+00  3.358227412E+02  3.358227412E+02  0.000000000E+00  0.00000E+00  9.000E+00
      21    -1     0     0   501   502  0.000000000E+00  0.000000000E+00 -1.464305293E+03  1.464305293E+03  0.000000000E+00  0.00000E+00  9.000E+00
      25     1     1     2     0     0  1.479663195E+02 -1.569291725E+02  6.764523211E+01  2.583053896E+02  1.250000000E+02  0.00000E+00  9.000E+00
      25     1     1     2     0     0  1.159940765E+02  2.783510038E+02 -1.207705044E+03  1.251043717E+03  1.250000000E+02  0.00000E+00  9.000E+00
      21     1     1     2   512   502 -2.639603960E+02 -1.214218313E+02  1.157726061E+01  2.907789276E+02  6.062117641E-06  0.00000E+00  9.000E+00
#rwgt            2          11   4.2364320547264630E-003           3      214388           0
</event>
<event>
      5   9999  3.19816E-02  1.85098E+02 -1.00000E+00  1.12886E-01
      21    -1     0     0   502   501  0.000000000E+00  0.000000000E+00  5.879933483E+02  5.879933483E+02  0.000000000E+00  0.00000E+00  9.000E+00
      21    -1     0     0   511   502  0.000000000E+00  0.000000000E+00 -6.785668153E+02  6.785668153E+02  0.000000000E+00  0.00000E+00  9.000E+00
      25     1     1     2     0     0  1.355660936E+01 -2.901758058E+02 -4.087668167E+02  5.168182373E+02  1.250000000E+02  0.00000E+00  9.000E+00
      25     1     1     2     0     0 -1.860688478E+02  3.572648181E+02  3.661572792E+02  5.585301419E+02  1.250000000E+02  0.00000E+00  9.000E+00
      21     1     1     2   511   501  1.725122384E+02 -6.708901228E+01 -4.796392949E+01  1.912117844E+02  2.236564522E-06  0.00000E+00  9.000E+00
#rwgt            1           1   3.0338018939771554E-002           3      214423           0
</event>
<event>
      5   9999  3.19816E-02  3.67523E+01 -1.00000E+00  1.47158E-01
      21    -1     0     0   502   512  0.000000000E+00  0.000000000E+00  1.028554077E+03  1.028554077E+03  0.000000000E+00  0.00000E+00  9.000E+00
      21    -1     0     0   501   502  0.000000000E+00  0.000000000E+00 -1.568820629E+03  1.568820629E+03  0.000000000E+00  0.00000E+00  9.000E+00
      25     1     1     2     0     0 -1.317545887E+02 -2.055674149E+02 -1.483548317E+03  1.508694086E+03  1.250000000E+02  0.00000E+00  9.000E+00
      25     1     1     2     0     0  1.338364645E+02  2.422606829E+02  2.470671671E+02  3.914966447E+02  1.250000000E+02  0.00000E+00  9.000E+00
      21     1     1     2   501   512 -2.081875821E+00 -3.669326800E+01  6.962145976E+02  6.971839757E+02  7.629394531E-06  0.00000E+00  9.000E+00
#rwgt            1           1   2.9645173884388549E-002           3      214479           0
</event>
<event>
      5   9999  3.19816E-02  8.09075E+01 -1.00000E+00  1.28113E-01
      21    -1     0     0   502   501  0.000000000E+00  0.000000000E+00  1.988878456E+02  1.988878456E+02  0.000000000E+00  0.00000E+00  9.000E+00
      21    -1     0     0   511   502  0.000000000E+00  0.000000000E+00 -4.832730494E+02  4.832730494E+02  0.000000000E+00  0.00000E+00  9.000E+00
      25     1     1     2     0     0 -1.865174498E+02 -9.663347410E+01  2.914964508E+01  2.461736972E+02  1.250000000E+02  0.00000E+00  9.000E+00
      25     1     1     2     0     0  1.710407197E+02  1.721998763E+01 -2.715286342E+02  3.448249628E+02  1.250000000E+02  0.00000E+00  9.000E+00
      21     1     1     2   511   501  1.547673015E+01  7.941348647E+01 -4.200621469E+01  9.116223496E+01  8.259061849E-07  0.00000E+00  9.000E+00
#rwgt            1           1   2.6073986391429532E-002           3      214596           0
</event>
<event>
      5   9999  3.19816E-02  1.68005E+02 -1.00000E+00  1.14475E-01
      21    -1     0     0   502   512  0.000000000E+00  0.000000000E+00  1.903900425E+03  1.903900425E+03  0.000000000E+00  0.00000E+00  9.000E+00
      21    -1     0     0   501   502  0.000000000E+00  0.000000000E+00 -1.728304702E+02  1.728304702E+02  0.000000000E+00  0.00000E+00  9.000E+00
      25     1     1     2     0     0 -2.035263938E+02  3.316594267E+02  1.059128667E+03  1.135253057E+03  1.250000000E+02  0.00000E+00  9.000E+00
      25     1     1     2     0     0  5.102303206E+01 -2.611723416E+02  5.123488739E+01  2.984365184E+02  1.250000000E+02  0.00000E+00  9.000E+00
      21     1     1     2   501   512  1.525033618E+02 -7.048708506E+01  6.207064002E+02  6.430413204E+02  1.078959322E-05  0.00000E+00  9.000E+00
#rwgt            1           1   3.2485568403930576E-002           3      214670           0
</event>
<event>
      5   9999  3.19816E-02  4.13636E+01 -1.00000E+00  1.43943E-01
      21    -1     0     0   511   501  0.000000000E+00  0.000000000E+00  4.304891635E+02  4.304891635E+02  0.000000000E+00  0.00000E+00  9.000E+00
      21    -1     0     0   501   502  0.000000000E+00  0.000000000E+00 -7.902472060E+02  7.902472060E+02  0.000000000E+00  0.00000E+00  9.000E+00
      25     1     1     2     0     0  1.212456067E+01 -3.433560178E+01 -7.551325692E+02  7.662741909E+02  1.250000000E+02  0.00000E+00  9.000E+00
      25     1     1     2     0     0  2.402065677E+01  5.444706834E+01  3.886294762E+02  4.125522330E+02  1.250000000E+02  0.00000E+00  9.000E+00
      21     1     1     2   511   502 -3.614521744E+01 -2.011146656E+01  6.745050538E+00  4.190994557E+01  4.042583694E-07  0.00000E+00  9.000E+00
#rwgt            1           1   3.1339641194113046E-002           3      214718           0
</event>
<event>
      5   9999  3.19816E-02  8.34768E+01 -1.00000E+00  1.27462E-01
      21    -1     0     0   502   512  0.000000000E+00  0.000000000E+00  2.148465189E+03  2.148465189E+03  0.000000000E+00  0.00000E+00  9.000E+00
      21    -1     0     0   501   502  0.000000000E+00  0.000000000E+00 -1.584384850E+02  1.584384850E+02  0.000000000E+00  0.00000E+00  9.000E+00
      25     1     1     2     0     0 -1.965945128E+00  5.546490164E+02  1.107897210E+03  1.245271306E+03  1.250000000E+02  0.00000E+00  9.000E+00
      25     1     1     2     0     0  3.551954691E+01 -4.782126128E+02  6.675121033E+02  8.313521211E+02  1.250000000E+02  0.00000E+00  9.000E+00
      21     1     1     2   501   512 -3.355360178E+01 -7.643640355E+01  2.146173910E+02  2.302802477E+02  3.814697266E-06  0.00000E+00  9.000E+00
#rwgt            1           1   3.0626468364322885E-002           3      214850           0
</event>
<event>
      5   9999  3.19816E-02  5.91765E+01 -1.00000E+00  1.35025E-01
      21    -1     0     0   502   511  0.000000000E+00  0.000000000E+00  2.759522837E+02  2.759522837E+02  0.000000000E+00  0.00000E+00  9.000E+00
      21    -1     0     0   501   502  0.000000000E+00  0.000000000E+00 -3.217883293E+02  3.217883293E+02  0.000000000E+00  0.00000E+00  9.000E+00
      25     1     1     2     0     0 -2.616405720E+01 -2.909770796E+01 -2.641946177E+02  2.948813838E+02  1.250000000E+02  0.00000E+00  9.000E+00
      25     1     1     2     0     0  5.197377726E+00 -2.623991471E+01  2.059492746E+02  2.423956467E+02  1.250000000E+02  0.00000E+00  9.000E+00
      21     1     1     2   501   511  2.096667948E+01  5.533762268E+01  1.240929761E+01  6.046358242E+01  5.331201500E-07  0.00000E+00  9.000E+00
#rwgt            1           1   2.8207736900721841E-002           3      214971           0
</event>
<event>
      5   9999  3.19816E-02  3.53047E+01 -1.00000E+00  1.48285E-01
      21    -1     0     0   502   501  0.000000000E+00  0.000000000E+00  8.206712385E+02  8.206712385E+02  0.000000000E+00  0.00000E+00  9.000E+00
      21    -1     0     0   512   502  0.000000000E+00  0.000000000E+00 -6.033403806E+02  6.033403806E+02  0.000000000E+00  0.00000E+00  9.000E+00
      25     1     1     2     0     0 -5.967676091E+02 -1.833033892E+02 -1.457425598E+02  6.531443986E+02  1.250000000E+02  0.00000E+00  9.000E+00
      25     1     1     2     0     0  6.096691344E+02  1.504404381E+02  3.620447176E+02  7.355475215E+02  1.250000000E+02  0.00000E+00  9.000E+00
      21     1     1     2   512   501 -1.290152529E+01  3.286295116E+01  1.028700185E+00  3.531969901E+01  6.927036821E-07  0.00000E+00  9.000E+00
#rwgt            1           1   2.0522599206055876E-002           3      215042           0
</event>
<event>
      5   9999  3.19816E-02  1.05033E+01 -1.00000E+00  1.93324E-01
       2    -1     0     0   502     0  0.000000000E+00  0.000000000E+00  4.919257541E+02  4.919257541E+02  0.000000000E+00  0.00000E+00  9.000E+00
      21    -1     0     0   501   502  0.000000000E+00  0.000000000E+00 -2.277894859E+02  2.277894859E+02  0.000000000E+00  0.00000E+00  9.000E+00
      25     1     1     2     0     0 -1.752413089E+02  1.661422114E+01 -4.447834159E+01  2.204288356E+02  1.250000000E+02  0.00000E+00  9.000E+00
      25     1     1     2     0     0  1.839209365E+02 -1.069961193E+01  3.488058100E+01  2.253509430E+02  1.250000000E+02  0.00000E+00  9.000E+00
       2     1     1     2   501     0 -8.679627630E+00 -5.914609202E+00  2.737340288E+02  2.739354615E+02  3.814697266E-06  0.00000E+00  9.000E+00
#rwgt            1           1   2.6282021613098193E-002           3      215213           0
</event>
<event>
      5   9999  3.28001E-02  1.22428E+02 -1.00000E+00  1.20000E-01
      21    -1     0     0   511   501  0.000000000E+00  0.000000000E+00  5.576984200E+01  5.576984200E+01  0.000000000E+00  0.00000E+00  9.000E+00
      21    -1     0     0   501   502  0.000000000E+00  0.000000000E+00 -1.974124188E+03  1.974124188E+03  0.000000000E+00  0.00000E+00  9.000E+00
      25     1     1     2     0     0  1.307763921E+02  1.453733560E+02 -9.340721022E+02  9.624715941E+02  1.250000000E+02  0.00000E+00  9.000E+00
      25     1     1     2     0     0 -1.716832132E+02 -2.998136218E+01 -8.825692409E+02  9.082551804E+02  1.250000000E+02  0.00000E+00  9.000E+00
      21     1     1     2   511   502  4.090682117E+01 -1.153919939E+02 -1.017130030E+02  1.591672556E+02  1.348699152E-06  0.00000E+00  9.000E+00
#rwgt            1           1  0.10061730493859178                3      215404           0
</event>
<event>
      5   9999  3.19816E-02  5.36914E+00 -1.00000E+00  2.33235E-01
      21    -1     0     0   502   512  0.000000000E+00  0.000000000E+00  1.417235695E+03  1.417235695E+03  0.000000000E+00  0.00000E+00  9.000E+00
      21    -1     0     0   501   502  0.000000000E+00  0.000000000E+00 -3.527353541E+01  3.527353541E+01  0.000000000E+00  0.00000E+00  9.000E+00
      25     1     1     2     0     0 -4.432524323E+01 -2.940614180E+01  1.165809517E+02  1.790127556E+02  1.250000000E+02  0.00000E+00  9.000E+00
      25     1     1     2     0     0  4.618247960E+01  3.444383790E+01  1.192248630E+03  1.200167070E+03  1.250000000E+02  0.00000E+00  9.000E+00
      21     1     1     2   501   512 -1.857236366E+00 -5.037696097E+00  7.313257747E+01  7.332940472E+01  1.348699152E-06  0.00000E+00  9.000E+00
#rwgt            1           1   2.5824108517562155E-002           3      215504           0
</event>
<event>
      5   9999  3.19816E-02  1.13863E+02 -1.00000E+00  1.21344E-01
      21    -1     0     0   511   501  0.000000000E+00  0.000000000E+00  1.275574591E+03  1.275574591E+03  0.000000000E+00  0.00000E+00  9.000E+00
      21    -1     0     0   501   502  0.000000000E+00  0.000000000E+00 -4.454838201E+01  4.454838201E+01  0.000000000E+00  0.00000E+00  9.000E+00
      25     1     1     2     0     0 -5.861003534E+01 -7.449830693E+01  5.817413142E+02  6.025222740E+02  1.250000000E+02  0.00000E+00  9.000E+00
      25     1     1     2     0     0  3.553175873E+01 -3.700157055E+01  1.355197908E+02  1.913693701E+02  1.250000000E+02  0.00000E+00  9.000E+00
      21     1     1     2   511   502  2.307827661E+01  1.114998775E+02  5.137651039E+02  5.262313289E+02  7.629394531E-06  0.00000E+00  9.000E+00
#rwgt            1           1   2.9406346599455447E-002           3      215882           0
</event>
<event>
      5   9999  3.19816E-02  3.83540E+01 -1.00000E+00  1.45981E-01
      21    -1     0     0   512   501  0.000000000E+00  0.000000000E+00  1.583351921E+03  1.583351921E+03  0.000000000E+00  0.00000E+00  9.000E+00
      21    -1     0     0   501   502  0.000000000E+00  0.000000000E+00 -1.282796933E+02  1.282796933E+02  0.000000000E+00  0.00000E+00  9.000E+00
      25     1     1     2     0     0  2.416241371E+02 -2.887164833E+02  6.556624212E+02  7.663273725E+02  1.250000000E+02  0.00000E+00  9.000E+00
      25     1     1     2     0     0 -2.578004248E+02  3.234922787E+02  5.839142560E+02  7.264221719E+02  1.250000000E+02  0.00000E+00  9.000E+00
      21     1     1     2   512   502  1.617628770E+01 -3.477579536E+01  2.154955502E+02  2.188820696E+02  2.697398305E-06  0.00000E+00  9.000E+00
#rwgt            1           1   2.7915463714821006E-002           3      215927           0
</event>
<event>
      5   9999  3.19816E-02  1.71114E+02 -1.00000E+00  1.14171E-01
      21    -1     0     0   502   501  0.000000000E+00  0.000000000E+00  1.032774177E+03  1.032774177E+03  0.000000000E+00  0.00000E+00  9.000E+00
       4    -1     0     0   501     0  0.000000000E+00  0.000000000E+00 -2.129364337E+02  2.129364337E+02  0.000000000E+00  0.00000E+00  9.000E+00
      25     1     1     2     0     0 -1.708706350E+02 -1.425775313E+02  9.600891175E+01  2.727046708E+02  1.250000000E+02  0.00000E+00  9.000E+00
      25     1     1     2     0     0  1.816713087E+01  2.197885783E+02  7.573414006E+02  7.986413844E+02  1.250000000E+02  0.00000E+00  9.000E+00
       4     1     1     2   502     0  1.527035041E+02 -7.721104706E+01 -3.351256903E+01  1.743645556E+02  2.900487199E-06  0.00000E+00  9.000E+00
#rwgt            1           1   2.7006242033756681E-002           3      216017           0
</event>
<event>
      5   9999  3.19816E-02  8.69857E+01 -1.00000E+00  1.26614E-01
      21    -1     0     0   502   501  0.000000000E+00  0.000000000E+00  7.186014775E+01  7.186014775E+01  0.000000000E+00  0.00000E+00  9.000E+00
       1    -1     0     0   501     0  0.000000000E+00  0.000000000E+00 -3.663505786E+03  3.663505786E+03  0.000000000E+00  0.00000E+00  9.000E+00
      25     1     1     2     0     0 -6.771948449E+01 -3.596239578E+00 -1.503753859E+01  1.430034583E+02  1.250000000E+02  0.00000E+00  9.000E+00
      25     1     1     2     0     0  1.485322337E+01  7.267347340E+01 -7.249403846E+02  7.393683880E+02  1.250000000E+02  0.00000E+00  9.000E+00
       1     1     1     2   502     0  5.286626113E+01 -6.907723382E+01 -2.851667715E+03  2.852994087E+03  0.000000000E+00  0.00000E+00  9.000E+00
#rwgt            1           1   3.4788252638134134E-002           3      216056           0
</event>
<event>
      5   9999  3.19816E-02  1.69508E+01 -1.00000E+00  1.72523E-01
      21    -1     0     0   502   511  0.000000000E+00  0.000000000E+00  5.142219321E+02  5.142219321E+02  0.000000000E+00  0.00000E+00  9.000E+00
      21    -1     0     0   501   502  0.000000000E+00  0.000000000E+00 -2.227328434E+02  2.227328434E+02  0.000000000E+00  0.00000E+00  9.000E+00
      25     1     1     2     0     0  1.578784373E+02 -1.273566402E+02 -1.131792453E+02  2.637799392E+02  1.250000000E+02  0.00000E+00  9.000E+00
      25     1     1     2     0     0 -1.420404236E+02  1.213161447E+02  3.501371361E+02  4.160698294E+02  1.250000000E+02  0.00000E+00  9.000E+00
      21     1     1     2   501   511 -1.583801376E+01  6.040495495E+00  5.453119787E+01  5.710500684E+01  9.536743164E-07  0.00000E+00  9.000E+00
#rwgt            1           1   2.5401637867440017E-002           3      216183           0
</event>
<event>
      5   9999  3.19816E-02  5.83218E+01 -1.00000E+00  1.35365E-01
      21    -1     0     0   502   512  0.000000000E+00  0.000000000E+00  4.197194475E+02  4.197194475E+02  0.000000000E+00  0.00000E+00  9.000E+00
      21    -1     0     0   501   502  0.000000000E+00  0.000000000E+00 -6.136229156E+02  6.136229156E+02  0.000000000E+00  0.00000E+00  9.000E+00
      25     1     1     2     0     0 -2.088673284E+02 -1.845849472E+02  2.610448904E+02  4.018290661E+02  1.250000000E+02  0.00000E+00  9.000E+00
      25     1     1     2     0     0  2.558139541E+02  1.499807975E+02 -4.715328179E+02  5.708793367E+02  1.250000000E+02  0.00000E+00  9.000E+00
      21     1     1     2   501   512 -4.694662572E+01  3.460414967E+01  1.658445935E+01  6.063396023E+01  9.536743164E-07  0.00000E+00  9.000E+00
#rwgt            1           1   2.6839345826837856E-002           3      216363           0
</event>
<event>
      5   9999  3.19816E-02  3.23526E+01 -1.00000E+00  1.50797E-01
      21    -1     0     0   502   501  0.000000000E+00  0.000000000E+00  5.718566749E+02  5.718566749E+02  0.000000000E+00  0.00000E+00  9.000E+00
      21    -1     0     0   501   511  0.000000000E+00  0.000000000E+00 -5.092777852E+02  5.092777852E+02  0.000000000E+00  0.00000E+00  9.000E+00
      25     1     1     2     0     0  1.008621210E+02 -3.234440180E+02  3.386301010E+02  4.950601434E+02  1.250000000E+02  0.00000E+00  9.000E+00
      25     1     1     2     0     0 -1.252041897E+02  3.447549046E+02 -9.077068561E+01  3.979903902E+02  1.250000000E+02  0.00000E+00  9.000E+00
      21     1     1     2   502   511  2.434206874E+01 -2.131088659E+01 -1.852805258E+02  1.880839266E+02  2.697398305E-06  0.00000E+00  9.000E+00
#rwgt            1           1   3.3025625948500476E-002           3      216485           0
</event>
<event>
      5   9999  3.19816E-02  1.06114E+02 -1.00000E+00  1.22680E-01
      21    -1     0     0   502   512  0.000000000E+00  0.000000000E+00  1.029656010E+02  1.029656010E+02  0.000000000E+00  0.00000E+00  9.000E+00
      21    -1     0     0   501   502  0.000000000E+00  0.000000000E+00 -8.387443911E+02  8.387443911E+02  0.000000000E+00  0.00000E+00  9.000E+00
      25     1     1     2     0     0  1.803484540E+02 -3.403740725E+01 -3.083318116E+02  3.799705462E+02  1.250000000E+02  0.00000E+00  9.000E+00
      25     1     1     2     0     0 -1.405013427E+02 -6.431105195E+01 -4.080330803E+02  4.538640032E+02  1.250000000E+02  0.00000E+00  9.000E+00
      21     1     1     2   501   512 -3.984711125E+01  9.834845920E+01 -1.941389826E+01  1.078754427E+02  1.261592536E-06  0.00000E+00  9.000E+00
#rwgt            1           1   2.3310791998913023E-002           3      216587           0
</event>
<event>
      5   9999  3.19816E-02  8.90184E+01 -1.00000E+00  1.26144E-01
      21    -1     0     0   502   501  0.000000000E+00  0.000000000E+00  6.062921265E+02  6.062921265E+02  0.000000000E+00  0.00000E+00  9.000E+00
      21    -1     0     0   501   511  0.000000000E+00  0.000000000E+00 -2.691873912E+02  2.691873912E+02  0.000000000E+00  0.00000E+00  9.000E+00
      25     1     1     2     0     0 -2.843115939E+02  1.952846759E+02  1.174935614E+02  3.852258092E+02  1.250000000E+02  0.00000E+00  9.000E+00
      25     1     1     2     0     0  2.717881497E+02 -1.071516183E+02  2.408604633E+02  3.987342855E+02  1.250000000E+02  0.00000E+00  9.000E+00
      21     1     1     2   502   511  1.252344418E+01 -8.813305760E+01 -2.124928944E+01  9.151942306E+01  1.192092896E-06  0.00000E+00  9.000E+00
#rwgt            1           1   2.8885495637064513E-002           3      216669           0
</event>
<event>
      5   9999  3.19816E-02  6.11650E+01 -1.00000E+00  1.34259E-01
      21    -1     0     0   502   501  0.000000000E+00  0.000000000E+00  1.317226136E+02  1.317226136E+02  0.000000000E+00  0.00000E+00  9.000E+00
      21    -1     0     0   501   512  0.000000000E+00  0.000000000E+00 -1.038877380E+03  1.038877380E+03  0.000000000E+00  0.00000E+00  9.000E+00
      25     1     1     2     0     0 -4.860664682E+01  3.005800059E+02 -3.557215401E+02  4.846377618E+02  1.250000000E+02  0.00000E+00  9.000E+00
      25     1     1     2     0     0  1.097630051E+02 -3.016067389E+02 -4.393106183E+02  5.582413113E+02  1.250000000E+02  0.00000E+00  9.000E+00
      21     1     1     2   502   512 -6.115635827E+01  1.026732964E+00 -1.121226081E+02  1.277209207E+02  2.336015456E-06  0.00000E+00  9.000E+00
#rwgt            1           1   3.2915836601364608E-002           3      216733           0
</event>
<event>
      5   9999  3.19816E-02  1.17785E+02 -1.00000E+00  1.20713E-01
      21    -1     0     0   502   511  0.000000000E+00  0.000000000E+00  1.283505524E+03  1.283505524E+03  0.000000000E+00  0.00000E+00  9.000E+00
      21    -1     0     0   501   502  0.000000000E+00  0.000000000E+00 -1.804840091E+02  1.804840091E+02  0.000000000E+00  0.00000E+00  9.000E+00
      25     1     1     2     0     0  3.992846703E+02 -1.884912534E+02  4.310269600E+02  6.295763979E+02  1.250000000E+02  0.00000E+00  9.000E+00
      25     1     1     2     0     0 -2.901792288E+02  1.441146438E+02  3.566629827E+02  4.978016659E+02  1.250000000E+02  0.00000E+00  9.000E+00
      21     1     1     2   501   511 -1.091054415E+02  4.437660956E+01  3.153315724E+02  3.366114695E+02  5.394796609E-06  0.00000E+00  9.000E+00
#rwgt            2          11   2.8455364151539347E-003           3      216963           0
</event>
<event>
      5   9999  3.32201E-02  3.39684E+01 -1.00000E+00  1.49385E-01
       2    -1     0     0   502     0  0.000000000E+00  0.000000000E+00  2.216421571E+03  2.216421571E+03  0.000000000E+00  0.00000E+00  9.000E+00
      21    -1     0     0   501   502  0.000000000E+00  0.000000000E+00 -9.986618637E+01  9.986618637E+01  0.000000000E+00  0.00000E+00  9.000E+00
      25     1     1     2     0     0 -5.785518989E+01  9.251848821E+01  4.642383501E+01  1.722993503E+02  1.250000000E+02  0.00000E+00  9.000E+00
      25     1     1     2     0     0  3.561229910E+01 -6.684544787E+01  1.084112393E+02  1.819740272E+02  1.250000000E+02  0.00000E+00  9.000E+00
       2     1     1     2   501     0  2.224289080E+01 -2.567304034E+01  1.961720311E+03  1.962014380E+03  3.051757812E-05  0.00000E+00  9.000E+00
#rwgt            1           1   8.3414652768137185E-002           3      217013           0
</event>
<event>
      5   9999  3.19816E-02  7.30974E+01 -1.00000E+00  1.30275E-01
      21    -1     0     0   502   501  0.000000000E+00  0.000000000E+00  7.048059747E+02  7.048059747E+02  0.000000000E+00  0.00000E+00  9.000E+00
      21    -1     0     0   501   511  0.000000000E+00  0.000000000E+00 -9.210757709E+01  9.210757709E+01  0.000000000E+00  0.00000E+00  9.000E+00
      25     1     1     2     0     0  1.194082322E+02  4.784183047E+01  1.661955326E+02  2.445263211E+02  1.250000000E+02  0.00000E+00  9.000E+00
      25     1     1     2     0     0 -1.910532801E+02 -3.334272150E+01  4.105065678E+02  4.709073530E+02  1.250000000E+02  0.00000E+00  9.000E+00
      21     1     1     2   502   511  7.164504790E+01 -1.449910897E+01  3.599629723E+01  8.147987766E+01  9.536743164E-07  0.00000E+00  9.000E+00
#rwgt            1           1   2.8703829144690229E-002           3      217078           0
</event>
<event>
      5   9999  3.19816E-02  1.74100E+01 -1.00000E+00  1.71497E-01
      21    -1     0     0   512   501  0.000000000E+00  0.000000000E+00  2.171607403E+02  2.171607403E+02  0.000000000E+00  0.00000E+00  9.000E+00
      21    -1     0     0   501   502  0.000000000E+00  0.000000000E+00 -8.389708501E+02  8.389708501E+02  0.000000000E+00  0.00000E+00  9.000E+00
      25     1     1     2     0     0 -3.122279553E+02  1.994638559E+02 -3.878702524E+02  5.507635233E+02  1.250000000E+02  0.00000E+00  9.000E+00
      25     1     1     2     0     0  2.950890019E+02 -2.025238434E+02 -2.699339589E+02  4.653845381E+02  1.250000000E+02  0.00000E+00  9.000E+00
      21     1     1     2   512   502  1.713895343E+01  3.059987441E+00  3.599410152E+01  3.998352901E+01  9.536743164E-07  0.00000E+00  9.000E+00
#rwgt            1           1   2.8565190161927261E-002           3      217144           0
</event>
<event>
      5   9999  3.19816E-02  1.59277E+02 -1.00000E+00  1.15370E-01
       2    -1     0     0   502     0  0.000000000E+00  0.000000000E+00  9.521921060E+01  9.521921060E+01  0.000000000E+00  0.00000E+00  9.000E+00
      21    -1     0     0   501   502  0.000000000E+00  0.000000000E+00 -1.597384096E+03  1.597384096E+03  0.000000000E+00  0.00000E+00  9.000E+00
      25     1     1     2     0     0  9.441267236E+01 -1.130971989E+02 -3.095617479E+02  3.649084883E+02  1.250000000E+02  0.00000E+00  9.000E+00
      25     1     1     2     0     0  6.085004162E+01  1.486326055E+02 -1.142847078E+03  1.160826784E+03  1.250000000E+02  0.00000E+00  9.000E+00
       2     1     1     2   501     0 -1.552627140E+02 -3.553540659E+01 -4.975605995E+01  1.668680346E+02  3.303624740E-06  0.00000E+00  9.000E+00
#rwgt            1           1   3.5866021707165123E-002           3      217350           0
</event>
<event>
      5   9999  3.19816E-02  8.50615E+00 -1.00000E+00  2.04247E-01
      21    -1     0     0   502   501  0.000000000E+00  0.000000000E+00  1.759517347E+02  1.759517347E+02  0.000000000E+00  0.00000E+00  9.000E+00
      21    -1     0     0   501   511  0.000000000E+00  0.000000000E+00 -3.330470311E+02  3.330470311E+02  0.000000000E+00  0.00000E+00  9.000E+00
      25     1     1     2     0     0  1.010653144E+02  3.463822460E+01  1.069361892E+02  1.961488030E+02  1.250000000E+02  0.00000E+00  9.000E+00
      25     1     1     2     0     0 -9.382715707E+01 -3.017014634E+01 -2.531563532E+02  2.990433285E+02  1.250000000E+02  0.00000E+00  9.000E+00
      21     1     1     2   502   511 -7.238157295E+00 -4.468078262E+00 -1.087513246E+01  1.380663429E+01  2.384185791E-07  0.00000E+00  9.000E+00
#rwgt            1           1   2.5904639744008473E-002           3      217389           0
</event>
<event>
      5   9999  3.19816E-02  2.58536E+02 -1.00000E+00  1.07734E-01
      21    -1     0     0   502   512  0.000000000E+00  0.000000000E+00  2.539927695E+02  2.539927695E+02  0.000000000E+00  0.00000E+00  9.000E+00
      21    -1     0     0   501   502  0.000000000E+00  0.000000000E+00 -7.109201585E+02  7.109201585E+02  0.000000000E+00  0.00000E+00  9.000E+00
      25     1     1     2     0     0 -5.226650641E+01  5.663876951E+01 -3.194002762E+01  1.502827444E+02  1.250000000E+02  0.00000E+00  9.000E+00
      25     1     1     2     0     0  3.255898930E+01 -3.144230450E+02 -4.395854994E+02  5.556818787E+02  1.250000000E+02  0.00000E+00  9.000E+00
      21     1     1     2   501   512  1.970751711E+01  2.577842755E+02  1.459813805E+01  2.589483048E+02  5.063238283E-06  0.00000E+00  9.000E+00
#rwgt            1           1   2.6244451556092629E-002           3      217643           0
</event>
<event>
      5   9999  3.19816E-02  9.94216E+01 -1.00000E+00  1.23941E-01
      21    -1     0     0   511   501  0.000000000E+00  0.000000000E+00  1.675345106E+03  1.675345106E+03  0.000000000E+00  0.00000E+00  9.000E+00
      21    -1     0     0   501   502  0.000000000E+00  0.000000000E+00 -2.096004266E+02  2.096004266E+02  0.000000000E+00  0.00000E+00  9.000E+00
      25     1     1     2     0     0 -4.755253996E+02 -7.825060765E+01  6.238406262E+02  7.981539264E+02  1.250000000E+02  0.00000E+00  9.000E+00
      25     1     1     2     0     0  5.562602316E+02  1.362724476E+02  6.919311981E+02  9.068568840E+02  1.250000000E+02  0.00000E+00  9.000E+00
      21     1     1     2   511   502 -8.073483196E+01 -5.802183995E+01  1.499728549E+02  1.799347221E+02  1.907348633E-06  0.00000E+00  9.000E+00
#rwgt            1           1   2.7096859645203045E-002           3      217683           0
</event>
<event>
      5   9999  3.19816E-02  1.17882E+02 -1.00000E+00  1.20698E-01
       2    -1     0     0   502     0  0.000000000E+00  0.000000000E+00  1.807117078E+03  1.807117078E+03  0.000000000E+00  0.00000E+00  9.000E+00
      21    -1     0     0   501   502  0.000000000E+00  0.000000000E+00 -1.718396039E+02  1.718396039E+02  0.000000000E+00  0.00000E+00  9.000E+00
      25     1     1     2     0     0 -1.033159611E+02 -2.146726870E+02 -3.418030097E+01  2.712044309E+02  1.250000000E+02  0.00000E+00  9.000E+00
      25     1     1     2     0     0  1.010988845E+02  9.681181654E+01  5.305993129E+02  5.628091534E+02  1.250000000E+02  0.00000E+00  9.000E+00
       2     1     1     2   501     0  2.217076643E+00  1.178608704E+02  1.138858462E+03  1.144943097E+03  0.000000000E+00  0.00000E+00  9.000E+00
#rwgt            2          18   1.2622815025237378E-003           3      217798           0
</event>
<event>
      5   9999  3.19816E-02  1.71708E+02 -1.00000E+00  1.14114E-01
      21    -1     0     0   502   501  0.000000000E+00  0.000000000E+00  1.206242422E+02  1.206242422E+02  0.000000000E+00  0.00000E+00  9.000E+00
       2    -1     0     0   501     0  0.000000000E+00  0.000000000E+00 -2.513409751E+03  2.513409751E+03  0.000000000E+00  0.00000E+00  9.000E+00
      25     1     1     2     0     0 -1.203233720E+02  2.630717579E+02 -2.297884649E+02  3.900156436E+02  1.250000000E+02  0.00000E+00  9.000E+00
      25     1     1     2     0     0 -8.505536706E+00 -3.765911314E+02 -1.149711340E+03  1.216287133E+03  1.250000000E+02  0.00000E+00  9.000E+00
       2     1     1     2   502     0  1.288289087E+02  1.135193735E+02 -1.013285703E+03  1.027731216E+03  1.078959322E-05  0.00000E+00  9.000E+00
#rwgt            1           1   2.1715216810354404E-002           3      217817           0
</event>
<event>
      5   9999  3.19816E-02  1.90900E+01 -1.00000E+00  1.68055E-01
      21    -1     0     0   502   501  0.000000000E+00  0.000000000E+00  2.272967213E+02  2.272967213E+02  0.000000000E+00  0.00000E+00  9.000E+00
      21    -1     0     0   511   502  0.000000000E+00  0.000000000E+00 -8.346852149E+02  8.346852149E+02  0.000000000E+00  0.00000E+00  9.000E+00
      25     1     1     2     0     0  7.485033595E+01 -5.905674237E+01 -7.353076854E+02  7.519259696E+02  1.250000000E+02  0.00000E+00  9.000E+00
      25     1     1     2     0     0 -5.585207684E+01  6.092609135E+01  1.917905424E+02  2.433928003E+02  1.250000000E+02  0.00000E+00  9.000E+00
      21     1     1     2   511   501 -1.899825911E+01 -1.869348975E+00 -6.387135057E+01  6.666316628E+01  9.536743164E-07  0.00000E+00  9.000E+00
#rwgt            1           1   2.3417493953607864E-002           3      217862           0
</event>
<event>
      5   9999  3.19816E-02  1.46176E+02 -1.00000E+00  1.16840E-01
      21    -1     0     0   502   501  0.000000000E+00  0.000000000E+00  4.639485829E+02  4.639485829E+02  0.000000000E+00  0.00000E+00  9.000E+00
       2    -1     0     0   501     0  0.000000000E+00  0.000000000E+00 -2.189872943E+02  2.189872943E+02  0.000000000E+00  0.00000E+00  9.000E+00
      25     1     1     2     0     0  2.300504929E+02 -1.022460465E+02  4.433059489E+01  2.845482120E+02  1.250000000E+02  0.00000E+00  9.000E+00
      25     1     1     2     0     0 -1.286293693E+02 -3.020714672E+00  4.514708677E+01  1.849808066E+02  1.250000000E+02  0.00000E+00  9.000E+00
       2     1     1     2   502     0 -1.014211236E+02  1.052667612E+02  1.554836069E+02  2.134068587E+02  3.814697266E-06  0.00000E+00  9.000E+00
#rwgt            1           1   2.5283095487238675E-002           3      218006           0
</event>
<event>
      5   9999  3.19816E-02  1.68752E+01 -1.00000E+00  1.72696E-01
      21    -1     0     0   502   501  0.000000000E+00  0.000000000E+00  5.065801764E+02  5.065801764E+02  0.000000000E+00  0.00000E+00  9.000E+00
      21    -1     0     0   501   511  0.000000000E+00  0.000000000E+00 -3.717826672E+02  3.717826672E+02  0.000000000E+00  0.00000E+00  9.000E+00
      25     1     1     2     0     0  2.419724112E+02  5.372943395E+01  5.370674162E+01  2.827488531E+02  1.250000000E+02  0.00000E+00  9.000E+00
      25     1     1     2     0     0 -2.386816409E+02 -3.717824421E+01  2.832849476E+02  3.927168307E+02  1.250000000E+02  0.00000E+00  9.000E+00
      21     1     1     2   502   511 -3.290770308E+00 -1.655118974E+01 -2.021941801E+02  2.028971599E+02  3.814697266E-06  0.00000E+00  9.000E+00
#rwgt            1           1   2.7777141043943358E-002           3      218070           0
</event>
<event>
      5   9999  3.19816E-02  1.69762E+01 -1.00000E+00  1.72465E-01
      21    -1     0     0   502   501  0.000000000E+00  0.000000000E+00  4.074982066E+02  4.074982066E+02  0.000000000E+00  0.00000E+00  9.000E+00
      21    -1     0     0   512   502  0.000000000E+00  0.000000000E+00 -5.816768658E+02  5.816768658E+02  0.000000000E+00  0.00000E+00  9.000E+00
      25     1     1     2     0     0 -3.551315055E+02 -1.665646347E+02  1.504247968E+02  4.383090043E+02  1.250000000E+02  0.00000E+00  9.000E+00
      25     1     1     2     0     0  3.502091658E+02  1.503177477E+02 -2.461388750E+02  4.705860504E+02  1.250000000E+02  0.00000E+00  9.000E+00
      21     1     1     2   512   501  4.922339715E+00  1.624688697E+01 -7.846458096E+01  8.028001762E+01  1.348699152E-06  0.00000E+00  9.000E+00
#rwgt            1           1   3.0166594262559406E-002           3      218226           0
</event>
<event>
      5   9999  3.19816E-02  4.72931E+01 -1.00000E+00  1.40469E-01
      21    -1     0     0   502   501  0.000000000E+00  0.000000000E+00  8.034275450E+02  8.034275450E+02  0.000000000E+00  0.00000E+00  9.000E+00
      21    -1     0     0   501   511  0.000000000E+00  0.000000000E+00 -4.097378942E+02  4.097378942E+02  0.000000000E+00  0.00000E+00  9.000E+00
      25     1     1     2     0     0  4.452226603E+02 -7.494043470E+01  4.919334630E+02  6.793105461E+02  1.250000000E+02  0.00000E+00  9.000E+00
      25     1     1     2     0     0 -4.504773591E+02  2.794013415E+01 -5.829406024E+01  4.719467127E+02  1.250000000E+02  0.00000E+00  9.000E+00
      21     1     1     2   502   511  5.254698764E+00  4.700030054E+01 -3.994975202E+01  6.190818037E+01  9.536743164E-07  0.00000E+00  9.000E+00
#rwgt            1           1   2.8334482916836837E-002           3      218441           0
</event>
<event>
      5   9999  3.19816E-02  1.52175E+02 -1.00000E+00  1.16146E-01
      21    -1     0     0   502   501  0.000000000E+00  0.000000000E+00  1.996780778E+01  1.996780778E+01  0.000000000E+00  0.00000E+00  9.000E+00
       3    -1     0     0   501     0  0.000000000E+00  0.000000000E+00 -3.833514012E+03  3.833514012E+03  0.000000000E+00  0.00000E+00  9.000E+00
      25     1     1     2     0     0 -8.299807455E+01 -4.298094022E+01 -4.974378756E+02  5.213496732E+02  1.250000000E+02  0.00000E+00  9.000E+00
      25     1     1     2     0     0  2.550045544E+00 -8.619058674E+01 -1.050518201E+03  1.061437144E+03  1.250000000E+02  0.00000E+00  9.000E+00
       3     1     1     2   502     0  8.044802901E+01  1.291715270E+02 -2.265590127E+03  2.270695002E+03  3.051757812E-05  0.00000E+00  9.000E+00
#rwgt            2          14   6.6675956633114922E-005           3      218667           0
</event>
<event>
      5   9999  3.19816E-02  6.35511E+01 -1.00000E+00  1.33382E-01
      21    -1     0     0   511   501  0.000000000E+00  0.000000000E+00  7.448393147E+02  7.448393147E+02  0.000000000E+00  0.00000E+00  9.000E+00
      21    -1     0     0   501   502  0.000000000E+00  0.000000000E+00 -1.180111367E+02  1.180111367E+02  0.000000000E+00  0.00000E+00  9.000E+00
      25     1     1     2     0     0  1.819909286E+02  2.743621910E+01  2.172270627E+02  3.109437907E+02  1.250000000E+02  0.00000E+00  9.000E+00
      25     1     1     2     0     0 -2.433127427E+02 -4.412103710E+01  2.258132831E+02  3.574414574E+02  1.250000000E+02  0.00000E+00  9.000E+00
      21     1     1     2   511   502  6.132181411E+01  1.668481800E+01  1.837878322E+02  1.944652033E+02  0.000000000E+00  0.00000E+00  9.000E+00
#rwgt            1           1   2.6498952803429808E-002           3      218686           0
</event>
<event>
      5   9999  3.19816E-02  1.28766E+01 -1.00000E+00  1.83865E-01
      21    -1     0     0   502   512  0.000000000E+00  0.000000000E+00  3.741862022E+02  3.741862022E+02  0.000000000E+00  0.00000E+00  9.000E+00
      21    -1     0     0   501   502  0.000000000E+00  0.000000000E+00 -5.083970843E+02  5.083970843E+02  0.000000000E+00  0.00000E+00  9.000E+00
      25     1     1     2     0     0  1.216220246E+02 -3.137906434E+02 -1.814979760E+01  3.594591769E+02  1.250000000E+02  0.00000E+00  9.000E+00
      25     1     1     2     0     0 -1.291777423E+02  3.033638678E+02 -2.218174412E+02  4.165867288E+02  1.250000000E+02  0.00000E+00  9.000E+00
      21     1     1     2   501   512  7.555717667E+00  1.042677560E+01  1.057563567E+02  1.065373807E+02  0.000000000E+00  0.00000E+00  9.000E+00
#rwgt            1           1   2.6196036497801382E-002           3      218780           0
</event>
<event>
      5   9999  3.61136E-02  1.24298E+02 -1.00000E+00  1.19723E-01
      21    -1     0     0   502   501  0.000000000E+00  0.000000000E+00  1.093270699E+02  1.093270699E+02  0.000000000E+00  0.00000E+00  9.000E+00
      21    -1     0     0   511   502  0.000000000E+00  0.000000000E+00 -8.237200165E+02  8.237200165E+02  0.000000000E+00  0.00000E+00  9.000E+00
      25     1     1     2     0     0 -1.798100205E+02  1.168758481E+02 -4.623859651E+02  5.248022371E+02  1.250000000E+02  0.00000E+00  9.000E+00
      25     1     1     2     0     0  8.244174676E+01 -3.961390353E+01 -3.598515846E+01  1.590152024E+02  1.250000000E+02  0.00000E+00  9.000E+00
      21     1     1     2   511   501  9.736827376E+01 -7.726194462E+01 -2.160218231E+02  2.492296469E+02  3.814697266E-06  0.00000E+00  9.000E+00
#rwgt            1           1   3.2090272734496161E-002           3      219045           0
</event>
<event>
      5   9999  3.19816E-02  6.99452E+01 -1.00000E+00  1.31238E-01
      21    -1     0     0   502   512  0.000000000E+00  0.000000000E+00  2.457775267E+02  2.457775267E+02  0.000000000E+00  0.00000E+00  9.000E+00
      21    -1     0     0   501   502  0.000000000E+00  0.000000000E+00 -5.695629377E+02  5.695629377E+02  0.000000000E+00  0.00000E+00  9.000E+00
      25     1     1     2     0     0 -2.809203800E+01 -8.302117687E+01 -4.750063018E+02  4.989365342E+02  1.250000000E+02  0.00000E+00  9.000E+00
      25     1     1     2     0     0  4.903976461E+01  1.497558714E+02  1.411822920E+02  2.457420581E+02  1.250000000E+02  0.00000E+00  9.000E+00
      21     1     1     2   501   512 -2.094772662E+01 -6.673469455E+01  1.003859873E+01  7.066187212E+01  1.488923549E-06  0.00000E+00  9.000E+00
#rwgt            1           1   2.9436230693091654E-002           3      219081           0
</event>
<event>
      5   9999  3.19816E-02  6.64470E+01 -1.00000E+00  1.32377E-01
      21    -1     0     0   502   501  0.000000000E+00  0.000000000E+00  8.166485333E+02  8.166485333E+02  0.000000000E+00  0.00000E+00  9.000E+00
      21    -1     0     0   511   502  0.000000000E+00  0.000000000E+00 -3.906871621E+02  3.906871621E+02  0.000000000E+00  0.00000E+00  9.000E+00
      25     1     1     2     0     0  2.704204459E+02 -1.002289459E+02  8.627442874E+00  3.144399655E+02  1.250000000E+02  0.00000E+00  9.000E+00
      25     1     1     2     0     0 -2.351176644E+02  4.393581378E+01  6.218325695E+02  6.778727140E+02  1.250000000E+02  0.00000E+00  9.000E+00
      21     1     1     2   511   501 -3.530278151E+01  5.629313217E+01 -2.044986412E+02  2.150230159E+02  2.697398305E-06  0.00000E+00  9.000E+00
#rwgt            1           1   2.8248187641450904E-002           3      219153           0
</event>
<event>
      5   9999  3.19816E-02  1.14965E+02 -1.00000E+00  1.21164E-01
      21    -1     0     0   502   512  0.000000000E+00  0.000000000E+00  2.862406569E+02  2.862406569E+02  0.000000000E+00  0.00000E+00  9.000E+00
      21    -1     0     0   501   502  0.000000000E+00  0.000000000E+00 -7.897235673E+02  7.897235673E+02  0.000000000E+00  0.00000E+00  9.000E+00
      25     1     1     2     0     0  3.813821809E+02  1.849330172E+01 -1.512228606E+02  4.292874604E+02  1.250000000E+02  0.00000E+00  9.000E+00
      25     1     1     2     0     0 -2.717636165E+02  1.615779656E+01 -4.179854818E+02  5.142503287E+02  1.250000000E+02  0.00000E+00  9.000E+00
      21     1     1     2   501   512 -1.096185645E+02 -3.465109828E+01  6.572543198E+01  1.324264350E+02  2.697398305E-06  0.00000E+00  9.000E+00
#rwgt            1           1   2.7707196114759570E-002           3      219240           0
</event>
<event>
      5   9999  3.19816E-02  3.88361E+01 -1.00000E+00  1.45640E-01
      21    -1     0     0   502   501  0.000000000E+00  0.000000000E+00  6.282545765E+02  6.282545765E+02  0.000000000E+00  0.00000E+00  9.000E+00
       3    -1     0     0   501     0  0.000000000E+00  0.000000000E+00 -6.098765736E+02  6.098765736E+02  0.000000000E+00  0.00000E+00  9.000E+00
      25     1     1     2     0     0 -3.552792290E+02 -1.326466993E+02  7.960944176E+01  4.071623025E+02  1.250000000E+02  0.00000E+00  9.000E+00
      25     1     1     2     0     0  3.918164482E+02  1.194832264E+02  2.642102837E+02  5.032180883E+02  1.250000000E+02  0.00000E+00  9.000E+00
       3     1     1     2   502     0 -3.653721918E+01  1.316347298E+01 -3.254417226E+02  3.277507593E+02  5.394796609E-06  0.00000E+00  9.000E+00
#rwgt            2          14   6.2097121507352179E-005           3      219339           0
</event>
<event>
      5   9999  3.19816E-02  1.84552E+01 -1.00000E+00  1.69302E-01
      21    -1     0     0   511   501  0.000000000E+00  0.000000000E+00  7.668391639E+02  7.668391639E+02  0.000000000E+00  0.00000E+00  9.000E+00
      21    -1     0     0   501   502  0.000000000E+00  0.000000000E+00 -3.300557762E+02  3.300557762E+02  0.000000000E+00  0.00000E+00  9.000E+00
      25     1     1     2     0     0  3.209867341E+02 -2.105803616E+02  5.351657649E+01  4.072660016E+02  1.250000000E+02  0.00000E+00  9.000E+00
      25     1     1     2     0     0 -3.066461572E+02  2.221968854E+02  1.071931270E+02  4.129390852E+02  1.250000000E+02  0.00000E+00  9.000E+00
      21     1     1     2   511   502 -1.434057684E+01 -1.161652384E+01  2.760736842E+02  2.766898533E+02  3.814697266E-06  0.00000E+00  9.000E+00
#rwgt            1           1   2.7875378560051463E-002           3      219373           0
</event>
<event>
      5   9999  3.19816E-02  9.75258E+01 -1.00000E+00  1.24319E-01
      21    -1     0     0   502   501  0.000000000E+00  0.000000000E+00  5.479008135E+02  5.479008135E+02  0.000000000E+00  0.00000E+00  9.000E+00
       2    -1     0     0   501     0  0.000000000E+00  0.000000000E+00 -3.724860339E+03  3.724860339E+03  0.000000000E+00  0.00000E+00  9.000E+00
      25     1     1     2     0     0  1.267593870E+03 -1.925302046E+02 -1.059958333E+03  1.668232229E+03  1.250000000E+02  0.00000E+00  9.000E+00
      25     1     1     2     0     0 -1.364933600E+03  1.985521946E+02 -1.789591846E+03  2.262903153E+03  1.250000000E+02  0.00000E+00  9.000E+00
       2     1     1     2   502     0  9.733972929E+01 -6.021989952E+00 -3.274093465E+02  3.416257710E+02  5.394796609E-06  0.00000E+00  9.000E+00
#rwgt            1           1   4.1061439087487606E-002           3      219523           0
</event>
<event>
      5   9999  3.19816E-02  6.69574E+01 -1.00000E+00  1.32206E-01
      21    -1     0     0   502   511  0.000000000E+00  0.000000000E+00  2.322048195E+02  2.322048195E+02  0.000000000E+00  0.00000E+00  9.000E+00
      21    -1     0     0   501   502  0.000000000E+00  0.000000000E+00 -3.587772675E+02  3.587772675E+02  0.000000000E+00  0.00000E+00  9.000E+00
      25     1     1     2     0     0  6.412433357E+01  4.040944890E+01 -2.947820941E+02  3.290385034E+02  1.250000000E+02  0.00000E+00  9.000E+00
      25     1     1     2     0     0 -1.195825023E+00 -1.753382958E+01  7.386309679E+01  1.462519136E+02  1.250000000E+02  0.00000E+00  9.000E+00
      21     1     1     2   501   511 -6.292850854E+01 -2.287561931E+01  9.434654932E+01  1.156916700E+02  0.000000000E+00  0.00000E+00  9.000E+00
#rwgt            1           1   2.4908310970250092E-002           3      219650           0
</event>
<event>
      5   9999  3.19816E-02  3.60976E+01 -1.00000E+00  1.47660E-01
      21    -1     0     0   502   501  0.000000000E+00  0.000000000E+00  3.650019975E+02  3.650019975E+02  0.000000000E+00  0.00000E+00  9.000E+00
      21    -1     0     0   512   502  0.000000000E+00  0.000000000E+00 -1.442621511E+02  1.442621511E+02  0.000000000E+00  0.00000E+00  9.000E+00
      25     1     1     2     0     0 -1.055065725E+02 -5.881361319E+00  2.550130516E+02  3.030229095E+02  1.250000000E+02  0.00000E+00  9.000E+00
      25     1     1     2     0     0  1.005767155E+02  4.164078415E+01 -3.767880874E+01  1.699833028E+02  1.250000000E+02  0.00000E+00  9.000E+00
      21     1     1     2   512   501  4.929857004E+00 -3.575942283E+01  3.405603611E+00  3.625793634E+01  5.809542146E-07  0.00000E+00  9.000E+00
#rwgt            1           1   2.7754104820835273E-002           3      219718           0
</event>
<event>
      5   9999  3.19816E-02  7.83200E+01 -1.00000E+00  1.28797E-01
      21    -1     0     0   502   501  0.000000000E+00  0.000000000E+00  4.782967638E+02  4.782967638E+02  0.000000000E+00  0.00000E+00  9.000E+00
      21    -1     0     0   511   502  0.000000000E+00  0.000000000E+00 -1.310235111E+02  1.310235111E+02  0.000000000E+00  0.00000E+00  9.000E+00
      25     1     1     2     0     0 -5.735602832E+00  1.475168668E+02  2.629453457E+02  3.264343394E+02  1.250000000E+02  0.00000E+00  9.000E+00
      25     1     1     2     0     0  6.646867414E+01 -9.806462531E+01  1.052302925E+02  2.018246017E+02  1.250000000E+02  0.00000E+00  9.000E+00
      21     1     1     2   511   501 -6.073307131E+01 -4.945224148E+01 -2.090238544E+01  8.106133391E+01  6.743495762E-07  0.00000E+00  9.000E+00
#rwgt            1           1   3.0727419175605761E-002           3      219810           0
</event>
<event>
      5   9999  3.19816E-02  2.37841E+02 -1.00000E+00  1.08975E-01
      21    -1     0     0   502   501  0.000000000E+00  0.000000000E+00  5.457560077E+02  5.457560077E+02  0.000000000E+00  0.00000E+00  9.000E+00
       2    -1     0     0   501     0  0.000000000E+00  0.000000000E+00 -2.345339852E+03  2.345339852E+03  0.000000000E+00  0.00000E+00  9.000E+00
      25     1     1     2     0     0 -2.242408568E+02 -2.793095621E+02  3.291310768E+02  5.022450189E+02  1.250000000E+02  0.00000E+00  9.000E+00
      25     1     1     2     0     0  4.184783937E+02  1.420506781E+02 -3.087306839E+02  5.533915398E+02  1.250000000E+02  0.00000E+00  9.000E+00
       2     1     1     2   502     0 -1.942375369E+02  1.372588840E+02 -1.819984237E+03  1.835459301E+03  2.157918644E-05  0.00000E+00  9.000E+00
#rwgt            1           1   3.1497006474503444E-002           3      219861           0
</event>
<event>
      5   9999  3.19816E-02  5.85322E+01 -1.00000E+00  1.35281E-01
      21    -1     0     0   502   501  0.000000000E+00  0.000000000E+00  5.527992516E+02  5.527992516E+02  0.000000000E+00  0.00000E+00  9.000E+00
      21    -1     0     0   501   511  0.000000000E+00  0.000000000E+00 -9.466771524E+01  9.466771524E+01  0.000000000E+00  0.00000E+00  9.000E+00
      25     1     1     2     0     0  2.878562305E+01  8.027872602E+01  5.878666939E+01  1.623396392E+02  1.250000000E+02  0.00000E+00  9.000E+00
      25     1     1     2     0     0 -4.216269986E+01 -1.372618302E+02  3.772478989E+02  4.225629901E+02  1.250000000E+02  0.00000E+00  9.000E+00
      21     1     1     2   502   511  1.337707682E+01  5.698310421E+01  2.209696805E+01  6.256433766E+01  8.920806376E-07  0.00000E+00  9.000E+00
#rwgt            1           1   2.6291206575234208E-002           3      219930           0
</event>
<event>
      5   9999  3.19816E-02  6.47117E+01 -1.00000E+00  1.32972E-01
      21    -1     0     0   502   501  0.000000000E+00  0.000000000E+00  6.374924490E+02  6.374924490E+02  0.000000000E+00  0.00000E+00  9.000E+00
      21    -1     0     0   512   502  0.000000000E+00  0.000000000E+00 -5.419974931E+02  5.419974931E+02  0.000000000E+00  0.00000E+00  9.000E+00
      25     1     1     2     0     0 -1.983689617E+02 -2.156129880E+02  4.074795163E+02  5.172076582E+02  1.250000000E+02  0.00000E+00  9.000E+00
      25     1     1     2     0     0  2.228405391E+02  1.557068315E+02  4.225509652E+01  3.021804369E+02  1.250000000E+02  0.00000E+00  9.000E+00
      21     1     1     2   512   501 -2.447157742E+01  5.990615644E+01 -3.542396569E+02  3.601018469E+02  3.814697266E-06  0.00000E+00  9.000E+00
#rwgt            1           1   2.8627264996253440E-002           3      220008           0
</event>
<event>
      5   9999  3.19816E-02  4.37261E+01 -1.00000E+00  1.42481E-01
      21    -1     0     0   502   501  0.000000000E+00  0.000000000E+00  2.756677689E+02  2.756677689E+02  0.000000000E+00  0.00000E+00  9.000E+00
      21    -1     0     0   501   511  0.000000000E+00  0.000000000E+00 -1.532936479E+03  1.532936479E+03  0.000000000E+00  0.00000E+00  9.000E+00
      25     1     1     2     0     0 -7.583868157E+01  8.433968539E+01  2.432371612E+02  2.960641902E+02  1.250000000E+02  0.00000E+00  9.000E+00
      25     1     1     2     0     0  6.348150653E+01 -4.239600437E+01 -1.123469960E+03  1.132977084E+03  1.250000000E+02  0.00000E+00  9.000E+00
      21     1     1     2   502   511  1.235717504E+01 -4.194368102E+01 -3.770359121E+02  3.795629739E+02  7.629394531E-06  0.00000E+00  9.000E+00
#rwgt            1           1   3.0945466763616276E-002           3      220122           0
</event>
<event>
      5   9999  3.19816E-02  2.59349E+01 -1.00000E+00  1.57566E-01
      21    -1     0     0   512   501  0.000000000E+00  0.000000000E+00  1.813791006E+02  1.813791006E+02  0.000000000E+00  0.00000E+00  9.000E+00
      21    -1     0     0   501   502  0.000000000E+00  0.000000000E+00 -2.239935766E+02  2.239935766E+02  0.000000000E+00  0.00000E+00  9.000E+00
      25     1     1     2     0     0 -1.030718746E+02 -5.118034560E+01  6.095482630E+00  1.700158640E+02  1.250000000E+02  0.00000E+00  9.000E+00
      25     1     1     2     0     0  1.163649329E+02  7.344940766E+01 -7.309482778E+01  1.997585216E+02  1.250000000E+02  0.00000E+00  9.000E+00
      21     1     1     2   512   502 -1.329305828E+01 -2.226906206E+01  2.438486918E+01  3.559829165E+01  5.840038640E-07  0.00000E+00  9.000E+00
#rwgt            1           1   2.4982751484814353E-002           3      220264           0
</event>
<event>
      5   9999  3.19816E-02  4.07230E+02 -1.00000E+00  1.01452E-01
       2    -1     0     0   502     0  0.000000000E+00  0.000000000E+00  2.560390704E+03  2.560390704E+03  0.000000000E+00  0.00000E+00  9.000E+00
      21    -1     0     0   501   502  0.000000000E+00  0.000000000E+00 -1.358678511E+02  1.358678511E+02  0.000000000E+00  0.00000E+00  9.000E+00
      25     1     1     2     0     0 -2.063093084E+02  3.009188570E+00  2.412313583E+02  3.411600125E+02  1.250000000E+02  0.00000E+00  9.000E+00
      25     1     1     2     0     0  4.167530284E+01  3.694576367E+02  1.574769223E+03  1.622885973E+03  1.250000000E+02  0.00000E+00  9.000E+00
       2     1     1     2   501     0  1.646340055E+02 -3.724668252E+02  6.085222718E+02  7.322125695E+02  1.078959322E-05  0.00000E+00  9.000E+00
#rwgt            1           1   3.0067381901153340E-002           3      220342           0
</event>
<event>
      5   9999  3.19816E-02  1.33305E+02 -1.00000E+00  1.18461E-01
      21    -1     0     0   502   501  0.000000000E+00  0.000000000E+00  1.470933848E+03  1.470933848E+03  0.000000000E+00  0.00000E+00  9.000E+00
      21    -1     0     0   511   502  0.000000000E+00  0.000000000E+00 -4.779578196E+02  4.779578196E+02  0.000000000E+00  0.00000E+00  9.000E+00
      25     1     1     2     0     0  1.436593358E+02  9.409244618E+01 -2.727437368E+02  3.456957321E+02  1.250000000E+02  0.00000E+00  9.000E+00
      25     1     1     2     0     0 -1.552640316E+02 -2.268911649E+02  1.389102721E+03  1.421554744E+03  1.250000000E+02  0.00000E+00  9.000E+00
      21     1     1     2   511   501  1.160469579E+01  1.327987187E+02 -1.233829560E+02  1.816411916E+02  4.046097457E-06  0.00000E+00  9.000E+00
#rwgt            1           1   2.9284250005708126E-002           3      220387           0
</event>
<event>
      5   9999  3.19816E-02  2.44981E+01 -1.00000E+00  1.59413E-01
      21    -1     0     0   502   501  0.000000000E+00  0.000000000E+00  9.704314939E+02  9.704314939E+02  0.000000000E+00  0.00000E+00  9.000E+00
       2    -1     0     0   501     0  0.000000000E+00  0.000000000E+00 -8.172665652E+02  8.172665652E+02  0.000000000E+00  0.00000E+00  9.000E+00
      25     1     1     2     0     0 -1.861177687E+02  4.729562530E+01  9.095330566E+01  2.465242458E+02  1.250000000E+02  0.00000E+00  9.000E+00
      25     1     1     2     0     0  1.876514494E+02 -7.174569700E+01  7.840218539E+02  8.189479708E+02  1.250000000E+02  0.00000E+00  9.000E+00
       2     1     1     2   502     0 -1.533680727E+00  2.445007169E+01 -7.218102308E+02  7.222258425E+02  0.000000000E+00  0.00000E+00  9.000E+00
#rwgt            1           1   3.0670529784709109E-002           3      220468           0
</event>
<event>
      5   9999  3.19816E-02  1.02010E+02 -1.00000E+00  1.23440E-01
       3    -1     0     0   502     0  0.000000000E+00  0.000000000E+00  2.195926473E+02  2.195926473E+02  0.000000000E+00  0.00000E+00  9.000E+00
      21    -1     0     0   501   502  0.000000000E+00  0.000000000E+00 -6.978851830E+02  6.978851830E+02  0.000000000E+00  0.00000E+00  9.000E+00
      25     1     1     2     0     0 -2.235592423E+02 -1.710823369E+02 -1.176385748E+02  3.297146268E+02  1.250000000E+02  0.00000E+00  9.000E+00
      25     1     1     2     0     0  2.802575507E+02  8.628088674E+01 -1.470515849E+02  3.510524957E+02  1.250000000E+02  0.00000E+00  9.000E+00
       3     1     1     2   501     0 -5.669830836E+01  8.480145016E+01 -2.136023760E+02  2.367107078E+02  0.000000000E+00  0.00000E+00  9.000E+00
#rwgt            1           1   2.6523564746047206E-002           3      220623           0
</event>
<event>
      5   9999  3.19816E-02  2.45475E+02 -1.00000E+00  1.08502E-01
      21    -1     0     0   502   501  0.000000000E+00  0.000000000E+00  9.029434309E+02  9.029434309E+02  0.000000000E+00  0.00000E+00  9.000E+00
      21    -1     0     0   501   511  0.000000000E+00  0.000000000E+00 -3.509202327E+02  3.509202327E+02  0.000000000E+00  0.00000E+00  9.000E+00
      25     1     1     2     0     0  6.281603410E+01 -4.106597965E+02  6.270214152E+02  7.624750342E+02  1.250000000E+02  0.00000E+00  9.000E+00
      25     1     1     2     0     0 -5.443578695E+01  1.653280765E+02 -1.141677927E+02  2.428083867E+02  1.250000000E+02  0.00000E+00  9.000E+00
      21     1     1     2   502   511 -8.380247147E+00  2.453317200E+02  3.916957561E+01  2.485802427E+02  3.015782986E-06  0.00000E+00  9.000E+00
#rwgt            1           1   3.2019715807387536E-002           3      220688           0
</event>
<event>
      5   9999  3.19816E-02  1.15876E+02 -1.00000E+00  1.21016E-01
      21    -1     0     0   512   501  0.000000000E+00  0.000000000E+00  3.950179698E+02  3.950179698E+02  0.000000000E+00  0.00000E+00  9.000E+00
      21    -1     0     0   501   502  0.000000000E+00  0.000000000E+00 -9.609844282E+02  9.609844282E+02  0.000000000E+00  0.00000E+00  9.000E+00
      25     1     1     2     0     0  4.697664551E+02  1.576936539E+02 -3.412215699E+02  6.144957042E+02  1.250000000E+02  0.00000E+00  9.000E+00
      25     1     1     2     0     0 -5.361349638E+02 -6.270707727E+01 -2.709290960E+02  6.167661242E+02  1.250000000E+02  0.00000E+00  9.000E+00
      21     1     1     2   512   502  6.636850870E+01 -9.498657659E+01  4.618420745E+01  1.247405696E+02  1.907348633E-06  0.00000E+00  9.000E+00
#rwgt            1           1   2.6784982958713899E-002           3      220742           0
</event>
<event>
      5   9999  3.19816E-02  7.41791E+02 -1.00000E+00  9.42172E-02
       2    -1     0     0   502     0  0.000000000E+00  0.000000000E+00  3.596224741E+03  3.596224741E+03  0.000000000E+00  0.00000E+00  9.000E+00
      21    -1     0     0   501   502  0.000000000E+00  0.000000000E+00 -1.776756389E+03  1.776756389E+03  0.000000000E+00  0.00000E+00  9.000E+00
      25     1     1     2     0     0 -5.563328229E+02 -6.824615959E+02 -1.496965365E+03  1.741203706E+03  1.250000000E+02  0.00000E+00  9.000E+00
      25     1     1     2     0     0 -1.819817405E+02  6.107268161E+02  9.418940028E+02  1.144069015E+03  1.250000000E+02  0.00000E+00  9.000E+00
       2     1     1     2   501     0  7.383145634E+02  7.173477983E+01  2.374539715E+03  2.487708409E+03  3.051757812E-05  0.00000E+00  9.000E+00
#rwgt            1           1   5.4748309569458864E-002           3      220821           0
</event>
<event>
      5   9999  3.19816E-02  1.61960E+02 -1.00000E+00  1.15088E-01
      21    -1     0     0   502   501  0.000000000E+00  0.000000000E+00  1.738800833E+03  1.738800833E+03  0.000000000E+00  0.00000E+00  9.000E+00
       1    -1     0     0   501     0  0.000000000E+00  0.000000000E+00 -4.490812503E+02  4.490812503E+02  0.000000000E+00  0.00000E+00  9.000E+00
      25     1     1     2     0     0 -6.286167498E+02 -2.281683258E+02  3.476530942E+02  7.640075111E+02  1.250000000E+02  0.00000E+00  9.000E+00
      25     1     1     2     0     0  7.760214142E+02  1.610657399E+02  9.707260491E+02  1.259398853E+03  1.250000000E+02  0.00000E+00  9.000E+00
       1     1     1     2   502     0 -1.474046643E+02  6.710258590E+01 -2.865956010E+01  1.644757200E+02  3.216442481E-06  0.00000E+00  9.000E+00
#rwgt            1           1   2.1275865662335899E-002           3      220856           0
</event>
<event>
      5   9999  3.19816E-02  5.84906E+01 -1.00000E+00  1.35297E-01
      21    -1     0     0   511   501  0.000000000E+00  0.000000000E+00  6.120806300E+02  6.120806300E+02  0.000000000E+00  0.00000E+00  9.000E+00
      21    -1     0     0   501   502  0.000000000E+00  0.000000000E+00 -6.176534599E+02  6.176534599E+02  0.000000000E+00  0.00000E+00  9.000E+00
      25     1     1     2     0     0 -5.121382089E+02  2.066863617E+02 -1.599364404E+02  5.883956680E+02  1.250000000E+02  0.00000E+00  9.000E+00
      25     1     1     2     0     0  5.258707572E+02 -1.498306974E+02  1.203296973E+02  5.736667388E+02  1.250000000E+02  0.00000E+00  9.000E+00
      21     1     1     2   511   502 -1.373254826E+01 -5.685566431E+01  3.403391320E+01  6.767168310E+01  4.768371582E-07  0.00000E+00  9.000E+00
#rwgt            1           1   2.3817873204241044E-002           3      220937           0
</event>
<event>
      5   9999  3.19816E-02  2.92107E+02 -1.00000E+00  1.05970E-01
      21    -1     0     0   502   501  0.000000000E+00  0.000000000E+00  3.731867815E+02  3.731867815E+02  0.000000000E+00  0.00000E+00  9.000E+00
      21    -1     0     0   501   512  0.000000000E+00  0.000000000E+00 -7.908432530E+02  7.908432530E+02  0.000000000E+00  0.00000E+00  9.000E+00
      25     1     1     2     0     0 -1.436075221E+02 -1.855388718E+02 -4.381369773E+02  5.124810282E+02  1.250000000E+02  0.00000E+00  9.000E+00
      25     1     1     2     0     0  1.841821255E+02 -1.037367924E+02  1.929617673E+02  3.123197418E+02  1.250000000E+02  0.00000E+00  9.000E+00
      21     1     1     2   502   512 -4.057460341E+01  2.892756642E+02 -1.724812616E+02  3.392292645E+02  4.672030912E-06  0.00000E+00  9.000E+00
#rwgt            1           1   2.5418310075889721E-002           3      221058           0
</event>
<event>
      5   9999  3.19816E-02  1.62592E+01 -1.00000E+00  1.74148E-01
      21    -1     0     0   511   501  0.000000000E+00  0.000000000E+00  1.054657967E+02  1.054657967E+02  0.000000000E+00  0.00000E+00  9.000E+00
      21    -1     0     0   501   502  0.000000000E+00  0.000000000E+00 -7.916287862E+02  7.916287862E+02  0.000000000E+00  0.00000E+00  9.000E+00
      25     1     1     2     0     0 -9.573732233E+01 -2.115905918E+02 -3.093085155E+02  4.064885868E+02  1.250000000E+02  0.00000E+00  9.000E+00
      25     1     1     2     0     0  1.073229937E+02  2.001829710E+02 -3.909390699E+02  4.690946634E+02  1.250000000E+02  0.00000E+00  9.000E+00
      21     1     1     2   511   502 -1.158567137E+01  1.140762078E+01  1.408459596E+01  2.151133274E+01  5.331201500E-07  0.00000E+00  9.000E+00
#rwgt            1           1   2.8221601236727109E-002           3      221121           0
</event>
<event>
      5   9999  3.19816E-02  2.65855E+01 -1.00000E+00  1.56776E-01
       1    -1     0     0   502     0  0.000000000E+00  0.000000000E+00  9.737652397E+01  9.737652397E+01  0.000000000E+00  0.00000E+00  9.000E+00
      21    -1     0     0   501   502  0.000000000E+00  0.000000000E+00 -1.126731402E+03  1.126731402E+03  0.000000000E+00  0.00000E+00  9.000E+00
      25     1     1     2     0     0  2.275660700E+02  1.291721081E+02 -7.576112179E+02  8.112160669E+02  1.250000000E+02  0.00000E+00  9.000E+00
      25     1     1     2     0     0 -2.289566763E+02 -1.026230143E+02 -2.643360833E+02  3.852936642E+02  1.250000000E+02  0.00000E+00  9.000E+00
       1     1     1     2   501     0  1.390606299E+00 -2.654909377E+01 -7.407576769E+00  2.759819486E+01  4.768371582E-07  0.00000E+00  9.000E+00
#rwgt            1           1   2.7586759243868532E-002           3      221309           0
</event>
<event>
      5   9999  3.19816E-02  4.12844E+01 -1.00000E+00  1.43994E-01
      21    -1     0     0   502   501  0.000000000E+00  0.000000000E+00  7.692224300E+02  7.692224300E+02  0.000000000E+00  0.00000E+00  9.000E+00
      -1    -1     0     0     0   502  0.000000000E+00  0.000000000E+00 -6.567632100E+01  6.567632100E+01  0.000000000E+00  0.00000E+00  9.000E+00
      25     1     1     2     0     0 -7.025659776E+00 -1.411429831E+02  2.416437502E+02  3.065736511E+02  1.250000000E+02  0.00000E+00  9.000E+00
      25     1     1     2     0     0 -2.599494541E+01  1.163631539E+02  4.547113912E+02  4.864191300E+02  1.250000000E+02  0.00000E+00  9.000E+00
      -1     1     1     2     0   501  3.302060518E+01  2.477982911E+01  7.190967686E+00  4.190596990E+01  7.152557373E-07  0.00000E+00  9.000E+00
#rwgt            1           1   1.5918025776139953E-002           3      221407           0
</event>
<event>
      5   9999  3.19816E-02  1.42562E+02 -1.00000E+00  1.17276E-01
      21    -1     0     0   502   501  0.000000000E+00  0.000000000E+00  3.490267924E+02  3.490267924E+02  0.000000000E+00  0.00000E+00  9.000E+00
      21    -1     0     0   511   502  0.000000000E+00  0.000000000E+00 -1.130364386E+03  1.130364386E+03  0.000000000E+00  0.00000E+00  9.000E+00
      25     1     1     2     0     0 -1.044493848E+02 -1.540290901E+02  9.935297306E+01  2.452155130E+02  1.250000000E+02  0.00000E+00  9.000E+00
      25     1     1     2     0     0  1.219775372E+02  1.254863075E+01  1.270891988E+02  2.163623169E+02  1.250000000E+02  0.00000E+00  9.000E+00
      21     1     1     2   511   501 -1.752815246E+01  1.414804593E+02 -1.007779766E+03  1.017813349E+03  0.000000000E+00  0.00000E+00  9.000E+00
#rwgt            1           1   2.4747396684584928E-002           3      221482           0
</event>
<event>
      5   9999  3.19816E-02  1.75872E+03 -1.00000E+00  8.54680E-02
      21    -1     0     0   502   501  0.000000000E+00  0.000000000E+00  1.669740529E+03  1.669740529E+03  0.000000000E+00  0.00000E+00  9.000E+00
       2    -1     0     0   501     0  0.000000000E+00  0.000000000E+00 -3.194203436E+03  3.194203436E+03  0.000000000E+00  0.00000E+00  9.000E+00
      25     1     1     2     0     0  1.018387762E+03  9.460533015E+02 -7.406195541E+02  1.579959749E+03  1.250000000E+02  0.00000E+00  9.000E+00
      25     1     1     2     0     0 -1.021778572E+03  8.126647722E+02  1.006469657E+02  1.315374583E+03  1.250000000E+02  0.00000E+00  9.000E+00
       2     1     1     2   502     0  3.390810300E+00 -1.758718074E+03 -8.844903188E+02  1.968609632E+03  2.157918644E-05  0.00000E+00  9.000E+00
#rwgt            2          13   2.7490026938918274E-004           3      221934           0
</event>
<event>
      5   9999  3.19816E-02  6.51551E+01 -1.00000E+00  1.32818E-01
      21    -1     0     0   511   501  0.000000000E+00  0.000000000E+00  1.169116121E+02  1.169116121E+02  0.000000000E+00  0.00000E+00  9.000E+00
      21    -1     0     0   501   502  0.000000000E+00  0.000000000E+00 -1.792595072E+03  1.792595072E+03  0.000000000E+00  0.00000E+00  9.000E+00
      25     1     1     2     0     0  2.487356781E+02  3.041242727E+02 -8.324142806E+02  9.289238641E+02  1.250000000E+02  0.00000E+00  9.000E+00
      25     1     1     2     0     0 -1.847313074E+02 -3.163156102E+02 -8.275040106E+02  9.135475405E+02  1.250000000E+02  0.00000E+00  9.000E+00
      21     1     1     2   511   502 -6.400437073E+01  1.219133751E+01 -1.576516905E+01  6.703527980E+01  6.529361695E-07  0.00000E+00  9.000E+00
#rwgt            1           1   2.5985634422352393E-002           3      221953           0
</event>
<event>
      5   9999  3.19816E-02  6.80969E+01 -1.00000E+00  1.31830E-01
      21    -1     0     0   502   501  0.000000000E+00  0.000000000E+00  1.311279335E+03  1.311279335E+03  0.000000000E+00  0.00000E+00  9.000E+00
      21    -1     0     0   512   502  0.000000000E+00  0.000000000E+00 -5.019226883E+02  5.019226883E+02  0.000000000E+00  0.00000E+00  9.000E+00
      25     1     1     2     0     0 -6.100144896E+02  6.334718542E+00 -3.747483569E+01  6.238486752E+02  1.250000000E+02  0.00000E+00  9.000E+00
      25     1     1     2     0     0  6.776386038E+02  1.676084303E+00  8.766194505E+02  1.115026254E+03  1.250000000E+02  0.00000E+00  9.000E+00
      21     1     1     2   512   501 -6.762411416E+01 -8.010802845E+00 -2.978796840E+01  7.432709358E+01  3.371747881E-07  0.00000E+00  9.000E+00
#rwgt            1           1   2.8086748436502364E-002           3      222021           0
</event>
<event>
      5   9999  3.19816E-02  6.65431E+01 -1.00000E+00  1.32344E-01
      21    -1     0     0   502   501  0.000000000E+00  0.000000000E+00  5.372579501E+02  5.372579501E+02  0.000000000E+00  0.00000E+00  9.000E+00
      21    -1     0     0   501   511  0.000000000E+00  0.000000000E+00 -2.037342890E+02  2.037342890E+02  0.000000000E+00  0.00000E+00  9.000E+00
      25     1     1     2     0     0  1.753057609E+02 -4.129952470E+01  3.620741487E+00  2.192621041E+02  1.250000000E+02  0.00000E+00  9.000E+00
      25     1     1     2     0     0 -2.329226837E+02  8.008725517E+00  3.616254667E+02  4.480123820E+02  1.250000000E+02  0.00000E+00  9.000E+00
      21     1     1     2   502   511  5.761692280E+01  3.329079918E+01 -3.172254713E+01  7.371775294E+01  1.651812370E-06  0.00000E+00  9.000E+00
#rwgt            1           1   2.5996700895478533E-002           3      222112           0
</event>
<event>
      5   9999  3.19816E-02  3.80266E+01 -1.00000E+00  1.46216E-01
      21    -1     0     0   512   501  0.000000000E+00  0.000000000E+00  4.830478262E+02  4.830478262E+02  0.000000000E+00  0.00000E+00  9.000E+00
      21    -1     0     0   501   502  0.000000000E+00  0.000000000E+00 -8.093609394E+02  8.093609394E+02  0.000000000E+00  0.00000E+00  9.000E+00
      25     1     1     2     0     0  3.360492291E+02 -2.503065993E+01  4.537238484E+01  3.622696118E+02  1.250000000E+02  0.00000E+00  9.000E+00
      25     1     1     2     0     0 -3.242359529E+02  6.117574115E+01 -6.014181510E+02  6.972805869E+02  1.250000000E+02  0.00000E+00  9.000E+00
      21     1     1     2   512   502 -1.181327619E+01 -3.614508122E+01  2.297326530E+02  2.328585670E+02  5.394796609E-06  0.00000E+00  9.000E+00
#rwgt            1           1   2.8983479704703784E-002           3      222183           0
</event>
<event>
      5   9999  3.19816E-02  1.17702E+02 -1.00000E+00  1.20726E-01
      21    -1     0     0   502   501  0.000000000E+00  0.000000000E+00  1.316655392E+03  1.316655392E+03  0.000000000E+00  0.00000E+00  9.000E+00
      21    -1     0     0   501   511  0.000000000E+00  0.000000000E+00 -1.161231423E+02  1.161231423E+02  0.000000000E+00  0.00000E+00  9.000E+00
      25     1     1     2     0     0  1.766229960E+02 -1.117938990E+02  3.640948599E+02  4.380452324E+02  1.250000000E+02  0.00000E+00  9.000E+00
      25     1     1     2     0     0 -6.254834422E+01  1.407897412E+02  8.530938076E+02  8.758584881E+02  1.250000000E+02  0.00000E+00  9.000E+00
      21     1     1     2   502   511 -1.140746518E+02 -2.899584220E+01 -1.665641814E+01  1.188748136E+02  3.615796778E-06  0.00000E+00  9.000E+00
#rwgt            1           1   3.2465721111728123E-002           3      222318           0
</event>
<event>
      5   9999  3.19816E-02  6.22705E+02 -1.00000E+00  9.62177E-02
      21    -1     0     0   502   501  0.000000000E+00  0.000000000E+00  4.978422846E+02  4.978422846E+02  0.000000000E+00  0.00000E+00  9.000E+00
       4    -1     0     0   501     0  0.000000000E+00  0.000000000E+00 -1.609578561E+03  1.609578561E+03  0.000000000E+00  0.00000E+00  9.000E+00
      25     1     1     2     0     0  2.885755039E+02 -5.905378093E+01 -4.689495055E+02  5.677163105E+02  1.250000000E+02  0.00000E+00  9.000E+00
      25     1     1     2     0     0  2.295438693E+02 -2.863641987E+02  2.425339245E+02  4.573210544E+02  1.250000000E+02  0.00000E+00  9.000E+00
       4     1     1     2   502     0 -5.181193733E+02  3.454179796E+02 -8.853206958E+02  1.082383481E+03  0.000000000E+00  0.00000E+00  9.000E+00
#rwgt            2          15   1.6195227748764428E-005           3      222356           0
</event>
<event>
      5   9999  3.19816E-02  3.64861E+01 -1.00000E+00  1.47361E-01
      21    -1     0     0   502   501  0.000000000E+00  0.000000000E+00  4.632730640E+02  4.632730640E+02  0.000000000E+00  0.00000E+00  9.000E+00
      21    -1     0     0   511   502  0.000000000E+00  0.000000000E+00 -1.037556405E+02  1.037556405E+02  0.000000000E+00  0.00000E+00  9.000E+00
      25     1     1     2     0     0 -3.480347167E+01  6.148489113E+01  3.512705204E+02  3.794834015E+02  1.250000000E+02  0.00000E+00  9.000E+00
      25     1     1     2     0     0  5.605323413E+01 -3.182537993E+01 -1.912241017E+01  1.419347964E+02  1.250000000E+02  0.00000E+00  9.000E+00
      21     1     1     2   511   501 -2.124976246E+01 -2.965951121E+01  2.736931320E+01  4.561050662E+01  5.840038640E-07  0.00000E+00  9.000E+00
#rwgt            1           1   2.7754962422071452E-002           3      222390           0
</event>
<event>
      5   9999  3.19816E-02  4.78000E+01 -1.00000E+00  1.40200E-01
      21    -1     0     0   502   501  0.000000000E+00  0.000000000E+00  1.838338256E+02  1.838338256E+02  0.000000000E+00  0.00000E+00  9.000E+00
       1    -1     0     0   501     0  0.000000000E+00  0.000000000E+00 -1.019165962E+03  1.019165962E+03  0.000000000E+00  0.00000E+00  9.000E+00
      25     1     1     2     0     0  2.186292594E+02  2.198449464E+02 -3.536509990E+02  4.866462602E+02  1.250000000E+02  0.00000E+00  9.000E+00
      25     1     1     2     0     0 -1.972124283E+02 -1.771113322E+02 -6.921385981E+01  3.011257616E+02  1.250000000E+02  0.00000E+00  9.000E+00
       1     1     1     2   502     0 -2.141683106E+01 -4.273361414E+01 -4.124672774E+02  4.152277656E+02  5.394796609E-06  0.00000E+00  9.000E+00
#rwgt            1           1   2.6083036534662155E-002           3      222486           0
</event>
<event>
      5   9999  3.19816E-02  5.28946E+01 -1.00000E+00  1.37695E-01
      21    -1     0     0   502   501  0.000000000E+00  0.000000000E+00  6.571359991E+01  6.571359991E+01  0.000000000E+00  0.00000E+00  9.000E+00
      21    -1     0     0   501   511  0.000000000E+00  0.000000000E+00 -1.851803004E+03  1.851803004E+03  0.000000000E+00  0.00000E+00  9.000E+00
      25     1     1     2     0     0 -1.806444039E+02  9.840332332E+01 -2.604578793E+02  3.546532414E+02  1.250000000E+02  0.00000E+00  9.000E+00
      25     1     1     2     0     0  1.809451988E+02 -1.512970242E+02 -1.015564208E+03  1.050060768E+03  1.250000000E+02  0.00000E+00  9.000E+00
      21     1     1     2   502   511 -3.007949588E-01  5.289370084E+01 -5.100673164E+02  5.128025949E+02  1.078959322E-05  0.00000E+00  9.000E+00
#rwgt            1           1   3.0177554819450898E-002           3      222808           0
</event>
<event>
      5   9999  3.19816E-02  1.23496E+02 -1.00000E+00  1.19841E-01
      21    -1     0     0   502   501  0.000000000E+00  0.000000000E+00  7.037898481E+02  7.037898481E+02  0.000000000E+00  0.00000E+00  9.000E+00
      -2    -1     0     0     0   502  0.000000000E+00  0.000000000E+00 -3.697178130E+02  3.697178130E+02  0.000000000E+00  0.00000E+00  9.000E+00
      25     1     1     2     0     0 -5.471416373E+01 -3.980050961E+02  7.322851221E+01  4.270703821E+02  1.250000000E+02  0.00000E+00  9.000E+00
      25     1     1     2     0     0 -3.357894284E+01  3.116591312E+02  3.560022507E+02  4.905319174E+02  1.250000000E+02  0.00000E+00  9.000E+00
      -2     1     1     2     0   501  8.829310657E+01  8.634596495E+01 -9.515872775E+01  1.559053617E+02  2.336015456E-06  0.00000E+00  9.000E+00
#rwgt            1           1   2.6925229624849178E-002           3      222893           0
</event>
<event>
      5   9999  3.19816E-02  5.12457E+01 -1.00000E+00  1.38468E-01
      21    -1     0     0   502   501  0.000000000E+00  0.000000000E+00  9.607107057E+02  9.607107057E+02  0.000000000E+00  0.00000E+00  9.000E+00
      21    -1     0     0   501   511  0.000000000E+00  0.000000000E+00 -1.065986437E+03  1.065986437E+03  0.000000000E+00  0.00000E+00  9.000E+00
      25     1     1     2     0     0 -2.577869815E+01  4.255767818E+02  5.560944807E+02  7.117908470E+02  1.250000000E+02  0.00000E+00  9.000E+00
      25     1     1     2     0     0 -2.530559581E+00 -4.682933596E+02  1.457697372E+02  5.061411767E+02  1.250000000E+02  0.00000E+00  9.000E+00
      21     1     1     2   502   511  2.830925773E+01  4.271657785E+01 -8.071399490E+02  8.087651188E+02  1.078959322E-05  0.00000E+00  9.000E+00
#rwgt            1           1   2.9312647754358340E-002           3      222954           0
</event>
<event>
      5   9999  3.19816E-02  4.59011E+01 -1.00000E+00  1.41229E-01
       2    -1     0     0   502     0  0.000000000E+00  0.000000000E+00  6.124416410E+02  6.124416410E+02  0.000000000E+00  0.00000E+00  9.000E+00
      21    -1     0     0   501   502  0.000000000E+00  0.000000000E+00 -1.368307910E+02  1.368307910E+02  0.000000000E+00  0.00000E+00  9.000E+00
      25     1     1     2     0     0  4.618968889E+01  8.613824309E+01  6.474184600E+01  1.713761678E+02  1.250000000E+02  0.00000E+00  9.000E+00
      25     1     1     2     0     0 -3.500608040E-01 -8.851344920E+01 -1.097863391E+01  1.535587302E+02  1.250000000E+02  0.00000E+00  9.000E+00
       2     1     1     2   501     0 -4.583962809E+01  2.375206109E+00  4.218476379E+02  4.243375339E+02  0.000000000E+00  0.00000E+00  9.000E+00
#rwgt            1           1   7.0015716238983186E-002           3      223102           0
</event>
<event>
      5   9999  3.19816E-02  6.25573E+01 -1.00000E+00  1.33742E-01
      21    -1     0     0   502   501  0.000000000E+00  0.000000000E+00  8.630397400E+01  8.630397400E+01  0.000000000E+00  0.00000E+00  9.000E+00
      21    -1     0     0   501   511  0.000000000E+00  0.000000000E+00 -1.176195715E+03  1.176195715E+03  0.000000000E+00  0.00000E+00  9.000E+00
      25     1     1     2     0     0 -9.037699784E+01 -9.506109688E+01 -5.580138516E+02  5.866933376E+02  1.250000000E+02  0.00000E+00  9.000E+00
      25     1     1     2     0     0  1.464479636E+02  6.732186362E+01 -7.917053314E+01  2.187971953E+02  1.250000000E+02  0.00000E+00  9.000E+00
      21     1     1     2   502   511 -5.607096577E+01  2.773923326E+01 -4.527073563E+02  4.570091561E+02  0.000000000E+00  0.00000E+00  9.000E+00
#rwgt            1           1   2.9746924807567562E-002           3      223174           0
</event>
<event>
      5   9999  3.19816E-02  1.09579E+02 -1.00000E+00  1.22067E-01
      21    -1     0     0   502   501  0.000000000E+00  0.000000000E+00  1.155315591E+03  1.155315591E+03  0.000000000E+00  0.00000E+00  9.000E+00
      21    -1     0     0   501   512  0.000000000E+00  0.000000000E+00 -2.202839083E+03  2.202839083E+03  0.000000000E+00  0.00000E+00  9.000E+00
      25     1     1     2     0     0 -1.705186673E+02  5.831671890E+02  1.005782736E+03  1.181687140E+03  1.250000000E+02  0.00000E+00  9.000E+00
      25     1     1     2     0     0  9.468750130E+01 -5.040642117E+02 -1.136287164E+03  1.252924567E+03  1.250000000E+02  0.00000E+00  9.000E+00
      21     1     1     2   502   512  7.583116603E+01 -7.910297733E+01 -9.170190646E+02  9.235429668E+02  0.000000000E+00  0.00000E+00  9.000E+00
#rwgt            2          11   2.3487523267063048E-003           3      223328           0
</event>
<event>
      5   9999  3.19816E-02  3.37279E+01 -1.00000E+00  1.49589E-01
      21    -1     0     0   502   511  0.000000000E+00  0.000000000E+00  3.780895422E+02  3.780895422E+02  0.000000000E+00  0.00000E+00  9.000E+00
      21    -1     0     0   501   502  0.000000000E+00  0.000000000E+00 -5.250746372E+02  5.250746372E+02  0.000000000E+00  0.00000E+00  9.000E+00
      25     1     1     2     0     0  5.279532833E+01  1.344373605E+02 -4.324530111E+02  4.727593018E+02  1.250000000E+02  0.00000E+00  9.000E+00
      25     1     1     2     0     0 -2.218887411E+01 -1.486084403E+02  6.294218412E+01  2.053376078E+02  1.250000000E+02  0.00000E+00  9.000E+00
      21     1     1     2   501   511 -3.060645422E+01  1.417107979E+01  2.225257320E+02  2.250672698E+02  2.697398305E-06  0.00000E+00  9.000E+00
#rwgt            1           1   2.5970583425207402E-002           3      223393           0
</event>
<event>
      5   9999  3.19816E-02  7.23704E+01 -1.00000E+00  1.30492E-01
      21    -1     0     0   502   501  0.000000000E+00  0.000000000E+00  2.824273623E+02  2.824273623E+02  0.000000000E+00  0.00000E+00  9.000E+00
       2    -1     0     0   501     0  0.000000000E+00  0.000000000E+00 -6.600595078E+02  6.600595078E+02  0.000000000E+00  0.00000E+00  9.000E+00
      25     1     1     2     0     0  2.852174506E+02 -6.311639237E+01 -6.505512394E+01  3.243298356E+02  1.250000000E+02  0.00000E+00  9.000E+00
      25     1     1     2     0     0 -2.358442924E+02  1.160291913E+02  6.352392747E+00  2.911196599E+02  1.250000000E+02  0.00000E+00  9.000E+00
       2     1     1     2   502     0 -4.937315825E+01 -5.291279892E+01 -3.189294143E+02  3.270373746E+02  0.000000000E+00  0.00000E+00  9.000E+00
#rwgt            1           1   2.9723877064567226E-002           3      223537           0
</event>
<event>
      5   9999  3.19816E-02  3.57627E+01 -1.00000E+00  1.47922E-01
      21    -1     0     0   502   501  0.000000000E+00  0.000000000E+00  1.207072730E+02  1.207072730E+02  0.000000000E+00  0.00000E+00  9.000E+00
      21    -1     0     0   511   502  0.000000000E+00  0.000000000E+00 -5.910255847E+02  5.910255847E+02  0.000000000E+00  0.00000E+00  9.000E+00
      25     1     1     2     0     0  5.632708433E+01 -1.644485541E+02 -5.206273333E+01  2.203442660E+02  1.250000000E+02  0.00000E+00  9.000E+00
      25     1     1     2     0     0 -2.161134099E+01  1.558586972E+02 -2.571365456E+02  3.263482597E+02  1.250000000E+02  0.00000E+00  9.000E+00
      21     1     1     2   511   501 -3.471574334E+01  8.589856917E+00 -1.611190328E+02  1.650403320E+02  1.907348633E-06  0.00000E+00  9.000E+00
#rwgt            1           1   3.0952359491270932E-002           3      223588           0
</event>
<event>
      5   9999  3.19816E-02  3.20093E+01 -1.00000E+00  1.51110E-01
      21    -1     0     0   512   501  0.000000000E+00  0.000000000E+00  9.536394906E+02  9.536394906E+02  0.000000000E+00  0.00000E+00  9.000E+00
      21    -1     0     0   501   502  0.000000000E+00  0.000000000E+00 -6.285354772E+01  6.285354772E+01  0.000000000E+00  0.00000E+00  9.000E+00
      25     1     1     2     0     0  1.082096434E+02 -1.089356129E+02  6.896654826E+02  7.175233603E+02  1.250000000E+02  0.00000E+00  9.000E+00
      25     1     1     2     0     0 -1.039396453E+02  7.721234828E+01  1.332589995E+02  2.239378430E+02  1.250000000E+02  0.00000E+00  9.000E+00
      21     1     1     2   512   502 -4.269998113E+00  3.172326464E+01  6.786146078E+01  7.503183500E+01  1.348699152E-06  0.00000E+00  9.000E+00
#rwgt            1           1   2.6150122190481850E-002           3      223734           0
</event>
<event>
      5   9999  3.19816E-02  2.16366E+01 -1.00000E+00  1.63599E-01
      21    -1     0     0   502   501  0.000000000E+00  0.000000000E+00  1.250488666E+02  1.250488666E+02  0.000000000E+00  0.00000E+00  9.000E+00
      21    -1     0     0   511   502  0.000000000E+00  0.000000000E+00 -1.268158617E+03  1.268158617E+03  0.000000000E+00  0.00000E+00  9.000E+00
      25     1     1     2     0     0 -1.073352069E+02 -1.866702478E+02 -9.446588917E+02  9.769196742E+02  1.250000000E+02  0.00000E+00  9.000E+00
      25     1     1     2     0     0  8.576957306E+01  1.884216348E+02 -2.684161670E+01  2.433199632E+02  1.250000000E+02  0.00000E+00  9.000E+00
      21     1     1     2   511   501  2.156563386E+01 -1.751386951E+00 -1.716092424E+02  1.729678467E+02  0.000000000E+00  0.00000E+00  9.000E+00
#rwgt            1           1   2.8275326171666254E-002           3      223852           0
</event>
<event>
      5   9999  3.19816E-02  1.32105E+01 -1.00000E+00  1.82744E-01
      21    -1     0     0   502   501  0.000000000E+00  0.000000000E+00  6.533355286E+02  6.533355286E+02  0.000000000E+00  0.00000E+00  9.000E+00
       1    -1     0     0   501     0  0.000000000E+00  0.000000000E+00 -2.545217192E+03  2.545217192E+03  0.000000000E+00  0.00000E+00  9.000E+00
      25     1     1     2     0     0  4.695077666E+02  1.538448556E+02  5.095760044E+02  7.206930600E+02  1.250000000E+02  0.00000E+00  9.000E+00
      25     1     1     2     0     0 -4.774873046E+02 -1.643731517E+02 -1.736052155E+03  1.812323024E+03  1.250000000E+02  0.00000E+00  9.000E+00
       1     1     1     2   502     0  7.979538070E+00  1.052829613E+01 -6.654055126E+02  6.655366363E+02  7.629394531E-06  0.00000E+00  9.000E+00
#rwgt            1           1   2.6531552891900536E-002           3      223992           0
</event>
<event>
      5   9999  3.19816E-02  1.89030E+01 -1.00000E+00  1.68416E-01
      21    -1     0     0   511   501  0.000000000E+00  0.000000000E+00  8.289451120E+01  8.289451120E+01  0.000000000E+00  0.00000E+00  9.000E+00
      21    -1     0     0   501   502  0.000000000E+00  0.000000000E+00 -7.600427177E+02  7.600427177E+02  0.000000000E+00  0.00000E+00  9.000E+00
      25     1     1     2     0     0  9.687665081E+01 -1.659213733E+02 -2.167627004E+02  3.154775045E+02  1.250000000E+02  0.00000E+00  9.000E+00
      25     1     1     2     0     0 -9.132969977E+01  1.478505795E+02 -4.612834130E+02  5.085354412E+02  1.250000000E+02  0.00000E+00  9.000E+00
      21     1     1     2   511   502 -5.546951038E+00  1.807079382E+01  8.979068172E-01  1.892428312E+01  2.959672222E-07  0.00000E+00  9.000E+00
#rwgt            1           1   2.7241219915850858E-002           3      224355           0
</event>
<event>
      5   9999  3.19816E-02  4.76357E+01 -1.00000E+00  1.40287E-01
      21    -1     0     0   512   501  0.000000000E+00  0.000000000E+00  3.666039777E+02  3.666039777E+02  0.000000000E+00  0.00000E+00  9.000E+00
      21    -1     0     0   501   502  0.000000000E+00  0.000000000E+00 -5.595281268E+02  5.595281268E+02  0.000000000E+00  0.00000E+00  9.000E+00
      25     1     1     2     0     0  3.574517198E+02 -2.171529779E+02 -1.924504058E+02  4.770632102E+02  1.250000000E+02  0.00000E+00  9.000E+00
      25     1     1     2     0     0 -3.159514570E+02  1.937674199E+02 -3.118987421E+01  3.923887670E+02  1.250000000E+02  0.00000E+00  9.000E+00
      21     1     1     2   512   502 -4.150026280E+01  2.338555795E+01  3.071613096E+01  5.668012733E+01  0.000000000E+00  0.00000E+00  9.000E+00
#rwgt            1           1   2.1170469625610318E-002           3      224561           0
</event>
<event>
      5   9999  3.19816E-02  4.98864E+01 -1.00000E+00  1.39132E-01
       1    -1     0     0   502     0  0.000000000E+00  0.000000000E+00  1.128784270E+03  1.128784270E+03  0.000000000E+00  0.00000E+00  9.000E+00
      21    -1     0     0   501   502  0.000000000E+00  0.000000000E+00 -3.215158229E+02  3.215158229E+02  0.000000000E+00  0.00000E+00  9.000E+00
      25     1     1     2     0     0 -1.841707241E+02 -4.203829775E+02  9.096001663E+00  4.757609070E+02  1.250000000E+02  0.00000E+00  9.000E+00
      25     1     1     2     0     0  1.915458451E+02  3.710447513E+02  4.638322548E+02  6.364977446E+02  1.250000000E+02  0.00000E+00  9.000E+00
       1     1     1     2   501     0 -7.375120984E+00  4.933822620E+01  3.343401902E+02  3.380414409E+02  3.814697266E-06  0.00000E+00  9.000E+00
#rwgt            1           1   3.1506433629200491E-002           3      224676           0
</event>
<event>
      5   9999  3.19816E-02  1.88900E+01 -1.00000E+00  1.68441E-01
      21    -1     0     0   502   501  0.000000000E+00  0.000000000E+00  1.027935600E+02  1.027935600E+02  0.000000000E+00  0.00000E+00  9.000E+00
      21    -1     0     0   511   502  0.000000000E+00  0.000000000E+00 -3.411254277E+02  3.411254277E+02  0.000000000E+00  0.00000E+00  9.000E+00
      25     1     1     2     0     0  4.959485175E+01  4.321243187E+01  1.992365394E+01  1.426496252E+02  1.250000000E+02  0.00000E+00  9.000E+00
      25     1     1     2     0     0 -4.798561551E+01 -2.439108753E+01 -2.309140534E+02  2.680370208E+02  1.250000000E+02  0.00000E+00  9.000E+00
      21     1     1     2   511   501 -1.609236246E+00 -1.882134434E+01 -2.734146826E+01  3.323234163E+01  5.840038640E-07  0.00000E+00  9.000E+00
#rwgt            1           1   2.9125641431127787E-002           3      224780           0
</event>
<event>
      5   9999  3.19816E-02  3.34710E+02 -1.00000E+00  1.04070E-01
      21    -1     0     0   502   501  0.000000000E+00  0.000000000E+00  7.236351123E+02  7.236351123E+02  0.000000000E+00  0.00000E+00  9.000E+00
       2    -1     0     0   501     0  0.000000000E+00  0.000000000E+00 -2.181601395E+03  2.181601395E+03  0.000000000E+00  0.00000E+00  9.000E+00
      25     1     1     2     0     0 -9.785454047E+01  5.033836294E+02  4.001420994E+02  6.623513336E+02  1.250000000E+02  0.00000E+00  9.000E+00
      25     1     1     2     0     0 -9.634244805E+01 -2.307696248E+02  6.815242742E+01  2.877607346E+02  1.250000000E+02  0.00000E+00  9.000E+00
       2     1     1     2   502     0  1.941969885E+02 -2.726140047E+02 -1.926260810E+03  1.955124439E+03  3.051757812E-05  0.00000E+00  9.000E+00
#rwgt            1           1   2.1358722303168435E-002           3      224860           0
</event>
<event>
      5   9999  3.19816E-02  1.13626E+02 -1.00000E+00  1.21383E-01
      21    -1     0     0   502   511  0.000000000E+00  0.000000000E+00  1.859614426E+03  1.859614426E+03  0.000000000E+00  0.00000E+00  9.000E+00
      21    -1     0     0   501   502  0.000000000E+00  0.000000000E+00 -8.366596635E+02  8.366596635E+02  0.000000000E+00  0.00000E+00  9.000E+00
      25     1     1     2     0     0 -2.275396116E+02 -8.456631914E+02 -4.206887722E+02  9.795532406E+02  1.250000000E+02  0.00000E+00  9.000E+00
      25     1     1     2     0     0  2.907303201E+02  7.512289372E+02  1.278461003E+03  1.516231042E+03  1.250000000E+02  0.00000E+00  9.000E+00
      21     1     1     2   501   511 -6.319070856E+01  9.443425428E+01  1.651825316E+02  2.004898071E+02  3.814697266E-06  0.00000E+00  9.000E+00
#rwgt            1           1   7.5340683347011647E-002           3      224916           0
</event>
<event>
      5   9999  3.19816E-02  6.82756E+01 -1.00000E+00  1.31772E-01
       1    -1     0     0   502     0  0.000000000E+00  0.000000000E+00  2.529471070E+02  2.529471070E+02  0.000000000E+00  0.00000E+00  9.000E+00
      21    -1     0     0   501   502  0.000000000E+00  0.000000000E+00 -1.633747742E+03  1.633747742E+03  0.000000000E+00  0.00000E+00  9.000E+00
      25     1     1     2     0     0  1.312448320E+02 -1.761020584E+02 -1.497786616E+03  1.518955854E+03  1.250000000E+02  0.00000E+00  9.000E+00
      25     1     1     2     0     0 -1.876905284E+02  1.376905818E+02  1.355842622E+02  2.969756268E+02  1.250000000E+02  0.00000E+00  9.000E+00
       1     1     1     2   501     0  5.644569635E+01  3.841147663E+01 -1.859828132E+01  7.076336793E+01  7.152557373E-07  0.00000E+00  9.000E+00
#rwgt            1           1   3.0060391621126684E-002           3      225083           0
</event>
<event>
      5   9999  3.19816E-02  2.51787E+01 -1.00000E+00  1.58520E-01
      21    -1     0     0   502   501  0.000000000E+00  0.000000000E+00  1.999714668E+02  1.999714668E+02  0.000000000E+00  0.00000E+00  9.000E+00
      21    -1     0     0   501   511  0.000000000E+00  0.000000000E+00 -6.399563779E+02  6.399563779E+02  0.000000000E+00  0.00000E+00  9.000E+00
      25     1     1     2     0     0  6.462019341E+01 -1.844105199E+02  7.544989175E+01  2.439276438E+02  1.250000000E+02  0.00000E+00  9.000E+00
      25     1     1     2     0     0 -5.585618287E+01  1.608063307E+02 -2.411296225E+02  3.205418599E+02  1.250000000E+02  0.00000E+00  9.000E+00
      21     1     1     2   502   511 -8.764010536E+00  2.360418920E+01 -2.743051804E+02  2.754583410E+02  3.814697266E-06  0.00000E+00  9.000E+00
#rwgt            1           1   3.1531932608731023E-002           3      225178           0
</event>
<event>
      5   9999  3.19816E-02  7.48026E+01 -1.00000E+00  1.29778E-01
      21    -1     0     0   502   501  0.000000000E+00  0.000000000E+00  7.596769286E+02  7.596769286E+02  0.000000000E+00  0.00000E+00  9.000E+00
      21    -1     0     0   501   512  0.000000000E+00  0.000000000E+00 -1.490056639E+02  1.490056639E+02  0.000000000E+00  0.00000E+00  9.000E+00
      25     1     1     2     0     0 -2.016958307E+02  6.603113755E+01  4.938792991E+02  5.518904613E+02  1.250000000E+02  0.00000E+00  9.000E+00
      25     1     1     2     0     0  1.422391133E+02 -1.114219911E+02  1.587181716E+02  2.710411102E+02  1.250000000E+02  0.00000E+00  9.000E+00
      21     1     1     2   502   512  5.945671745E+01  4.539085354E+01 -4.192620597E+01  8.575102088E+01  6.743495762E-07  0.00000E+00  9.000E+00
#rwgt            1           1   3.0213126688634857E-002           3      225290           0
</event>
<event>
      5   9999  3.19816E-02  4.52762E+01 -1.00000E+00  1.41580E-01
      21    -1     0     0   502   501  0.000000000E+00  0.000000000E+00  4.119967972E+03  4.119967972E+03  0.000000000E+00  0.00000E+00  9.000E+00
      21    -1     0     0   511   502  0.000000000E+00  0.000000000E+00 -2.975256767E+01  2.975256767E+01  0.000000000E+00  0.00000E+00  9.000E+00
      25     1     1     2     0     0  2.263993210E+02 -1.304073862E+02  1.053031704E+03  1.092137129E+03  1.250000000E+02  0.00000E+00  9.000E+00
      25     1     1     2     0     0 -2.246584481E+02  8.516466942E+01  2.910098099E+03  2.922673499E+03  1.250000000E+02  0.00000E+00  9.000E+00
      21     1     1     2   511   501 -1.740872852E+00  4.524271676E+01  1.270856022E+02  1.349099120E+02  3.303624740E-06  0.00000E+00  9.000E+00
#rwgt            1           1   6.6524452196567050E-003           3      225394           0
</event>
<event>
      5   9999  3.19816E-02  2.90388E+02 -1.00000E+00  1.06054E-01
      21    -1     0     0   512   501  0.000000000E+00  0.000000000E+00  1.176716700E+03  1.176716700E+03  0.000000000E+00  0.00000E+00  9.000E+00
      21    -1     0     0   501   502  0.000000000E+00  0.000000000E+00 -2.476284491E+02  2.476284491E+02  0.000000000E+00  0.00000E+00  9.000E+00
      25     1     1     2     0     0  3.292558836E+02  5.270413467E+01  5.576967761E+02  6.616931742E+02  1.250000000E+02  0.00000E+00  9.000E+00
      25     1     1     2     0     0 -1.639899145E+02 -2.914767201E+02  1.145169136E+02  3.749539891E+02  1.250000000E+02  0.00000E+00  9.000E+00
      21     1     1     2   512   502 -1.652659691E+02  2.387725854E+02  2.568745614E+02  3.876979861E+02  6.607249480E-06  0.00000E+00  9.000E+00
#rwgt            1           1   2.7460075420728369E-002           3      225538           0
</event>
<event>
      5   9999  3.19816E-02  1.12235E+01 -1.00000E+00  1.90135E-01
      21    -1     0     0   502   511  0.000000000E+00  0.000000000E+00  7.427043190E+02  7.427043190E+02  0.000000000E+00  0.00000E+00  9.000E+00
      21    -1     0     0   501   502  0.000000000E+00  0.000000000E+00 -3.452342152E+02  3.452342152E+02  0.000000000E+00  0.00000E+00  9.000E+00
      25     1     1     2     0     0  3.753180996E+02 -1.290385085E+02  2.099562245E+02  4.660699827E+02  1.250000000E+02  0.00000E+00  9.000E+00
      25     1     1     2     0     0 -3.822051604E+02  1.379005845E+02 -8.827974126E+00  4.252061723E+02  1.250000000E+02  0.00000E+00  9.000E+00
      21     1     1     2   501   511  6.887060826E+00 -8.862075946E+00  1.963418533E+02  1.966623791E+02  2.697398305E-06  0.00000E+00  9.000E+00
#rwgt            1           1   2.7799956578135318E-002           3      225600           0
</event>
<event>
      5   9999  3.19816E-02  1.13294E+02 -1.00000E+00  1.21438E-01
      21    -1     0     0   502   501  0.000000000E+00  0.000000000E+00  4.655995920E+02  4.655995920E+02  0.000000000E+00  0.00000E+00  9.000E+00
      21    -1     0     0   512   502  0.000000000E+00  0.000000000E+00 -5.061471817E+02  5.061471817E+02  0.000000000E+00  0.00000E+00  9.000E+00
      25     1     1     2     0     0 -4.404621560E+01 -2.319422665E+02 -1.929299484E+02  3.295212422E+02  1.250000000E+02  0.00000E+00  9.000E+00
      25     1     1     2     0     0 -6.708322039E+01  2.099030505E+02  3.394235987E+02  4.235479057E+02  1.250000000E+02  0.00000E+00  9.000E+00
      21     1     1     2   512   501  1.111294360E+02  2.203921594E+01 -1.870412399E+02  2.186776258E+02  2.697398305E-06  0.00000E+00  9.000E+00
#rwgt            2          11   2.6752916719027181E-003           3      225883           0
</event>
<event>
      5   9999  3.19816E-02  1.26762E+01 -1.00000E+00  1.84559E-01
      21    -1     0     0   502   511  0.000000000E+00  0.000000000E+00  6.984595744E+02  6.984595744E+02  0.000000000E+00  0.00000E+00  9.000E+00
      21    -1     0     0   501   502  0.000000000E+00  0.000000000E+00 -2.934437074E+03  2.934437074E+03  0.000000000E+00  0.00000E+00  9.000E+00
      25     1     1     2     0     0 -1.073492773E+02  4.548119494E+02 -6.057353979E+02  7.751891053E+02  1.250000000E+02  0.00000E+00  9.000E+00
      25     1     1     2     0     0  1.130925559E+02 -4.661124449E+02 -2.216534878E+03  2.271277747E+03  1.250000000E+02  0.00000E+00  9.000E+00
      21     1     1     2   501   511 -5.743278626E+00  1.130049549E+01  5.862927763E+02  5.864297963E+02  1.321449896E-05  0.00000E+00  9.000E+00
#rwgt            1           1   7.1980500245070300E-002           3      225933           0
</event>
<event>
      5   9999  3.19816E-02  1.87701E+01 -1.00000E+00  1.68676E-01
      21    -1     0     0   502   501  0.000000000E+00  0.000000000E+00  4.615435167E+02  4.615435167E+02  0.000000000E+00  0.00000E+00  9.000E+00
      21    -1     0     0   501   512  0.000000000E+00  0.000000000E+00 -5.271323784E+02  5.271323784E+02  0.000000000E+00  0.00000E+00  9.000E+00
      25     1     1     2     0     0  8.387180744E+01  6.062973665E+01 -1.516409261E+02  2.221045148E+02  1.250000000E+02  0.00000E+00  9.000E+00
      25     1     1     2     0     0 -6.565660889E+01 -6.515998733E+01  4.118518963E+02  4.402313014E+02  1.250000000E+02  0.00000E+00  9.000E+00
      21     1     1     2   502   512 -1.821519855E+01  4.530250688E+00 -3.257998319E+02  3.263400789E+02  0.000000000E+00  0.00000E+00  9.000E+00
#rwgt            1           1   2.8671173135454628E-002           3      226182           0
</event>
<event>
      5   9999  3.19816E-02  2.72782E+01 -1.00000E+00  1.55965E-01
      21    -1     0     0   502   501  0.000000000E+00  0.000000000E+00  2.127865578E+02  2.127865578E+02  0.000000000E+00  0.00000E+00  9.000E+00
      21    -1     0     0   511   502  0.000000000E+00  0.000000000E+00 -7.498586012E+02  7.498586012E+02  0.000000000E+00  0.00000E+00  9.000E+00
      25     1     1     2     0     0  2.294517521E+02  1.808566225E+02  1.324554908E+01  3.180529343E+02  1.250000000E+02  0.00000E+00  9.000E+00
      25     1     1     2     0     0 -2.045476829E+02 -1.919870567E+02 -5.189772920E+02  6.030432937E+02  1.250000000E+02  0.00000E+00  9.000E+00
      21     1     1     2   511   501 -2.490406921E+01  1.113043421E+01 -3.134030053E+01  4.154893099E+01  5.840038640E-07  0.00000E+00  9.000E+00
#rwgt            1           1   2.8072080572218071E-002           3      226341           0
</event>
<event>
      5   9999  3.19816E-02  1.14509E+02 -1.00000E+00  1.21238E-01
      21    -1     0     0   502   512  0.000000000E+00  0.000000000E+00  3.733210041E+03  3.733210041E+03  0.000000000E+00  0.00000E+00  9.000E+00
      21    -1     0     0   501   502  0.000000000E+00  0.000000000E+00 -2.041386244E+03  2.041386244E+03  0.000000000E+00  0.00000E+00  9.000E+00
      25     1     1     2     0     0  2.646421544E+03  4.226295574E+01  6.854041206E+02  2.736921072E+03  1.250000000E+02  0.00000E+00  9.000E+00
      25     1     1     2     0     0 -2.729143266E+03 -1.214429423E+02  8.937866835E+02  2.877055959E+03  1.250000000E+02  0.00000E+00  9.000E+00
      21     1     1     2   501   512  8.272172242E+01  7.917998661E+01  1.126329934E+02  1.606192543E+02  1.348699152E-06  0.00000E+00  9.000E+00
#rwgt            1           1   3.5269076428098996E-003           3      226483           0
</event>
<event>
      5   9999  3.19816E-02  1.55896E+02 -1.00000E+00  1.15734E-01
      21    -1     0     0   511   501  0.000000000E+00  0.000000000E+00  1.233883868E+03  1.233883868E+03  0.000000000E+00  0.00000E+00  9.000E+00
      21    -1     0     0   501   502  0.000000000E+00  0.000000000E+00 -7.806092239E+02  7.806092239E+02  0.000000000E+00  0.00000E+00  9.000E+00
      25     1     1     2     0     0  2.154067210E+02  2.129544101E+02  3.026193957E+02  4.460416291E+02  1.250000000E+02  0.00000E+00  9.000E+00
      25     1     1     2     0     0 -2.982923029E+02 -8.091792743E+01 -6.618753335E+02  7.411005100E+02  1.250000000E+02  0.00000E+00  9.000E+00
      21     1     1     2   511   502  8.288558188E+01 -1.320364827E+02  8.125305816E+02  8.273509524E+02  0.000000000E+00  0.00000E+00  9.000E+00
#rwgt            2          11   2.9728477998916744E-003           3      226594           0
</event>
<event>
      5   9999  3.19816E-02  3.81471E+01 -1.00000E+00  1.46129E-01
      21    -1     0     0   502   501  0.000000000E+00  0.000000000E+00  6.611231373E+01  6.611231373E+01  0.000000000E+00  0.00000E+00  9.000E+00
       2    -1     0     0   501     0  0.000000000E+00  0.000000000E+00 -7.632400708E+02  7.632400708E+02  0.000000000E+00  0.00000E+00  9.000E+00
      25     1     1     2     0     0 -3.763316583E+01  8.457602606E+01 -1.243586978E+02  1.991467928E+02  1.250000000E+02  0.00000E+00  9.000E+00
      25     1     1     2     0     0  6.515923181E+01 -5.816547467E+01 -1.813956796E+02  2.369775105E+02  1.250000000E+02  0.00000E+00  9.000E+00
       2     1     1     2   502     0 -2.752606598E+01 -2.641055140E+01 -3.913733797E+02  3.932280812E+02  9.344061824E-06  0.00000E+00  9.000E+00
#rwgt            1           1   7.0064718494541461E-002           3      226629           0
</event>
<event>
      5   9999  3.19816E-02  1.17026E+02 -1.00000E+00  1.20833E-01
      21    -1     0     0   502   511  0.000000000E+00  0.000000000E+00  6.055004294E+02  6.055004294E+02  0.000000000E+00  0.00000E+00  9.000E+00
      21    -1     0     0   501   502  0.000000000E+00  0.000000000E+00 -5.072855128E+02  5.072855128E+02  0.000000000E+00  0.00000E+00  9.000E+00
      25     1     1     2     0     0 -3.667707313E+02 -3.252264356E+02 -7.407128056E+01  5.112773791E+02  1.250000000E+02  0.00000E+00  9.000E+00
      25     1     1     2     0     0  3.641506742E+02  2.082297257E+02  6.455455828E+01  4.424450510E+02  1.250000000E+02  0.00000E+00  9.000E+00
      21     1     1     2   501   511  2.620057071E+00  1.169967099E+02  1.077316389E+02  1.590635120E+02  2.697398305E-06  0.00000E+00  9.000E+00
#rwgt            1           1   2.9995160985625331E-002           3      226697           0
</event>
<event>
      5   9999  3.19816E-02  1.12552E+01 -1.00000E+00  1.90002E-01
      21    -1     0     0   502   501  0.000000000E+00  0.000000000E+00  6.466721188E+01  6.466721188E+01  0.000000000E+00  0.00000E+00  9.000E+00
      21    -1     0     0   501   512  0.000000000E+00  0.000000000E+00 -1.033719489E+03  1.033719489E+03  0.000000000E+00  0.00000E+00  9.000E+00
      25     1     1     2     0     0 -1.960355864E+02  9.218337888E+01 -5.357006686E+02  5.912088741E+02  1.250000000E+02  0.00000E+00  9.000E+00
      25     1     1     2     0     0  1.966634635E+02 -8.094569733E+01 -3.828889211E+02  4.554751910E+02  1.250000000E+02  0.00000E+00  9.000E+00
      21     1     1     2   502   512 -6.278771489E-01 -1.123768155E+01 -5.046268698E+01  5.170263526E+01  0.000000000E+00  0.00000E+00  9.000E+00
#rwgt            1           1   1.9993409433883343E-002           3      226820           0
</event>
<event>
      5   9999  3.19816E-02  6.50853E+01 -1.00000E+00  1.32842E-01
      21    -1     0     0   502   501  0.000000000E+00  0.000000000E+00  3.310859725E+02  3.310859725E+02  0.000000000E+00  0.00000E+00  9.000E+00
      21    -1     0     0   511   502  0.000000000E+00  0.000000000E+00 -8.713549432E+02  8.713549432E+02  0.000000000E+00  0.00000E+00  9.000E+00
      25     1     1     2     0     0 -3.583304197E+02  2.251254371E+02 -1.925501011E+01  4.416762474E+02  1.250000000E+02  0.00000E+00  9.000E+00
      25     1     1     2     0     0  3.684262970E+02 -2.894229948E+02 -4.873561457E+02  6.874915411E+02  1.250000000E+02  0.00000E+00  9.000E+00
      21     1     1     2   511   501 -1.009587726E+01  6.429755778E+01 -3.365781492E+01  7.327312727E+01  6.743495762E-07  0.00000E+00  9.000E+00
#rwgt            2          11   6.5580346464091822E-003           3      227088           0
</event>
<event>
      5   9999  3.19816E-02  1.02450E+02 -1.00000E+00  1.23357E-01
      21    -1     0     0   502   501  0.000000000E+00  0.000000000E+00  9.522984692E+01  9.522984692E+01  0.000000000E+00  0.00000E+00  9.000E+00
      21    -1     0     0   512   502  0.000000000E+00  0.000000000E+00 -6.195138043E+02  6.195138043E+02  0.000000000E+00  0.00000E+00  9.000E+00
      25     1     1     2     0     0  6.232762386E+01  6.582323088E+01 -4.005772630E+02  4.293070860E+02  1.250000000E+02  0.00000E+00  9.000E+00
      25     1     1     2     0     0  1.458679832E+01  1.853062783E+00 -1.371947500E+00  1.258693401E+02  1.250000000E+02  0.00000E+00  9.000E+00
      21     1     1     2   512   501 -7.691442217E+01 -6.767629366E+01 -1.223347468E+02  1.595672252E+02  1.907348633E-06  0.00000E+00  9.000E+00
#rwgt            1           1   2.6053710146966693E-002           3      227108           0
</event>
<event>
      5   9999  3.19816E-02  8.13283E+02 -1.00000E+00  9.31989E-02
       2    -1     0     0   502     0  0.000000000E+00  0.000000000E+00  8.840914642E+02  8.840914642E+02  0.000000000E+00  0.00000E+00  9.000E+00
      21    -1     0     0   501   502  0.000000000E+00  0.000000000E+00 -1.456573670E+03  1.456573670E+03  0.000000000E+00  0.00000E+00  9.000E+00
      25     1     1     2     0     0  1.232063859E+02  3.767735191E+01  4.265682421E+02  4.628011036E+02  1.250000000E+02  0.00000E+00  9.000E+00
      25     1     1     2     0     0  6.467962697E+02 -2.994491703E+02 -7.126322424E+02  1.015620467E+03  1.250000000E+02  0.00000E+00  9.000E+00
       2     1     1     2   501     0 -7.700026556E+02  2.617718184E+02 -2.864182055E+02  8.622435636E+02  1.982174844E-05  0.00000E+00  9.000E+00
#rwgt            2          18   2.0463238078528669E-004           3      227177           0
</event>
<event>
      5   9999  3.19816E-02  1.00415E+02 -1.00000E+00  1.23747E-01
      21    -1     0     0   502   501  0.000000000E+00  0.000000000E+00  7.753971882E+01  7.753971882E+01  0.000000000E+00  0.00000E+00  9.000E+00
      21    -1     0     0   501   511  0.000000000E+00  0.000000000E+00 -1.262734196E+03  1.262734196E+03  0.000000000E+00  0.00000E+00  9.000E+00
      25     1     1     2     0     0 -2.108038015E+02  1.408143573E+02 -4.514089117E+02  5.325992222E+02  1.250000000E+02  0.00000E+00  9.000E+00
      25     1     1     2     0     0  1.133338540E+02 -1.649553913E+02 -4.838588863E+02  5.383300711E+02  1.250000000E+02  0.00000E+00  9.000E+00
      21     1     1     2   502   511  9.746994745E+01  2.414103394E+01 -2.499266791E+02  2.693446215E+02  2.697398305E-06  0.00000E+00  9.000E+00
#rwgt            1           1   3.0632975339147564E-002           3      227226           0
</event>
<event>
      5   9999  3.19816E-02  2.71762E+01 -1.00000E+00  1.56083E-01
      21    -1     0     0   512   501  0.000000000E+00  0.000000000E+00  5.059784355E+02  5.059784355E+02  0.000000000E+00  0.00000E+00  9.000E+00
      21    -1     0     0   501   502  0.000000000E+00  0.000000000E+00 -5.856557263E+02  5.856557263E+02  0.000000000E+00  0.00000E+00  9.000E+00
      25     1     1     2     0     0  5.476680452E+01 -9.053220535E+01  4.230664066E+02  4.536580953E+02  1.250000000E+02  0.00000E+00  9.000E+00
      25     1     1     2     0     0 -2.846155681E+01  8.370742699E+01 -5.568031557E+02  5.774701272E+02  1.250000000E+02  0.00000E+00  9.000E+00
      21     1     1     2   512   502 -2.630524770E+01  6.824778355E+00  5.405945834E+01  6.050593931E+01  0.000000000E+00  0.00000E+00  9.000E+00
#rwgt            1           1   2.4990012997499336E-002           3      227286           0
</event>
<event>
      5   9999  3.19816E-02  1.62397E+02 -1.00000E+00  1.15043E-01
      21    -1     0     0   502   511  0.000000000E+00  0.000000000E+00  3.426564784E+02  3.426564784E+02  0.000000000E+00  0.00000E+00  9.000E+00
      21    -1     0     0   501   502  0.000000000E+00  0.000000000E+00 -4.139786396E+02  4.139786396E+02  0.000000000E+00  0.00000E+00  9.000E+00
      25     1     1     2     0     0 -1.327309964E+02  1.453654746E+02 -2.076040607E+02  3.122067978E+02  1.250000000E+02  0.00000E+00  9.000E+00
      25     1     1     2     0     0  8.564162292E+01  1.005406695E+01 -8.182830833E+01  1.725005620E+02  1.250000000E+02  0.00000E+00  9.000E+00
      21     1     1     2   501   511  4.708937347E+01 -1.554195415E+02  2.181102077E+02  2.719277582E+02  2.697398305E-06  0.00000E+00  9.000E+00
#rwgt            1           1   2.8670560959709566E-002           3      227411           0
</event>
<event>
      5   9999  3.19816E-02  2.44196E+02 -1.00000E+00  1.08580E-01
      21    -1     0     0   502   501  0.000000000E+00  0.000000000E+00  2.783878208E+02  2.783878208E+02  0.000000000E+00  0.00000E+00  9.000E+00
      21    -1     0     0   512   502  0.000000000E+00  0.000000000E+00 -3.741474583E+02  3.741474583E+02  0.000000000E+00  0.00000E+00  9.000E+00
      25     1     1     2     0     0  7.818790277E+01 -2.036519792E+02 -8.515225926E+01  2.654494001E+02  1.250000000E+02  0.00000E+00  9.000E+00
      25     1     1     2     0     0  7.539491141E+00 -2.500147369E+01  4.719772367E+01  1.361416275E+02  1.250000000E+02  0.00000E+00  9.000E+00
      21     1     1     2   512   501 -8.572739391E+01  2.286534528E+02 -5.780510198E+01  2.509442515E+02  5.642013343E-06  0.00000E+00  9.000E+00
#rwgt            1           1   8.2248630588831306E-002           3      227456           0
</event>
<event>
      5   9999  3.19816E-02  2.62193E+01 -1.00000E+00  1.57217E-01
      21    -1     0     0   502   511  0.000000000E+00  0.000000000E+00  1.986925021E+02  1.986925021E+02  0.000000000E+00  0.00000E+00  9.000E+00
      21    -1     0     0   501   502  0.000000000E+00  0.000000000E+00 -2.903689115E+02  2.903689115E+02  0.000000000E+00  0.00000E+00  9.000E+00
      25     1     1     2     0     0 -1.076681382E+02 -1.155991897E+02 -3.842796902E+01  2.050787884E+02  1.250000000E+02  0.00000E+00  9.000E+00
      25     1     1     2     0     0  1.324421954E+02  1.241840006E+02 -9.062349857E+01  2.383279665E+02  1.250000000E+02  0.00000E+00  9.000E+00
      21     1     1     2   501   511 -2.477405716E+01 -8.584810932E+00  3.737505821E+01  4.565465873E+01  9.536743164E-07  0.00000E+00  9.000E+00
#rwgt            1           1   2.4626530333258775E-002           3      227505           0
</event>
<event>
      5   9999  3.19816E-02  1.79241E+01 -1.00000E+00  1.70394E-01
      21    -1     0     0   502   512  0.000000000E+00  0.000000000E+00  3.224064591E+02  3.224064591E+02  0.000000000E+00  0.00000E+00  9.000E+00
      21    -1     0     0   501   502  0.000000000E+00  0.000000000E+00 -1.205371567E+02  1.205371567E+02  0.000000000E+00  0.00000E+00  9.000E+00
      25     1     1     2     0     0 -6.640852001E+01 -1.342792627E+01  2.356953279E+02  2.752593111E+02  1.250000000E+02  0.00000E+00  9.000E+00
      25     1     1     2     0     0  4.934525429E+01  7.940009462E+00 -4.993561986E+01  1.435846928E+02  1.250000000E+02  0.00000E+00  9.000E+00
      21     1     1     2   501   512  1.706326573E+01  5.487916805E+00  1.610959428E+01  2.409961195E+01  3.371747881E-07  0.00000E+00  9.000E+00
#rwgt            1           1   3.3322565089608611E-002           3      227669           0
</event>
<event>
      5   9999  3.19816E-02  2.77711E+01 -1.00000E+00  1.55406E-01
      21    -1     0     0   502   501  0.000000000E+00  0.000000000E+00  2.218977860E+02  2.218977860E+02  0.000000000E+00  0.00000E+00  9.000E+00
      21    -1     0     0   511   502  0.000000000E+00  0.000000000E+00 -1.531608281E+03  1.531608281E+03  0.000000000E+00  0.00000E+00  9.000E+00
      25     1     1     2     0     0  8.885185567E+01  7.161225429E+01 -5.851235960E+00  1.693582126E+02  1.250000000E+02  0.00000E+00  9.000E+00
      25     1     1     2     0     0 -7.672814710E+01 -9.659721420E+01  8.493043839E+01  1.950805211E+02  1.250000000E+02  0.00000E+00  9.000E+00
      21     1     1     2   511   501 -1.212370857E+01  2.498495992E+01 -1.388789698E+03  1.389067333E+03  1.525878906E-05  0.00000E+00  9.000E+00
#rwgt            1           1   2.7392873536230437E-002           3      227871           0
</event>
<event>
      5   9999  3.19816E-02  4.65542E+01 -1.00000E+00  1.40868E-01
      21    -1     0     0   502   501  0.000000000E+00  0.000000000E+00  1.176091678E+02  1.176091678E+02  0.000000000E+00  0.00000E+00  9.000E+00
      21    -1     0     0   501   512  0.000000000E+00  0.000000000E+00 -2.076127522E+03  2.076127522E+03  0.000000000E+00  0.00000E+00  9.000E+00
      25     1     1     2     0     0  5.181968286E+01 -4.300179854E+02 -9.647459491E+02  1.064875811E+03  1.250000000E+02  0.00000E+00  9.000E+00
      25     1     1     2     0     0 -2.437937023E+01  4.676254907E+02 -8.592510304E+02  9.865116758E+02  1.250000000E+02  0.00000E+00  9.000E+00
      21     1     1     2   502   512 -2.744031263E+01 -3.760750531E+01 -1.345213751E+02  1.423492029E+02  2.697398305E-06  0.00000E+00  9.000E+00
#rwgt            1           1   2.6947213071056908E-002           3      227989           0
</event>
<event>
      5   9999  3.19816E-02  3.92710E+01 -1.00000E+00  1.45337E-01
      21    -1     0     0   502   511  0.000000000E+00  0.000000000E+00  2.850318325E+02  2.850318325E+02  0.000000000E+00  0.00000E+00  9.000E+00
      21    -1     0     0   501   502  0.000000000E+00  0.000000000E+00 -1.096967410E+03  1.096967410E+03  0.000000000E+00  0.00000E+00  9.000E+00
      25     1     1     2     0     0 -3.228062743E+02  2.697271217E+02 -1.252502331E+02  4.563652395E+02  1.250000000E+02  0.00000E+00  9.000E+00
      25     1     1     2     0     0  3.567320311E+02 -2.499468904E+02 -7.349396808E+02  8.634190897E+02  1.250000000E+02  0.00000E+00  9.000E+00
      21     1     1     2   501   511 -3.392575681E+01 -1.978023128E+01  4.825433616E+01  6.221491367E+01  1.348699152E-06  0.00000E+00  9.000E+00
#rwgt            1           1   2.8551266163760507E-002           3      228110           0
</event>
<event>
      5   9999  3.19816E-02  4.16151E+01 -1.00000E+00  1.43782E-01
      21    -1     0     0   512   501  0.000000000E+00  0.000000000E+00  1.804182455E+03  1.804182455E+03  0.000000000E+00  0.00000E+00  9.000E+00
      21    -1     0     0   501   502  0.000000000E+00  0.000000000E+00 -7.036488153E+01  7.036488153E+01  0.000000000E+00  0.00000E+00  9.000E+00
      25     1     1     2     0     0 -2.468386662E+02 -1.327538249E+02  7.224685337E+02  7.849450219E+02  1.250000000E+02  0.00000E+00  9.000E+00
      25     1     1     2     0     0  2.240864958E+02  9.790911524E+01  4.533190077E+02  5.300227120E+02  1.250000000E+02  0.00000E+00  9.000E+00
      21     1     1     2   512   502  2.275217039E+01  3.484470967E+01  5.580300323E+02  5.595796029E+02  7.629394531E-06  0.00000E+00  9.000E+00
#rwgt            1           1   2.7962270430522691E-002           3      228193           0
</event>
<event>
      5   9999  3.19816E-02  2.29889E+01 -1.00000E+00  1.61528E-01
      21    -1     0     0   502   511  0.000000000E+00  0.000000000E+00  6.351132336E+02  6.351132336E+02  0.000000000E+00  0.00000E+00  9.000E+00
      21    -1     0     0   501   502  0.000000000E+00  0.000000000E+00 -9.307423283E+02  9.307423283E+02  0.000000000E+00  0.00000E+00  9.000E+00
      25     1     1     2     0     0 -2.273591096E+02 -1.542409884E+01 -6.044143251E+02  6.579298929E+02  1.250000000E+02  0.00000E+00  9.000E+00
      25     1     1     2     0     0  2.206820305E+02  3.742200458E+01 -2.444375387E+02  3.542254583E+02  1.250000000E+02  0.00000E+00  9.000E+00
      21     1     1     2   501   511  6.677079112E+00 -2.199790573E+01  5.532227690E+02  5.537002107E+02  7.629394531E-06  0.00000E+00  9.000E+00
#rwgt            1           1   2.3906383603362582E-002           3      228333           0
</event>
<event>
      5   9999  3.19816E-02  2.47633E+02 -1.00000E+00  1.08372E-01
      21    -1     0     0   502   501  0.000000000E+00  0.000000000E+00  2.283470493E+03  2.283470493E+03  0.000000000E+00  0.00000E+00  9.000E+00
      21    -1     0     0   501   512  0.000000000E+00  0.000000000E+00 -5.770002992E+02  5.770002992E+02  0.000000000E+00  0.00000E+00  9.000E+00
      25     1     1     2     0     0  1.534975528E+02 -5.666370375E+02  8.043121307E+02  1.003584593E+03  1.250000000E+02  0.00000E+00  9.000E+00
      25     1     1     2     0     0 -1.876905642E+02  3.213757437E+02  1.316715136E+03  1.373999224E+03  1.250000000E+02  0.00000E+00  9.000E+00
      21     1     1     2   502   512  3.419301132E+01  2.452612938E+02 -4.145570734E+02  4.828869757E+02  5.394796609E-06  0.00000E+00  9.000E+00
#rwgt            1           1   3.9388367310721602E-002           3      228446           0
</event>
<event>
      5   9999  3.19816E-02  4.52751E+01 -1.00000E+00  1.41581E-01
      21    -1     0     0   511   501  0.000000000E+00  0.000000000E+00  5.144667047E+02  5.144667047E+02  0.000000000E+00  0.00000E+00  9.000E+00
      21    -1     0     0   501   502  0.000000000E+00  0.000000000E+00 -1.545461386E+02  1.545461386E+02  0.000000000E+00  0.00000E+00  9.000E+00
      25     1     1     2     0     0 -9.143074420E+01  7.994198541E+01  1.421543135E+02  2.249069827E+02  1.250000000E+02  0.00000E+00  9.000E+00
      25     1     1     2     0     0  8.699352110E+01 -1.249991198E+02 -2.369040649E+01  1.984411450E+02  1.250000000E+02  0.00000E+00  9.000E+00
      21     1     1     2   511   502  4.437223101E+00  4.505713435E+01  2.414566591E+02  2.456647157E+02  2.697398305E-06  0.00000E+00  9.000E+00
#rwgt            1           1   2.5907771209162166E-002           3      228488           0
</event>
<event>
      5   9999  3.19816E-02  1.95717E+02 -1.00000E+00  1.11991E-01
      21    -1     0     0   502   501  0.000000000E+00  0.000000000E+00  2.343595744E+02  2.343595744E+02  0.000000000E+00  0.00000E+00  9.000E+00
       2    -1     0     0   501     0  0.000000000E+00  0.000000000E+00 -4.953840325E+02  4.953840325E+02  0.000000000E+00  0.00000E+00  9.000E+00
      25     1     1     2     0     0 -1.034345487E+02 -2.479542999E+01 -3.196898804E+02  3.593607364E+02  1.250000000E+02  0.00000E+00  9.000E+00
      25     1     1     2     0     0 -6.948056165E+01 -6.688645605E+01  7.340596521E+01  1.741114074E+02  1.250000000E+02  0.00000E+00  9.000E+00
       2     1     1     2   502     0  1.729151104E+02  9.168188604E+01 -1.474054286E+01  1.962714631E+02  1.554298974E-06  0.00000E+00  9.000E+00
#rwgt            1           1   2.9223645344197084E-002           3      228548           0
</event>
<event>
      5   9999  3.19816E-02  1.54309E+02 -1.00000E+00  1.15908E-01
      21    -1     0     0   502   501  0.000000000E+00  0.000000000E+00  5.908056964E+02  5.908056964E+02  0.000000000E+00  0.00000E+00  9.000E+00
      21    -1     0     0   511   502  0.000000000E+00  0.000000000E+00 -1.388981459E+03  1.388981459E+03  0.000000000E+00  0.00000E+00  9.000E+00
      25     1     1     2     0     0  2.516424143E+02  1.664152337E+02  4.665989057E+02  5.695239007E+02  1.250000000E+02  0.00000E+00  9.000E+00
      25     1     1     2     0     0 -2.982397092E+02 -3.135208948E+02 -7.708090481E+02  8.927563297E+02  1.250000000E+02  0.00000E+00  9.000E+00
      21     1     1     2   511   501  4.659729485E+01  1.471056612E+02 -4.939656204E+02  5.175069252E+02  5.394796609E-06  0.00000E+00  9.000E+00
#rwgt            2          11   2.8730603452926293E-003           3      228650           0
</event>
<event>
      5   9999  3.19816E-02  1.43947E+02 -1.00000E+00  1.17107E-01
      21    -1     0     0   502   501  0.000000000E+00  0.000000000E+00  1.659343733E+03  1.659343733E+03  0.000000000E+00  0.00000E+00  9.000E+00
      21    -1     0     0   512   502  0.000000000E+00  0.000000000E+00 -7.287008140E+02  7.287008140E+02  0.000000000E+00  0.00000E+00  9.000E+00
      25     1     1     2     0     0 -4.750137837E+02  8.916992097E+02  2.838735560E+02  1.056870272E+03  1.250000000E+02  0.00000E+00  9.000E+00
      25     1     1     2     0     0  4.590902350E+02 -7.486354443E+02  7.437654839E+02  1.157597066E+03  1.250000000E+02  0.00000E+00  9.000E+00
      21     1     1     2   512   501  1.592354863E+01 -1.430637654E+02 -9.699612041E+01  1.735772098E+02  1.348699152E-06  0.00000E+00  9.000E+00
#rwgt            1           1   3.4187522147232495E-002           3      228730           0
</event>
<event>
      5   9999  3.19816E-02  2.22183E+02 -1.00000E+00  1.10010E-01
      21    -1     0     0   502   501  0.000000000E+00  0.000000000E+00  2.083185339E+02  2.083185339E+02  0.000000000E+00  0.00000E+00  9.000E+00
       2    -1     0     0   501     0  0.000000000E+00  0.000000000E+00 -1.353499793E+03  1.353499793E+03  0.000000000E+00  0.00000E+00  9.000E+00
      25     1     1     2     0     0  1.472374902E+02  3.126654194E+01 -3.027764885E+01  1.979853812E+02  1.250000000E+02  0.00000E+00  9.000E+00
      25     1     1     2     0     0 -2.080078970E+02 -2.449767113E+02 -1.541344237E+02  3.777079491E+02  1.250000000E+02  0.00000E+00  9.000E+00
       2     1     1     2   502     0  6.077040685E+01  2.137101693E+02 -9.607691861E+02  9.861249961E+02  1.525878906E-05  0.00000E+00  9.000E+00
#rwgt            2          13   1.6576096895415300E-003           3      228891           0
</event>
<event>
      5   9999  3.19816E-02  2.52619E+01 -1.00000E+00  1.58413E-01
      21    -1     0     0   502   501  0.000000000E+00  0.000000000E+00  5.170490184E+01  5.170490184E+01  0.000000000E+00  0.00000E+00  9.000E+00
       2    -1     0     0   501     0  0.000000000E+00  0.000000000E+00 -2.652931894E+03  2.652931894E+03  0.000000000E+00  0.00000E+00  9.000E+00
      25     1     1     2     0     0 -2.350371501E+02  1.333146264E+02 -5.534015852E+02  6.284055745E+02  1.250000000E+02  0.00000E+00  9.000E+00
      25     1     1     2     0     0  2.565611136E+02 -1.200902530E+02 -1.975577008E+03  1.999693674E+03  1.250000000E+02  0.00000E+00  9.000E+00
       2     1     1     2   502     0 -2.152396349E+01 -1.322437339E+01 -7.224839907E+01  7.653754780E+01  9.536743164E-07  0.00000E+00  9.000E+00
#rwgt            1           1   5.5506042771089351E-002           3      228910           0
</event>
<event>
      5   9999  3.19816E-02  6.57557E+01 -1.00000E+00  1.32611E-01
       2    -1     0     0   502     0  0.000000000E+00  0.000000000E+00  2.164240337E+03  2.164240337E+03  0.000000000E+00  0.00000E+00  9.000E+00
      21    -1     0     0   501   502  0.000000000E+00  0.000000000E+00 -6.316223088E+02  6.316223088E+02  0.000000000E+00  0.00000E+00  9.000E+00
      25     1     1     2     0     0  6.778942828E+01 -9.325920867E+01 -5.269739525E+02  5.537320952E+02  1.250000000E+02  0.00000E+00  9.000E+00
      25     1     1     2     0     0 -1.318961802E+02  1.078927648E+02  3.231952328E+01  2.137919611E+02  1.250000000E+02  0.00000E+00  9.000E+00
       2     1     1     2   501     0  6.410675188E+01 -1.463355615E+01  2.027272458E+03  2.028338590E+03  2.157918644E-05  0.00000E+00  9.000E+00
#rwgt            1           1   2.9626279376262960E-002           3      229050           0
</event>
<event>
      5   9999  3.19816E-02  2.87589E+02 -1.00000E+00  1.06192E-01
      -3    -1     0     0     0   501  0.000000000E+00  0.000000000E+00  3.668314570E+02  3.668314570E+02  0.000000000E+00  0.00000E+00  9.000E+00
      21    -1     0     0   501   502  0.000000000E+00  0.000000000E+00 -1.689507590E+03  1.689507590E+03  0.000000000E+00  0.00000E+00  9.000E+00
      25     1     1     2     0     0 -3.991136168E+02 -7.027871034E+01  1.593987795E+02  4.530604233E+02  1.250000000E+02  0.00000E+00  9.000E+00
      25     1     1     2     0     0  1.300619455E+02  1.718592724E+02 -1.083525412E+03  1.111802158E+03  1.250000000E+02  0.00000E+00  9.000E+00
      -3     1     1     2     0   502  2.690516713E+02 -1.015805620E+02 -3.985495002E+02  4.914764658E+02  9.344061824E-06  0.00000E+00  9.000E+00
#rwgt            2           3   1.2188222195645588E-005           3      229293           0
</event>
<event>
      5   9999  3.19816E-02  1.75059E+01 -1.00000E+00  1.71288E-01
      21    -1     0     0   502   511  0.000000000E+00  0.000000000E+00  1.665866769E+03  1.665866769E+03  0.000000000E+00  0.00000E+00  9.000E+00
      21    -1     0     0   501   502  0.000000000E+00  0.000000000E+00 -9.219264519E+01  9.219264519E+01  0.000000000E+00  0.00000E+00  9.000E+00
      25     1     1     2     0     0  1.611946575E+02  1.009050281E+02  1.031542829E+02  2.498626591E+02  1.250000000E+02  0.00000E+00  9.000E+00
      25     1     1     2     0     0 -1.707193715E+02 -8.621705485E+01  6.776074743E+02  7.150911645E+02  1.250000000E+02  0.00000E+00  9.000E+00
      21     1     1     2   501   511  9.524713943E+00 -1.468797326E+01  7.929123669E+02  7.931055909E+02  1.525878906E-05  0.00000E+00  9.000E+00
#rwgt            1           1   3.2442078057099540E-002           3      229312           0
</event>
<event>
      5   9999  3.19816E-02  1.12576E+02 -1.00000E+00  1.21557E-01
      21    -1     0     0   502   501  0.000000000E+00  0.000000000E+00  3.074057495E+02  3.074057495E+02  0.000000000E+00  0.00000E+00  9.000E+00
      21    -1     0     0   512   502  0.000000000E+00  0.000000000E+00 -1.861068580E+03  1.861068580E+03  0.000000000E+00  0.00000E+00  9.000E+00
      25     1     1     2     0     0  5.529913963E+02 -1.287053541E+02 -1.326026829E+02  5.962994416E+02  1.250000000E+02  0.00000E+00  9.000E+00
      25     1     1     2     0     0 -4.407103390E+02  1.205684105E+02 -7.181449395E+02  8.603019811E+02  1.250000000E+02  0.00000E+00  9.000E+00
      21     1     1     2   512   501 -1.122810572E+02  8.136943608E+00 -7.029152079E+02  7.118729066E+02  1.525878906E-05  0.00000E+00  9.000E+00
#rwgt            1           1   3.1511696627921491E-002           3      229490           0
</event>
<event>
      5   9999  3.19816E-02  8.30051E+01 -1.00000E+00  1.27579E-01
      21    -1     0     0   502   511  0.000000000E+00  0.000000000E+00  1.070824908E+02  1.070824908E+02  0.000000000E+00  0.00000E+00  9.000E+00
      21    -1     0     0   501   502  0.000000000E+00  0.000000000E+00 -8.006920674E+02  8.006920674E+02  0.000000000E+00  0.00000E+00  9.000E+00
      25     1     1     2     0     0 -4.574070628E+01 -6.194881436E+01 -4.327878912E+02  4.570122827E+02  1.250000000E+02  0.00000E+00  9.000E+00
      25     1     1     2     0     0  1.155251594E+02  1.700473446E+01 -3.101587690E+02  3.542014757E+02  1.250000000E+02  0.00000E+00  9.000E+00
      21     1     1     2   501   511 -6.978445316E+01  4.494407990E+01  4.933708354E+01  9.656079967E+01  2.023048729E-06  0.00000E+00  9.000E+00
#rwgt            1           1   7.1149784022805015E-002           3      229554           0
</event>
<event>
      5   9999  3.19816E-02  3.40749E+01 -1.00000E+00  1.49295E-01
      21    -1     0     0   512   501  0.000000000E+00  0.000000000E+00  1.786166734E+02  1.786166734E+02  0.000000000E+00  0.00000E+00  9.000E+00
      21    -1     0     0   501   502  0.000000000E+00  0.000000000E+00 -1.410568783E+03  1.410568783E+03  0.000000000E+00  0.00000E+00  9.000E+00
      25     1     1     2     0     0 -4.701306026E+02 -7.970966333E+01 -7.555215577E+02  9.021165324E+02  1.250000000E+02  0.00000E+00  9.000E+00
      25     1     1     2     0     0  4.362260769E+02  7.630612528E+01 -4.529937440E+02  6.457121239E+02  1.250000000E+02  0.00000E+00  9.000E+00
      21     1     1     2   512   502  3.390452569E+01  3.403538049E+00 -2.343680776E+01  4.135679982E+01  4.768371582E-07  0.00000E+00  9.000E+00
#rwgt            1           1   2.8951668681791852E-002           3      229606           0
</event>
<event>
      5   9999  3.19816E-02  3.56408E+02 -1.00000E+00  1.03216E-01
      21    -1     0     0   502   501  0.000000000E+00  0.000000000E+00  2.421913952E+02  2.421913952E+02  0.000000000E+00  0.00000E+00  9.000E+00
       1    -1     0     0   501     0  0.000000000E+00  0.000000000E+00 -2.017294748E+03  2.017294748E+03  0.000000000E+00  0.00000E+00  9.000E+00
      25     1     1     2     0     0 -2.553844719E+02 -3.852951127E+02 -1.412349386E+03  1.491317988E+03  1.250000000E+02  0.00000E+00  9.000E+00
      25     1     1     2     0     0 -7.707411488E+01  2.568512453E+02 -2.684289444E+02  3.994897741E+02  1.250000000E+02  0.00000E+00  9.000E+00
       1     1     1     2   502     0  3.324585868E+02  1.284438673E+02 -9.432502232E+01  3.686783813E+02  5.722045898E-06  0.00000E+00  9.000E+00
#rwgt            2          12   2.9459358558335671E-004           3      229775           0
</event>
<event>
      5   9999  3.19816E-02  1.63098E+02 -1.00000E+00  1.14971E-01
      21    -1     0     0   502   501  0.000000000E+00  0.000000000E+00  9.993042542E+02  9.993042542E+02  0.000000000E+00  0.00000E+00  9.000E+00
      21    -1     0     0   511   502  0.000000000E+00  0.000000000E+00 -8.352482210E+01  8.352482210E+01  0.000000000E+00  0.00000E+00  9.000E+00
      25     1     1     2     0     0 -1.773918632E+01  3.551325247E+01  6.001220325E+02  6.142860276E+02  1.250000000E+02  0.00000E+00  9.000E+00
      25     1     1     2     0     0  3.999603987E+01  1.260593987E+02  1.857018914E+02  2.600016301E+02  1.250000000E+02  0.00000E+00  9.000E+00
      21     1     1     2   511   501 -2.225685355E+01 -1.615726512E+02  1.299555082E+02  2.085414186E+02  5.722045898E-06  0.00000E+00  9.000E+00
#rwgt            2          11   3.3580983738145790E-003           3      229794           0
</event>
<event>
      5   9999  3.19816E-02  3.35731E+01 -1.00000E+00  1.49721E-01
      21    -1     0     0   502   501  0.000000000E+00  0.000000000E+00  2.371194585E+02  2.371194585E+02  0.000000000E+00  0.00000E+00  9.000E+00
      21    -1     0     0   501   512  0.000000000E+00  0.000000000E+00 -6.008283707E+02  6.008283707E+02  0.000000000E+00  0.00000E+00  9.000E+00
      25     1     1     2     0     0  5.247584583E+00 -9.245664336E+01  1.952033626E+02  2.496099374E+02  1.250000000E+02  0.00000E+00  9.000E+00
      25     1     1     2     0     0  1.861335880E+01  6.883869997E+01 -3.807311693E+02  4.070214331E+02  1.250000000E+02  0.00000E+00  9.000E+00
      21     1     1     2   502   512 -2.386094338E+01  2.361794339E+01 -1.781811055E+02  1.813164588E+02  0.000000000E+00  0.00000E+00  9.000E+00
#rwgt            1           1   2.7146477640806712E-002           3      229829           0
</event>
<event>
      5   9999  3.19816E-02  2.96833E+02 -1.00000E+00  1.05742E-01
      21    -1     0     0   502   501  0.000000000E+00  0.000000000E+00  1.650299089E+03  1.650299089E+03  0.000000000E+00  0.00000E+00  9.000E+00
      21    -1     0     0   501   511  0.000000000E+00  0.000000000E+00 -1.329334934E+02  1.329334934E+02  0.000000000E+00  0.00000E+00  9.000E+00
      25     1     1     2     0     0 -2.488168302E+02 -2.421538360E+02  6.330753090E+02  7.327739366E+02  1.250000000E+02  0.00000E+00  9.000E+00
      25     1     1     2     0     0  1.499500749E+02 -3.772999313E+01  6.265545477E+02  6.573463155E+02  1.250000000E+02  0.00000E+00  9.000E+00
      21     1     1     2   502   511  9.886675527E+01  2.798838291E+02  2.577357392E+02  3.931123304E+02  6.607249480E-06  0.00000E+00  9.000E+00
#rwgt            1           1   3.3117187547614342E-002           3      229945           0
</event>
<event>
      5   9999  3.19816E-02  2.04380E+02 -1.00000E+00  1.11307E-01
      21    -1     0     0   502   501  0.000000000E+00  0.000000000E+00  7.591227396E+02  7.591227396E+02  0.000000000E+00  0.00000E+00  9.000E+00
      21    -1     0     0   501   512  0.000000000E+00  0.000000000E+00 -3.724647736E+02  3.724647736E+02  0.000000000E+00  0.00000E+00  9.000E+00
      25     1     1     2     0     0  1.271269814E+02 -1.975319734E+02  4.187783081E+02  4.961657195E+02  1.250000000E+02  0.00000E+00  9.000E+00
      25     1     1     2     0     0 -7.384036901E+01  2.211324624E-01  2.487763774E+02  2.880401620E+02  1.250000000E+02  0.00000E+00  9.000E+00
      21     1     1     2   502   512 -5.328661234E+01  1.973108409E+02 -2.808967195E+02  3.473816316E+02  3.814697266E-06  0.00000E+00  9.000E+00
#rwgt            1           1   2.5863749907535493E-002           3      229983           0
</event>
<event>
      5   9999  3.19816E-02  5.44379E+01 -1.00000E+00  1.37001E-01
       2    -1     0     0   502     0  0.000000000E+00  0.000000000E+00  4.265093244E+02  4.265093244E+02  0.000000000E+00  0.00000E+00  9.000E+00
      21    -1     0     0   501   502  0.000000000E+00  0.000000000E+00 -1.151767182E+02  1.151767182E+02  0.000000000E+00  0.00000E+00  9.000E+00
      25     1     1     2     0     0  1.699221471E+02  2.914219751E+01  1.696344989E+02  2.722566197E+02  1.250000000E+02  0.00000E+00  9.000E+00
      25     1     1     2     0     0 -1.160124608E+02 -3.670697702E+01  1.135330429E+02  2.081370824E+02  1.250000000E+02  0.00000E+00  9.000E+00
       2     1     1     2   501     0 -5.390968623E+01  7.564779511E+00  2.816506438E+01  6.129234055E+01  4.768371582E-07  0.00000E+00  9.000E+00
#rwgt            1           1   2.7599033117787858E-002           3      230031           0
</event>
<event>
      5   9999  3.19816E-02  9.43720E+01 -1.00000E+00  1.24970E-01
      21    -1     0     0   502   501  0.000000000E+00  0.000000000E+00  1.434594319E+03  1.434594319E+03  0.000000000E+00  0.00000E+00  9.000E+00
      21    -1     0     0   501   511  0.000000000E+00  0.000000000E+00 -1.060864626E+03  1.060864626E+03  0.000000000E+00  0.00000E+00  9.000E+00
      25     1     1     2     0     0 -7.913635607E+02 -3.544865995E+02  2.628623092E+02  9.146795221E+02  1.250000000E+02  0.00000E+00  9.000E+00
      25     1     1     2     0     0  8.849334627E+02  3.422086187E+02  5.687682322E+02  1.113254811E+03  1.250000000E+02  0.00000E+00  9.000E+00
      21     1     1     2   502   511 -9.356990192E+01  1.227798077E+01 -4.579008483E+02  4.675246114E+02  0.000000000E+00  0.00000E+00  9.000E+00
#rwgt            1           1   3.2487826997970398E-002           3      230135           0
</event>
<event>
      5   9999  3.19816E-02  1.53452E+02 -1.00000E+00  1.16003E-01
      21    -1     0     0   502   501  0.000000000E+00  0.000000000E+00  2.455172231E+02  2.455172231E+02  0.000000000E+00  0.00000E+00  9.000E+00
      21    -1     0     0   501   512  0.000000000E+00  0.000000000E+00 -6.849343604E+02  6.849343604E+02  0.000000000E+00  0.00000E+00  9.000E+00
      25     1     1     2     0     0  4.318509719E+01 -7.612278501E+01 -1.204923076E+02  1.944300059E+02  1.250000000E+02  0.00000E+00  9.000E+00
      25     1     1     2     0     0 -1.947248053E+02  5.197035511E+01  1.237509466E+02  2.675032045E+02  1.250000000E+02  0.00000E+00  9.000E+00
      21     1     1     2   502   512  1.515397081E+02  2.415242991E+01 -4.426757764E+02  4.685183732E+02  7.629394531E-06  0.00000E+00  9.000E+00
#rwgt            1           1   3.3077615764899579E-002           3      230254           0
</event>
<event>
      5   9999  3.19816E-02  1.26073E+01 -1.00000E+00  1.84801E-01
      21    -1     0     0   502   501  0.000000000E+00  0.000000000E+00  1.597040188E+02  1.597040188E+02  0.000000000E+00  0.00000E+00  9.000E+00
      21    -1     0     0   511   502  0.000000000E+00  0.000000000E+00 -3.193666531E+02  3.193666531E+02  0.000000000E+00  0.00000E+00  9.000E+00
      25     1     1     2     0     0 -1.073332432E+02  8.063617698E+01 -1.536464376E+02  2.392798485E+02  1.250000000E+02  0.00000E+00  9.000E+00
      25     1     1     2     0     0  1.176384033E+02 -8.789901966E+01  3.577672329E+01  1.961377208E+02  1.250000000E+02  0.00000E+00  9.000E+00
      21     1     1     2   511   501 -1.030516016E+01  7.262842685E+00 -4.179291997E+01  4.365310263E+01  4.768371582E-07  0.00000E+00  9.000E+00
#rwgt            1           1   2.5387464863361551E-002           3      230310           0
</event>
<event>
      5   9999  3.19816E-02  2.92168E+01 -1.00000E+00  1.53842E-01
      21    -1     0     0   502   501  0.000000000E+00  0.000000000E+00  8.430289011E+01  8.430289011E+01  0.000000000E+00  0.00000E+00  9.000E+00
      21    -1     0     0   501   512  0.000000000E+00  0.000000000E+00 -7.172352431E+02  7.172352431E+02  0.000000000E+00  0.00000E+00  9.000E+00
      25     1     1     2     0     0  7.276674546E+01  7.305894078E+01 -4.822886578E+02  5.087828195E+02  1.250000000E+02  0.00000E+00  9.000E+00
      25     1     1     2     0     0 -5.003238186E+01 -5.470767251E+01 -6.282202701E+00  1.454669541E+02  1.250000000E+02  0.00000E+00  9.000E+00
      21     1     1     2   502   512 -2.273436360E+01 -1.835126827E+01 -1.443614925E+02  1.472883596E+02  1.907348633E-06  0.00000E+00  9.000E+00
#rwgt            1           1   3.1510113474627233E-002           3      230508           0
</event>
<event>
      5   9999  3.19816E-02  3.03527E+01 -1.00000E+00  1.52688E-01
      21    -1     0     0   502   511  0.000000000E+00  0.000000000E+00  9.871438448E+02  9.871438448E+02  0.000000000E+00  0.00000E+00  9.000E+00
      21    -1     0     0   501   502  0.000000000E+00  0.000000000E+00 -5.737010552E+02  5.737010552E+02  0.000000000E+00  0.00000E+00  9.000E+00
      25     1     1     2     0     0 -5.396881961E+02 -3.238385492E+02  2.421653611E+02  6.858599107E+02  1.250000000E+02  0.00000E+00  9.000E+00
      25     1     1     2     0     0  5.689733423E+02  3.318176828E+02 -3.033292481E+01  6.711026190E+02  1.250000000E+02  0.00000E+00  9.000E+00
      21     1     1     2   501   511 -2.928514621E+01 -7.979133629E+00  2.016103534E+02  2.038823704E+02  3.814697266E-06  0.00000E+00  9.000E+00
#rwgt            1           1   3.1694111240073451E-002           3      230606           0
</event>
<event>
      5   9999  3.19816E-02  1.10603E+01 -1.00000E+00  1.90830E-01
      21    -1     0     0   502   501  0.000000000E+00  0.000000000E+00  8.899667452E+02  8.899667452E+02  0.000000000E+00  0.00000E+00  9.000E+00
      21    -1     0     0   512   502  0.000000000E+00  0.000000000E+00 -5.070078137E+02  5.070078137E+02  0.000000000E+00  0.00000E+00  9.000E+00
      25     1     1     2     0     0 -5.028496261E+02 -1.809664945E+02 -4.499619100E+01  5.506870943E+02  1.250000000E+02  0.00000E+00  9.000E+00
      25     1     1     2     0     0  4.918911258E+02  1.824639106E+02  5.226051445E+02  7.509934057E+02  1.250000000E+02  0.00000E+00  9.000E+00
      21     1     1     2   512   501  1.095850028E+01 -1.497416114E+00 -9.465002204E+01  9.529405887E+01  1.348699152E-06  0.00000E+00  9.000E+00
#rwgt            1           1   3.0264032851827941E-002           3      230821           0
</event>
<event>
      5   9999  3.19816E-02  9.79555E+01 -1.00000E+00  1.24233E-01
      21    -1     0     0   502   501  0.000000000E+00  0.000000000E+00  6.951179407E+02  6.951179407E+02  0.000000000E+00  0.00000E+00  9.000E+00
      21    -1     0     0   501   511  0.000000000E+00  0.000000000E+00 -2.079416169E+02  2.079416169E+02  0.000000000E+00  0.00000E+00  9.000E+00
      25     1     1     2     0     0  2.555498686E+02 -6.375672717E+01  1.098392511E+02  3.115450476E+02  1.250000000E+02  0.00000E+00  9.000E+00
      25     1     1     2     0     0 -2.227838002E+02  1.560696385E+02  3.911837987E+02  4.925851379E+02  1.250000000E+02  0.00000E+00  9.000E+00
      21     1     1     2   502   511 -3.276606839E+01 -9.231291129E+01 -1.384672599E+01  9.892937202E+01  1.617033478E-06  0.00000E+00  9.000E+00
#rwgt            1           1   2.8170505821284938E-002           3      231130           0
</event>
<event>
      5   9999  3.19816E-02  7.83339E+01 -1.00000E+00  1.28793E-01
      21    -1     0     0   502   501  0.000000000E+00  0.000000000E+00  6.329385884E+01  6.329385884E+01  0.000000000E+00  0.00000E+00  9.000E+00
      21    -1     0     0   512   502  0.000000000E+00  0.000000000E+00 -9.895455079E+02  9.895455079E+02  0.000000000E+00  0.00000E+00  9.000E+00
      25     1     1     2     0     0  5.873739313E+01  2.176262632E+01 -7.733608989E+01  1.597797361E+02  1.250000000E+02  0.00000E+00  9.000E+00
      25     1     1     2     0     0 -1.364801696E+02 -3.136819460E+01 -7.008136528E+02  7.255174541E+02  1.250000000E+02  0.00000E+00  9.000E+00
      21     1     1     2   512   501  7.774277651E+01  9.605568275E+00 -1.481019064E+02  1.675421765E+02  0.000000000E+00  0.00000E+00  9.000E+00
#rwgt            1           1   3.4056004058231171E-002           3      231200           0
</event>
<event>
      5   9999  3.19816E-02  3.98870E+01 -1.00000E+00  1.44916E-01
      21    -1     0     0   511   501  0.000000000E+00  0.000000000E+00  2.499773520E+02  2.499773520E+02  0.000000000E+00  0.00000E+00  9.000E+00
      21    -1     0     0   501   502  0.000000000E+00  0.000000000E+00 -4.964420264E+02  4.964420264E+02  0.000000000E+00  0.00000E+00  9.000E+00
      25     1     1     2     0     0 -8.873958035E+01  7.166874382E+01 -1.975519506E+02  2.601209241E+02  1.250000000E+02  0.00000E+00  9.000E+00
      25     1     1     2     0     0  1.102462964E+02 -3.807655878E+01 -2.380049759E+02  2.930451139E+02  1.250000000E+02  0.00000E+00  9.000E+00
      21     1     1     2   511   502 -2.150671608E+01 -3.359218504E+01  1.890922522E+02  1.932533404E+02  2.697398305E-06  0.00000E+00  9.000E+00
#rwgt            1           1   4.2760244115936402E-002           3      231250           0
</event>
<event>
      5   9999  3.19816E-02  8.56605E+01 -1.00000E+00  1.26929E-01
      21    -1     0     0   502   512  0.000000000E+00  0.000000000E+00  1.324476836E+02  1.324476836E+02  0.000000000E+00  0.00000E+00  9.000E+00
      21    -1     0     0   501   502  0.000000000E+00  0.000000000E+00 -8.004028703E+02  8.004028703E+02  0.000000000E+00  0.00000E+00  9.000E+00
      25     1     1     2     0     0  1.098922391E+02 -2.484648349E+02 -3.851860909E+02  4.876519282E+02  1.250000000E+02  0.00000E+00  9.000E+00
      25     1     1     2     0     0 -3.587438494E+01  2.053477033E+02 -2.613348403E+02  3.568971134E+02  1.250000000E+02  0.00000E+00  9.000E+00
      21     1     1     2   501   512 -7.401785419E+01  4.311713162E+01 -2.143425550E+01  8.830151236E+01  1.066240300E-06  0.00000E+00  9.000E+00
#rwgt            1           1   2.8453166552285698E-002           3      231334           0
</event>
<event>
      5   9999  3.19816E-02  8.88142E+01 -1.00000E+00  1.26190E-01
      21    -1     0     0   511   501  0.000000000E+00  0.000000000E+00  1.186999536E+02  1.186999536E+02  0.000000000E+00  0.00000E+00  9.000E+00
      21    -1     0     0   501   502  0.000000000E+00  0.000000000E+00 -1.172788187E+03  1.172788187E+03  0.000000000E+00  0.00000E+00  9.000E+00
      25     1     1     2     0     0  1.569390688E+02  1.495251822E+02 -1.849868738E+02  3.111796826E+02  1.250000000E+02  0.00000E+00  9.000E+00
      25     1     1     2     0     0 -2.421648115E+02 -1.745157256E+02 -8.135546240E+02  8.755544876E+02  1.250000000E+02  0.00000E+00  9.000E+00
      21     1     1     2   511   502  8.522574275E+01  2.499054343E+01 -5.554673577E+01  1.047539705E+02  1.784161275E-06  0.00000E+00  9.000E+00
#rwgt            2          11   3.5918066748372706E-003           3      231424           0
</event>
<event>
      5   9999  3.19816E-02  2.15181E+02 -1.00000E+00  1.10503E-01
      21    -1     0     0   502   501  0.000000000E+00  0.000000000E+00  2.553553064E+02  2.553553064E+02  0.000000000E+00  0.00000E+00  9.000E+00
       2    -1     0     0   501     0  0.000000000E+00  0.000000000E+00 -8.675011317E+02  8.675011317E+02  0.000000000E+00  0.00000E+00  9.000E+00
      25     1     1     2     0     0 -1.729008242E+02  2.634474466E+01 -5.511220004E+01  2.219258776E+02  1.250000000E+02  0.00000E+00  9.000E+00
      25     1     1     2     0     0  2.419375136E+02 -2.301508754E+02 -5.838222370E+02  6.840881451E+02  1.250000000E+02  0.00000E+00  9.000E+00
       2     1     1     2   502     0 -6.903668943E+01  2.038061307E+02  2.678861175E+01  2.168424154E+02  1.430511475E-06  0.00000E+00  9.000E+00
#rwgt            2          13   1.8476546685028855E-004           3      231459           0
</event>
<event>
      5   9999  3.19816E-02  1.09415E+02 -1.00000E+00  1.22095E-01
      21    -1     0     0   502   501  0.000000000E+00  0.000000000E+00  1.987664670E+02  1.987664670E+02  0.000000000E+00  0.00000E+00  9.000E+00
      21    -1     0     0   501   511  0.000000000E+00  0.000000000E+00 -4.396865891E+02  4.396865891E+02  0.000000000E+00  0.00000E+00  9.000E+00
      25     1     1     2     0     0 -2.038141945E+02 -9.065499176E+01 -1.945814219E+02  3.213183517E+02  1.250000000E+02  0.00000E+00  9.000E+00
      25     1     1     2     0     0  1.132172780E+02  2.930455869E+01  4.229314978E+01  1.763253235E+02  1.250000000E+02  0.00000E+00  9.000E+00
      21     1     1     2   502   511  9.059691647E+01  6.135043307E+01 -8.863184995E+01  1.408093809E+02  1.651812370E-06  0.00000E+00  9.000E+00
#rwgt            1           1   2.7162215064568514E-002           3      231493           0
</event>
<event>
      5   9999  3.19816E-02  1.59609E+01 -1.00000E+00  1.74880E-01
      21    -1     0     0   502   501  0.000000000E+00  0.000000000E+00  5.268082879E+02  5.268082879E+02  0.000000000E+00  0.00000E+00  9.000E+00
      21    -1     0     0   501   512  0.000000000E+00  0.000000000E+00 -1.515654878E+02  1.515654878E+02  0.000000000E+00  0.00000E+00  9.000E+00
      25     1     1     2     0     0  1.653425949E+02 -1.082842431E+02  1.290160513E+02  2.670838679E+02  1.250000000E+02  0.00000E+00  9.000E+00
      25     1     1     2     0     0 -1.504594724E+02  1.140497998E+02  2.881269715E+02  3.664526728E+02  1.250000000E+02  0.00000E+00  9.000E+00
      21     1     1     2   502   512 -1.488312254E+01 -5.765556630E+00 -4.190022274E+01  4.483723503E+01  0.000000000E+00  0.00000E+00  9.000E+00
#rwgt            1           1   2.6600446742715524E-002           3      231688           0
</event>
<event>
      5   9999  3.19816E-02  6.66968E+01 -1.00000E+00  1.32293E-01
      21    -1     0     0   502   501  0.000000000E+00  0.000000000E+00  2.619884804E+02  2.619884804E+02  0.000000000E+00  0.00000E+00  9.000E+00
      21    -1     0     0   501   511  0.000000000E+00  0.000000000E+00 -5.263540641E+02  5.263540641E+02  0.000000000E+00  0.00000E+00  9.000E+00
      25     1     1     2     0     0  3.275169600E+02 -4.607620415E+01 -8.381972921E+01  3.633746313E+02  1.250000000E+02  0.00000E+00  9.000E+00
      25     1     1     2     0     0 -2.811547228E+02 -1.871812809E+00 -1.072087306E+02  3.258376801E+02  1.250000000E+02  0.00000E+00  9.000E+00
      21     1     1     2   502   511 -4.636223721E+01  4.794801695E+01 -7.333712393E+01  9.913023311E+01  9.536743164E-07  0.00000E+00  9.000E+00
#rwgt            1           1   2.7547431808890036E-002           3      231896           0
</event>
<event>
      5   9999  3.19816E-02  2.99504E+01 -1.00000E+00  1.53090E-01
      21    -1     0     0   502   501  0.000000000E+00  0.000000000E+00  3.506955442E+02  3.506955442E+02  0.000000000E+00  0.00000E+00  9.000E+00
      21    -1     0     0   501   512  0.000000000E+00  0.000000000E+00 -2.769261568E+02  2.769261568E+02  0.000000000E+00  0.00000E+00  9.000E+00
      25     1     1     2     0     0 -7.786007485E+01 -1.257166218E+00  3.038154875E+02  3.376279345E+02  1.250000000E+02  0.00000E+00  9.000E+00
      25     1     1     2     0     0  6.075462655E+01 -2.332798091E+01 -2.133837956E+02  2.557204794E+02  1.250000000E+02  0.00000E+00  9.000E+00
      21     1     1     2   502   512  1.710544830E+01  2.458514713E+01 -1.666230444E+01  3.427328712E+01  5.840038640E-07  0.00000E+00  9.000E+00
#rwgt            1           1   2.7756980980872287E-002           3      231969           0
</event>
<event>
      5   9999  3.19816E-02  4.51347E+01 -1.00000E+00  1.41661E-01
      21    -1     0     0   511   501  0.000000000E+00  0.000000000E+00  6.594348586E+02  6.594348586E+02  0.000000000E+00  0.00000E+00  9.000E+00
      21    -1     0     0   501   502  0.000000000E+00  0.000000000E+00 -5.857251753E+01  5.857251753E+01  0.000000000E+00  0.00000E+00  9.000E+00
      25     1     1     2     0     0  1.593133188E+01 -9.091825968E+01  2.982975560E+02  3.363426366E+02  1.250000000E+02  0.00000E+00  9.000E+00
      25     1     1     2     0     0 -2.795216845E+01  1.344227324E+02  2.229112128E+02  2.901123980E+02  1.250000000E+02  0.00000E+00  9.000E+00
      21     1     1     2   511   502  1.202083657E+01 -4.350447272E+01  7.965357237E+01  9.155234158E+01  0.000000000E+00  0.00000E+00  9.000E+00
#rwgt            1           1   2.9859381251607645E-002           3      232099           0
</event>
<event>
      5   9999  3.19816E-02  1.43915E+01 -1.00000E+00  1.79095E-01
      21    -1     0     0   502   501  0.000000000E+00  0.000000000E+00  5.758261592E+01  5.758261592E+01  0.000000000E+00  0.00000E+00  9.000E+00
      21    -1     0     0   512   502  0.000000000E+00  0.000000000E+00 -1.024164604E+03  1.024164604E+03  0.000000000E+00  0.00000E+00  9.000E+00
      25     1     1     2     0     0  9.000195287E+01  1.574013336E+02 -6.322939676E+02  6.695492460E+02  1.250000000E+02  0.00000E+00  9.000E+00
      25     1     1     2     0     0 -8.005326227E+01 -1.678003058E+02 -2.954871971E+02  3.708141732E+02  1.250000000E+02  0.00000E+00  9.000E+00
      21     1     1     2   512   501 -9.948690601E+00  1.039897218E+01 -3.880082336E+01  4.138380070E+01  4.768371582E-07  0.00000E+00  9.000E+00
#rwgt            1           1   2.6212441766051371E-002           3      232167           0
</event>
<event>
      5   9999  3.19816E-02  2.19633E+02 -1.00000E+00  1.10187E-01
      21    -1     0     0   502   511  0.000000000E+00  0.000000000E+00  5.622072523E+02  5.622072523E+02  0.000000000E+00  0.00000E+00  9.000E+00
      21    -1     0     0   501   502  0.000000000E+00  0.000000000E+00 -6.814409722E+02  6.814409722E+02  0.000000000E+00  0.00000E+00  9.000E+00
      25     1     1     2     0     0 -1.558575812E+02 -2.797206336E+02 -3.275253102E+02  4.747979016E+02  1.250000000E+02  0.00000E+00  9.000E+00
      25     1     1     2     0     0  3.653888057E+02  3.455644735E+02  1.186385655E+02  5.316238275E+02  1.250000000E+02  0.00000E+00  9.000E+00
      21     1     1     2   501   511 -2.095312245E+02 -6.584383988E+01  8.965302477E+01  2.372264955E+02  1.651812370E-06  0.00000E+00  9.000E+00
#rwgt            1           1   2.7478674762471050E-002           3      232351           0
</event>
<event>
      5   9999  3.19816E-02  9.15494E+01 -1.00000E+00  1.25577E-01
      21    -1     0     0   502   501  0.000000000E+00  0.000000000E+00  7.635983872E+02  7.635983872E+02  0.000000000E+00  0.00000E+00  9.000E+00
      21    -1     0     0   512   502  0.000000000E+00  0.000000000E+00 -2.735970884E+02  2.735970884E+02  0.000000000E+00  0.00000E+00  9.000E+00
      25     1     1     2     0     0 -1.645575562E+02  1.016565452E+02  4.466233481E+02  5.025043856E+02  1.250000000E+02  0.00000E+00  9.000E+00
      25     1     1     2     0     0  1.309837382E+02 -1.648558430E+01  2.497552115E+02  3.089193743E+02  1.250000000E+02  0.00000E+00  9.000E+00
      21     1     1     2   512   501  3.357381792E+01 -8.517096091E+01 -2.063772607E+02  2.257717156E+02  5.394796609E-06  0.00000E+00  9.000E+00
#rwgt            1           1   2.2753810336637630E-002           3      232389           0
</event>
<event>
      5   9999  3.19816E-02  4.53747E+01 -1.00000E+00  1.41524E-01
      21    -1     0     0   502   501  0.000000000E+00  0.000000000E+00  2.578992588E+02  2.578992588E+02  0.000000000E+00  0.00000E+00  9.000E+00
       4    -1     0     0   501     0  0.000000000E+00  0.000000000E+00 -3.515656264E+02  3.515656264E+02  0.000000000E+00  0.00000E+00  9.000E+00
      25     1     1     2     0     0 -2.062842679E+02  7.969786434E+01 -1.069570082E+02  2.756261061E+02  1.250000000E+02  0.00000E+00  9.000E+00
      25     1     1     2     0     0  2.498822329E+02 -6.712471933E+01  1.963211829E+01  2.880230518E+02  1.250000000E+02  0.00000E+00  9.000E+00
       4     1     1     2   502     0 -4.359796499E+01 -1.257314502E+01 -6.341477737E+00  4.581572729E+01  4.298152060E-07  0.00000E+00  9.000E+00
#rwgt            1           1   2.9005838210394402E-002           3      232437           0
</event>
<event>
      5   9999  3.19816E-02  1.56930E+02 -1.00000E+00  1.15622E-01
      21    -1     0     0   502   501  0.000000000E+00  0.000000000E+00  1.048869838E+03  1.048869838E+03  0.000000000E+00  0.00000E+00  9.000E+00
      21    -1     0     0   511   502  0.000000000E+00  0.000000000E+00 -1.017752176E+03  1.017752176E+03  0.000000000E+00  0.00000E+00  9.000E+00
      25     1     1     2     0     0  9.751950606E+01  8.375109390E+02 -3.687433463E+02  9.287256228E+02  1.250000000E+02  0.00000E+00  9.000E+00
      25     1     1     2     0     0 -2.541322656E+02 -8.474793752E+02  4.046284009E+02  9.808943076E+02  1.250000000E+02  0.00000E+00  9.000E+00
      21     1     1     2   511   501  1.566127596E+02  9.968436261E+00 -4.767393146E+00  1.570020835E+02  1.920342886E-06  0.00000E+00  9.000E+00
#rwgt            1           1   2.3116834163373054E-002           3      232488           0
</event>
<event>
      5   9999  3.19816E-02  6.90629E+01 -1.00000E+00  1.31518E-01
      21    -1     0     0   502   501  0.000000000E+00  0.000000000E+00  7.481818395E+02  7.481818395E+02  0.000000000E+00  0.00000E+00  9.000E+00
      21    -1     0     0   501   512  0.000000000E+00  0.000000000E+00 -3.424324180E+02  3.424324180E+02  0.000000000E+00  0.00000E+00  9.000E+00
      25     1     1     2     0     0 -7.937727652E+00  7.453121742E+01  6.953456561E+02  7.104565373E+02  1.250000000E+02  0.00000E+00  9.000E+00
      25     1     1     2     0     0  7.419849417E+01 -9.400398564E+01 -1.736197447E+02  2.451754099E+02  1.250000000E+02  0.00000E+00  9.000E+00
      21     1     1     2   502   512 -6.626076652E+01  1.947276822E+01 -1.159764899E+02  1.349823103E+02  1.907348633E-06  0.00000E+00  9.000E+00
#rwgt            2          11   2.4915070003886297E-003           3      232599           0
</event>
<event>
      5   9999  3.19816E-02  1.39114E+02 -1.00000E+00  1.17705E-01
       2    -1     0     0   502     0  0.000000000E+00  0.000000000E+00  3.845387601E+02  3.845387601E+02  0.000000000E+00  0.00000E+00  9.000E+00
      21    -1     0     0   501   502  0.000000000E+00  0.000000000E+00 -3.096521204E+02  3.096521204E+02  0.000000000E+00  0.00000E+00  9.000E+00
      25     1     1     2     0     0 -5.617649609E+01 -2.017444773E+02 -5.740806271E+01  2.505540231E+02  1.250000000E+02  0.00000E+00  9.000E+00
      25     1     1     2     0     0 -6.951812059E+01  1.421328898E+02 -5.623576049E+01  2.093370207E+02  1.250000000E+02  0.00000E+00  9.000E+00
       2     1     1     2   501     0  1.256946167E+02  5.961158750E+01  1.885304630E+02  2.342998367E+02  0.000000000E+00  0.00000E+00  9.000E+00
#rwgt            1           1   2.6708409620747945E-002           3      232634           0
</event>
<event>
      5   9999  3.19816E-02  1.29713E+02 -1.00000E+00  1.18951E-01
      21    -1     0     0   502   501  0.000000000E+00  0.000000000E+00  2.037831254E+02  2.037831254E+02  0.000000000E+00  0.00000E+00  9.000E+00
       3    -1     0     0   501     0  0.000000000E+00  0.000000000E+00 -1.040119655E+03  1.040119655E+03  0.000000000E+00  0.00000E+00  9.000E+00
      25     1     1     2     0     0 -1.376236103E+02 -1.443685601E+02 -4.204991741E+02  4.818994654E+02  1.250000000E+02  0.00000E+00  9.000E+00
      25     1     1     2     0     0  2.672846043E+02  1.406871012E+02 -5.118664968E-01  3.268932274E+02  1.250000000E+02  0.00000E+00  9.000E+00
       3     1     1     2   502     0 -1.296609939E+02  3.681458897E+00 -4.153254886E+02  4.351100872E+02  5.394796609E-06  0.00000E+00  9.000E+00
#rwgt            1           1   2.7620529162527857E-002           3      232665           0
</event>
<event>
      5   9999  3.19816E-02  2.57185E+02 -1.00000E+00  1.07811E-01
      21    -1     0     0   502   501  0.000000000E+00  0.000000000E+00  1.593781053E+03  1.593781053E+03  0.000000000E+00  0.00000E+00  9.000E+00
      21    -1     0     0   511   502  0.000000000E+00  0.000000000E+00 -1.332451762E+03  1.332451762E+03  0.000000000E+00  0.00000E+00  9.000E+00
      25     1     1     2     0     0  1.263415546E+03  5.730876767E+02  2.867165356E+02  1.422139128E+03  1.250000000E+02  0.00000E+00  9.000E+00
      25     1     1     2     0     0 -1.013094744E+03 -6.321093130E+02  1.234027885E+02  1.206969922E+03  1.250000000E+02  0.00000E+00  9.000E+00
      21     1     1     2   511   501 -2.503208020E+02  5.902163621E+01 -1.487900330E+02  2.971237644E+02  3.814697266E-06  0.00000E+00  9.000E+00
#rwgt            2          11   7.1475523034454673E-003           3      232777           0
</event>
<event>
      5   9999  3.19816E-02  4.53912E+01 -1.00000E+00  1.41515E-01
      21    -1     0     0   502   512  0.000000000E+00  0.000000000E+00  2.690919343E+02  2.690919343E+02  0.000000000E+00  0.00000E+00  9.000E+00
      21    -1     0     0   501   502  0.000000000E+00  0.000000000E+00 -2.178080089E+02  2.178080089E+02  0.000000000E+00  0.00000E+00  9.000E+00
      25     1     1     2     0     0  4.544218043E+01  5.163201191E+01 -1.571391345E+02  2.122464699E+02  1.250000000E+02  0.00000E+00  9.000E+00
      25     1     1     2     0     0 -1.320809276E+00 -4.097057411E+01  1.714926007E+02  2.161366340E+02  1.250000000E+02  0.00000E+00  9.000E+00
      21     1     1     2   501   512 -4.412137115E+01 -1.066143780E+01  3.693045918E+01  5.851683915E+01  6.743495762E-07  0.00000E+00  9.000E+00
#rwgt            1           1   2.5086544145336336E-002           3      232827           0
</event>
<event>
      5   9999  3.19816E-02  1.13639E+01 -1.00000E+00  1.89550E-01
      21    -1     0     0   511   501  0.000000000E+00  0.000000000E+00  1.922247982E+03  1.922247982E+03  0.000000000E+00  0.00000E+00  9.000E+00
      21    -1     0     0   501   502  0.000000000E+00  0.000000000E+00 -1.311994573E+02  1.311994573E+02  0.000000000E+00  0.00000E+00  9.000E+00
      25     1     1     2     0     0  2.411609315E+02  2.648560582E+01  4.229091098E+02  5.033261342E+02  1.250000000E+02  0.00000E+00  9.000E+00
      25     1     1     2     0     0 -2.341120452E+02 -1.757207679E+01  1.034552454E+02  2.853860813E+02  1.250000000E+02  0.00000E+00  9.000E+00
      21     1     1     2   511   502 -7.048886258E+00 -8.913529025E+00  1.264684170E+03  1.264735224E+03  2.642899792E-05  0.00000E+00  9.000E+00
#rwgt            1           1   3.4659731795191481E-002           3      232942           0
</event>
<event>
      5   9999  3.19816E-02  5.33933E+01 -1.00000E+00  1.37468E-01
      21    -1     0     0   502   512  0.000000000E+00  0.000000000E+00  7.857512489E+01  7.857512489E+01  0.000000000E+00  0.00000E+00  9.000E+00
      21    -1     0     0   501   502  0.000000000E+00  0.000000000E+00 -7.838750697E+02  7.838750697E+02  0.000000000E+00  0.00000E+00  9.000E+00
      25     1     1     2     0     0 -1.647176633E+01  1.462949506E+02 -4.182511447E+02  4.606870431E+02  1.250000000E+02  0.00000E+00  9.000E+00
      25     1     1     2     0     0  5.507153891E+01 -1.094045953E+02 -2.995502103E+02  3.469258831E+02  1.250000000E+02  0.00000E+00  9.000E+00
      21     1     1     2   501   512 -3.859977258E+01 -3.689035526E+01  1.250141011E+01  5.483726843E+01  1.294944345E-06  0.00000E+00  9.000E+00
#rwgt            1           1   3.3566404226388728E-002           3      233140           0
</event>
<event>
      5   9999  3.19816E-02  1.83218E+01 -1.00000E+00  1.69572E-01
      21    -1     0     0   502   501  0.000000000E+00  0.000000000E+00  1.858077187E+02  1.858077187E+02  0.000000000E+00  0.00000E+00  9.000E+00
      21    -1     0     0   501   511  0.000000000E+00  0.000000000E+00 -3.689745303E+02  3.689745303E+02  0.000000000E+00  0.00000E+00  9.000E+00
      25     1     1     2     0     0 -1.232136294E+02 -1.155284162E+01  1.004302173E+02  2.025494882E+02  1.250000000E+02  0.00000E+00  9.000E+00
      25     1     1     2     0     0  1.338658943E+02  2.645984135E+01 -2.277324083E+02  2.934403698E+02  1.250000000E+02  0.00000E+00  9.000E+00
      21     1     1     2   502   511 -1.065226489E+01 -1.490699973E+01 -5.586462063E+01  5.879239089E+01  6.743495762E-07  0.00000E+00  9.000E+00
#rwgt            1           1   2.8204184051209270E-002           3      233204           0
</event>
<event>
      5   9999  3.19816E-02  2.28286E+02 -1.00000E+00  1.09596E-01
      21    -1     0     0   512   501  0.000000000E+00  0.000000000E+00  8.248469898E+02  8.248469898E+02  0.000000000E+00  0.00000E+00  9.000E+00
      21    -1     0     0   501   502  0.000000000E+00  0.000000000E+00 -3.737831283E+02  3.737831283E+02  0.000000000E+00  0.00000E+00  9.000E+00
      25     1     1     2     0     0  4.554943236E+02  9.461488933E+01 -5.996568873E+01  4.854358248E+02  1.250000000E+02  0.00000E+00  9.000E+00
      25     1     1     2     0     0 -2.289845110E+02 -6.619579087E+01  2.712312709E+02  3.821088736E+02  1.250000000E+02  0.00000E+00  9.000E+00
      21     1     1     2   512   502 -2.265098127E+02 -2.841909847E+01  2.397982793E+02  3.310854197E+02  0.000000000E+00  0.00000E+00  9.000E+00
#rwgt            1           1   2.9047379080082147E-002           3      233389           0
</event>
<event>
      5   9999  3.19816E-02  1.46780E+02 -1.00000E+00  1.16768E-01
      21    -1     0     0   502   501  0.000000000E+00  0.000000000E+00  1.997133764E+03  1.997133764E+03  0.000000000E+00  0.00000E+00  9.000E+00
      -3    -1     0     0     0   502  0.000000000E+00  0.000000000E+00 -2.504672121E+02  2.504672121E+02  0.000000000E+00  0.00000E+00  9.000E+00
      25     1     1     2     0     0 -2.575275419E+02  2.123936652E+02  4.696250831E+02  5.895796999E+02  1.250000000E+02  0.00000E+00  9.000E+00
      25     1     1     2     0     0  1.110068662E+02 -2.036657542E+02  1.425266896E+03  1.449418155E+03  1.250000000E+02  0.00000E+00  9.000E+00
      -3     1     1     2     0   501  1.465206757E+02 -8.727910976E+00 -1.482254273E+02  2.086031211E+02  3.814697266E-06  0.00000E+00  9.000E+00
#rwgt            2           8   1.5988338868361878E-004           3      233479           0
</event>
<event>
      5   9999  3.19816E-02  9.50968E+01 -1.00000E+00  1.24818E-01
      21    -1     0     0   511   501  0.000000000E+00  0.000000000E+00  2.749088347E+02  2.749088347E+02  0.000000000E+00  0.00000E+00  9.000E+00
      21    -1     0     0   501   502  0.000000000E+00  0.000000000E+00 -3.389767932E+02  3.389767932E+02  0.000000000E+00  0.00000E+00  9.000E+00
      25     1     1     2     0     0  2.334890486E+02 -1.213388770E+02 -4.030876587E+01  2.940919167E+02  1.250000000E+02  0.00000E+00  9.000E+00
      25     1     1     2     0     0 -1.383996882E+02  1.201498081E+02 -3.284532559E+01  2.242638301E+02  1.250000000E+02  0.00000E+00  9.000E+00
      21     1     1     2   511   502 -9.508936038E+01  1.189068845E+00  9.086132936E+00  9.552988095E+01  1.111910230E-06  0.00000E+00  9.000E+00
#rwgt            1           1   2.8981933949208578E-002           3      233528           0
</event>
<event>
      5   9999  3.65133E-02  1.01391E+02 -1.00000E+00  1.23559E-01
       2    -1     0     0   502     0  0.000000000E+00  0.000000000E+00  9.521472416E+01  9.521472416E+01  0.000000000E+00  0.00000E+00  9.000E+00
      21    -1     0     0   501   502  0.000000000E+00  0.000000000E+00 -1.854425193E+03  1.854425193E+03  0.000000000E+00  0.00000E+00  9.000E+00
      25     1     1     2     0     0 -2.797722063E+02  1.501635971E+02 -1.394987049E+03  1.436118191E+03  1.250000000E+02  0.00000E+00  9.000E+00
      25     1     1     2     0     0  2.165100213E+02 -7.092939621E+01 -2.764385740E+02  3.794085578E+02  1.250000000E+02  0.00000E+00  9.000E+00
       2     1     1     2   501     0  6.326218506E+01 -7.923420092E+01 -8.778484642E+01  1.341131683E+02  2.132480600E-06  0.00000E+00  9.000E+00
#rwgt            1           1   4.0945826570904384E-002           3      233609           0
</event>
<event>
      5   9999  3.19816E-02  2.35309E+01 -1.00000E+00  1.60746E-01
      21    -1     0     0   502   511  0.000000000E+00  0.000000000E+00  1.970743508E+02  1.970743508E+02  0.000000000E+00  0.00000E+00  9.000E+00
      21    -1     0     0   501   502  0.000000000E+00  0.000000000E+00 -2.986656269E+02  2.986656269E+02  0.000000000E+00  0.00000E+00  9.000E+00
      25     1     1     2     0     0 -4.297027168E+01 -1.190421442E+02  8.752401565E+01  1.982496650E+02  1.250000000E+02  0.00000E+00  9.000E+00
      25     1     1     2     0     0  2.198808884E+01  1.296935457E+02 -2.012784706E+02  2.710016874E+02  1.250000000E+02  0.00000E+00  9.000E+00
      21     1     1     2   501   511  2.098218283E+01 -1.065140145E+01  1.216317890E+01  2.648862530E+01  5.331201500E-07  0.00000E+00  9.000E+00
#rwgt            1           1   2.6262953186424548E-002           3      233691           0
</event>
<event>
      5   9999  3.19816E-02  3.21189E+01 -1.00000E+00  1.51009E-01
      21    -1     0     0   502   512  0.000000000E+00  0.000000000E+00  3.152698036E+02  3.152698036E+02  0.000000000E+00  0.00000E+00  9.000E+00
      21    -1     0     0   501   502  0.000000000E+00  0.000000000E+00 -3.103657463E+02  3.103657463E+02  0.000000000E+00  0.00000E+00  9.000E+00
      25     1     1     2     0     0  1.823201460E+02 -1.281764480E+02 -7.389814992E+01  2.659995752E+02  1.250000000E+02  0.00000E+00  9.000E+00
      25     1     1     2     0     0 -1.933293126E+02  1.583496662E+02  5.353821380E+00  2.794718292E+02  1.250000000E+02  0.00000E+00  9.000E+00
      21     1     1     2   501   512  1.100916663E+01 -3.017321827E+01  7.344838580E+01  8.016414552E+01  1.348699152E-06  0.00000E+00  9.000E+00
#rwgt            1           1   2.5793603441342291E-002           3      233851           0
</event>
<event>
      5   9999  3.19816E-02  1.38560E+02 -1.00000E+00  1.17776E-01
      21    -1     0     0   502   501  0.000000000E+00  0.000000000E+00  3.034848552E+02  3.034848552E+02  0.000000000E+00  0.00000E+00  9.000E+00
      21    -1     0     0   501   511  0.000000000E+00  0.000000000E+00 -4.412606998E+02  4.412606998E+02  0.000000000E+00  0.00000E+00  9.000E+00
      25     1     1     2     0     0 -2.605088301E+02 -5.360629011E+01  3.678585199E+01  2.961700252E+02  1.250000000E+02  0.00000E+00  9.000E+00
      25     1     1     2     0     0  2.126936948E+02 -7.644254592E+01 -5.172478873E+01  2.634056271E+02  1.250000000E+02  0.00000E+00  9.000E+00
      21     1     1     2   502   511  4.781513534E+01  1.300488360E+02 -1.228369079E+02  1.851699027E+02  0.000000000E+00  0.00000E+00  9.000E+00
#rwgt            1           1   3.0612079009333795E-002           3      234002           0
</event>
<event>
      5   9999  3.19816E-02  9.10979E+01 -1.00000E+00  1.25677E-01
      21    -1     0     0   512   501  0.000000000E+00  0.000000000E+00  9.016647256E+02  9.016647256E+02  0.000000000E+00  0.00000E+00  9.000E+00
      21    -1     0     0   501   502  0.000000000E+00  0.000000000E+00 -3.930657504E+02  3.930657504E+02  0.000000000E+00  0.00000E+00  9.000E+00
      25     1     1     2     0     0 -8.083293717E+01  2.637322758E+02 -2.764047039E+02  4.100161428E+02  1.250000000E+02  0.00000E+00  9.000E+00
      25     1     1     2     0     0 -1.817076986E+00 -2.254202741E+02  3.201647071E+02  4.110328958E+02  1.250000000E+02  0.00000E+00  9.000E+00
      21     1     1     2   512   502  8.265001416E+01 -3.831200177E+01  4.648389720E+02  4.736814375E+02  5.394796609E-06  0.00000E+00  9.000E+00
#rwgt            1           1   2.8010533445077642E-002           3      234103           0
</event>
<event>
      5   9999  3.19816E-02  3.68927E+02 -1.00000E+00  1.02753E-01
      21    -1     0     0   502   501  0.000000000E+00  0.000000000E+00  1.672551852E+02  1.672551852E+02  0.000000000E+00  0.00000E+00  9.000E+00
       2    -1     0     0   501     0  0.000000000E+00  0.000000000E+00 -3.855512604E+03  3.855512604E+03  0.000000000E+00  0.00000E+00  9.000E+00
      25     1     1     2     0     0  4.706812426E+02  3.092896070E+01 -5.330072477E+02  7.226473267E+02  1.250000000E+02  0.00000E+00  9.000E+00
      25     1     1     2     0     0 -2.841836646E+02 -3.492460396E+02 -2.540874346E+03  2.583486132E+03  1.250000000E+02  0.00000E+00  9.000E+00
       2     1     1     2   502     0 -1.864975780E+02  3.183170789E+02 -6.143758247E+02  7.166343303E+02  7.629394531E-06  0.00000E+00  9.000E+00
#rwgt            1           1   4.8364121078780797E-002           3      234226           0
</event>
<event>
      5   9999  3.19816E-02  1.05596E+02 -1.00000E+00  1.22774E-01
      21    -1     0     0   502   501  0.000000000E+00  0.000000000E+00  8.409323753E+02  8.409323753E+02  0.000000000E+00  0.00000E+00  9.000E+00
      21    -1     0     0   501   511  0.000000000E+00  0.000000000E+00 -1.482865340E+02  1.482865340E+02  0.000000000E+00  0.00000E+00  9.000E+00
      25     1     1     2     0     0  3.116159078E+01  1.245958867E+02  4.762386434E+02  5.088451878E+02  1.250000000E+02  0.00000E+00  9.000E+00
      25     1     1     2     0     0 -1.021891271E+02 -4.645752311E+01  3.012398608E+02  3.449222708E+02  1.250000000E+02  0.00000E+00  9.000E+00
      21     1     1     2   502   511  7.102753635E+01 -7.813836361E+01 -8.483266295E+01  1.354514507E+02  2.523185073E-06  0.00000E+00  9.000E+00
#rwgt            1           1   3.7971101506944854E-002           3      234288           0
</event>
<event>
      5   9999  3.19816E-02  3.23139E+01 -1.00000E+00  1.50832E-01
      21    -1     0     0   502   512  0.000000000E+00  0.000000000E+00  7.814668349E+02  7.814668349E+02  0.000000000E+00  0.00000E+00  9.000E+00
      21    -1     0     0   501   502  0.000000000E+00  0.000000000E+00 -6.703809473E+01  6.703809473E+01  0.000000000E+00  0.00000E+00  9.000E+00
      25     1     1     2     0     0  4.856702897E+01 -1.619329975E+02  2.710129021E+02  3.430073543E+02  1.250000000E+02  0.00000E+00  9.000E+00
      25     1     1     2     0     0 -7.546935620E+01  1.440318108E+02  3.391976176E+02  3.963846744E+02  1.250000000E+02  0.00000E+00  9.000E+00
      21     1     1     2   501   512  2.690232722E+01  1.790118665E+01  1.042182204E+02  1.091129010E+02  2.336015456E-06  0.00000E+00  9.000E+00
#rwgt            1           1   2.7186924647535308E-002           3      234324           0
</event>
<event>
      5   9999  3.19816E-02  5.09606E+02 -1.00000E+00  9.86178E-02
      21    -1     0     0   502   501  0.000000000E+00  0.000000000E+00  1.202743859E+03  1.202743859E+03  0.000000000E+00  0.00000E+00  9.000E+00
       2    -1     0     0   501     0  0.000000000E+00  0.000000000E+00 -1.832298345E+03  1.832298345E+03  0.000000000E+00  0.00000E+00  9.000E+00
      25     1     1     2     0     0 -6.359507322E+01  4.734012877E+02  5.271622953E+02  7.222729387E+02  1.250000000E+02  0.00000E+00  9.000E+00
      25     1     1     2     0     0 -2.906759169E+02 -8.397219066E+02  1.503552848E+02  9.098665181E+02  1.250000000E+02  0.00000E+00  9.000E+00
       2     1     1     2   502     0  3.542709902E+02  3.663206189E+02 -1.307072067E+03  1.402902747E+03  1.525878906E-05  0.00000E+00  9.000E+00
#rwgt            1           1   2.9775503243147140E-002           3      234431           0
</event>
<event>
      5   9999  3.19816E-02  2.21764E+02 -1.00000E+00  1.10039E-01
      21    -1     0     0   502   501  0.000000000E+00  0.000000000E+00  1.279319025E+03  1.279319025E+03  0.000000000E+00  0.00000E+00  9.000E+00
      21    -1     0     0   511   502  0.000000000E+00  0.000000000E+00 -9.033674175E+02  9.033674175E+02  0.000000000E+00  0.00000E+00  9.000E+00
      25     1     1     2     0     0 -2.528051315E+02 -2.289430250E+01  1.196305406E+03  1.229311274E+03  1.250000000E+02  0.00000E+00  9.000E+00
      25     1     1     2     0     0  1.075388482E+02  1.904556279E+02 -5.403601838E+02  5.961980194E+02  1.250000000E+02  0.00000E+00  9.000E+00
      21     1     1     2   511   501  1.452662833E+02 -1.675613254E+02 -2.799936154E+02  3.571771486E+02  5.394796609E-06  0.00000E+00  9.000E+00
#rwgt            1           1   3.7076862414102754E-002           3      234466           0
</event>
<event>
      5   9999  3.19816E-02  1.73467E+01 -1.00000E+00  1.71636E-01
      21    -1     0     0   502   501  0.000000000E+00  0.000000000E+00  5.748352604E+02  5.748352604E+02  0.000000000E+00  0.00000E+00  9.000E+00
      21    -1     0     0   501   512  0.000000000E+00  0.000000000E+00 -4.086404850E+02  4.086404850E+02  0.000000000E+00  0.00000E+00  9.000E+00
      25     1     1     2     0     0 -9.880250452E+01 -1.440618459E+02  5.176188008E+02  5.604194619E+02  1.250000000E+02  0.00000E+00  9.000E+00
      25     1     1     2     0     0  1.111052840E+02  1.318327478E+02 -2.936820063E+02  3.627649078E+02  1.250000000E+02  0.00000E+00  9.000E+00
      21     1     1     2   502   512 -1.230277949E+01  1.222909810E+01 -5.774201910E+01  6.029137578E+01  0.000000000E+00  0.00000E+00  9.000E+00
#rwgt            1           1   2.5809661464423431E-002           3      234576           0
</event>
<event>
      5   9999  3.19816E-02  7.12138E+01 -1.00000E+00  1.30844E-01
      21    -1     0     0   502   501  0.000000000E+00  0.000000000E+00  1.138643793E+03  1.138643793E+03  0.000000000E+00  0.00000E+00  9.000E+00
      21    -1     0     0   501   511  0.000000000E+00  0.000000000E+00 -2.927795243E+02  2.927795243E+02  0.000000000E+00  0.00000E+00  9.000E+00
      25     1     1     2     0     0  4.208787765E+02  2.746074343E+02  7.215125863E+02  8.881180100E+02  1.250000000E+02  0.00000E+00  9.000E+00
      25     1     1     2     0     0 -3.523634392E+02 -2.551894366E+02  1.324164922E+02  4.716362680E+02  1.250000000E+02  0.00000E+00  9.000E+00
      21     1     1     2   502   511 -6.851533731E+01 -1.941799775E+01 -8.064809435E+00  7.166903958E+01  6.307962682E-07  0.00000E+00  9.000E+00
#rwgt            1           1   2.9002919982605485E-002           3      234804           0
</event>
<event>
      5   9999  3.19816E-02  2.78936E+02 -1.00000E+00  1.06630E-01
      21    -1     0     0   502   501  0.000000000E+00  0.000000000E+00  1.506525867E+03  1.506525867E+03  0.000000000E+00  0.00000E+00  9.000E+00
      21    -1     0     0   501   512  0.000000000E+00  0.000000000E+00 -9.940201129E+02  9.940201129E+02  0.000000000E+00  0.00000E+00  9.000E+00
      25     1     1     2     0     0  5.096981337E+02  4.922180766E+02  5.793944067E+02  9.237931050E+02  1.250000000E+02  0.00000E+00  9.000E+00
      25     1     1     2     0     0 -6.628023814E+02 -7.253794755E+02  3.708829576E+02  1.057667977E+03  1.250000000E+02  0.00000E+00  9.000E+00
      21     1     1     2   502   512  1.531042477E+02  2.331613989E+02 -4.377716105E+02  5.190848982E+02  7.629394531E-06  0.00000E+00  9.000E+00
#rwgt            2          11   3.6121448169141052E-003           3      234971           0
</event>
<event>
      5   9999  3.19816E-02  3.95605E+01 -1.00000E+00  1.45138E-01
      21    -1     0     0   502   501  0.000000000E+00  0.000000000E+00  7.453785899E+02  7.453785899E+02  0.000000000E+00  0.00000E+00  9.000E+00
      21    -1     0     0   511   502  0.000000000E+00  0.000000000E+00 -7.977817088E+01  7.977817088E+01  0.000000000E+00  0.00000E+00  9.000E+00
      25     1     1     2     0     0 -1.280174715E+00  1.515005469E+02  5.104895237E+02  5.469722190E+02  1.250000000E+02  0.00000E+00  9.000E+00
      25     1     1     2     0     0 -3.660948443E+01 -1.401248577E+02  1.262289318E+02  2.292029086E+02  1.250000000E+02  0.00000E+00  9.000E+00
      21     1     1     2   511   501  3.788965915E+01 -1.137568921E+01  2.888196357E+01  4.898163324E+01  3.371747881E-07  0.00000E+00  9.000E+00
#rwgt            1           1   2.7997106045659411E-002           3      234991           0
</event>
<event>
      5   9999  3.19816E-02  5.24489E+01 -1.00000E+00  1.37901E-01
      21    -1     0     0   502   501  0.000000000E+00  0.000000000E+00  3.093310892E+01  3.093310892E+01  0.000000000E+00  0.00000E+00  9.000E+00
       2    -1     0     0   501     0  0.000000000E+00  0.000000000E+00 -2.450010203E+03  2.450010203E+03  0.000000000E+00  0.00000E+00  9.000E+00
      25     1     1     2     0     0  1.500530218E+02  1.138103567E+02 -7.213405991E+02  7.559272231E+02  1.250000000E+02  0.00000E+00  9.000E+00
      25     1     1     2     0     0 -1.445598240E+02 -1.659707981E+02 -1.406039333E+03  1.428641122E+03  1.250000000E+02  0.00000E+00  9.000E+00
       2     1     1     2   502     0 -5.493197765E+00  5.216044140E+01 -2.916971611E+02  2.963749663E+02  3.814697266E-06  0.00000E+00  9.000E+00
#rwgt            1           1   7.5081775071204712E-002           3      235128           0
</event>
<event>
      5   9999  3.19816E-02  4.95568E+01 -1.00000E+00  1.39296E-01
      21    -1     0     0   502   511  0.000000000E+00  0.000000000E+00  2.123087986E+02  2.123087986E+02  0.000000000E+00  0.00000E+00  9.000E+00
      21    -1     0     0   501   502  0.000000000E+00  0.000000000E+00 -1.670219020E+02  1.670219020E+02  0.000000000E+00  0.00000E+00  9.000E+00
      25     1     1     2     0     0 -6.100601059E+01 -4.922307362E+01 -4.882632332E+01  1.554144593E+02  1.250000000E+02  0.00000E+00  9.000E+00
      25     1     1     2     0     0  5.269664177E+01  3.678585032E-01  2.354027888E+01  1.376815750E+02  1.250000000E+02  0.00000E+00  9.000E+00
      21     1     1     2   501   511  8.309368819E+00  4.885521511E+01  7.057294106E+01  8.623466626E+01  9.536743164E-07  0.00000E+00  9.000E+00
#rwgt            1           1   2.5606143457881807E-002           3      235246           0
</event>
<event>
      5   9999  3.19816E-02  9.93502E+01 -1.00000E+00  1.23955E-01
       1    -1     0     0   502     0  0.000000000E+00  0.000000000E+00  1.560401244E+03  1.560401244E+03  0.000000000E+00  0.00000E+00  9.000E+00
      21    -1     0     0   501   502  0.000000000E+00  0.000000000E+00 -2.631849437E+02  2.631849437E+02  0.000000000E+00  0.00000E+00  9.000E+00
      25     1     1     2     0     0 -2.161673778E+02  5.141781742E+01  1.570489493E+02  2.994353013E+02  1.250000000E+02  0.00000E+00  9.000E+00
      25     1     1     2     0     0  1.205863619E+02 -2.431204622E+01 -1.496288213E+02  2.305340114E+02  1.250000000E+02  0.00000E+00  9.000E+00
       1     1     1     2   501     0  9.558101584E+01 -2.710577121E+01  1.289796173E+03  1.293616875E+03  2.157918644E-05  0.00000E+00  9.000E+00
#rwgt            1           1   2.7182637257871175E-002           3      235310           0
</event>
<event>
      5   9999  3.19816E-02  4.35146E+01 -1.00000E+00  1.42608E-01
      21    -1     0     0   502   501  0.000000000E+00  0.000000000E+00  2.296687174E+02  2.296687174E+02  0.000000000E+00  0.00000E+00  9.000E+00
      21    -1     0     0   501   511  0.000000000E+00  0.000000000E+00 -8.121198702E+02  8.121198702E+02  0.000000000E+00  0.00000E+00  9.000E+00
      25     1     1     2     0     0  7.009021954E+01 -3.590651423E+01  1.810584549E+02  2.336858591E+02  1.250000000E+02  0.00000E+00  9.000E+00
      25     1     1     2     0     0 -5.653702744E+01 -5.443624049E+00 -1.981414215E+02  2.410624223E+02  1.250000000E+02  0.00000E+00  9.000E+00
      21     1     1     2   502   511 -1.355319210E+01  4.135013828E+01 -5.653681863E+02  5.670403063E+02  7.629394531E-06  0.00000E+00  9.000E+00
#rwgt            1           1   3.0002789009368119E-002           3      235389           0
</event>
<event>
      5   9999  3.19816E-02  1.12330E+02 -1.00000E+00  1.21599E-01
      21    -1     0     0   502   501  0.000000000E+00  0.000000000E+00  2.479999531E+02  2.479999531E+02  0.000000000E+00  0.00000E+00  9.000E+00
       2    -1     0     0   501     0  0.000000000E+00  0.000000000E+00 -1.083908936E+03  1.083908936E+03  0.000000000E+00  0.00000E+00  9.000E+00
      25     1     1     2     0     0  1.133176673E+02 -1.758582158E+02  5.018552918E+01  2.488183939E+02  1.250000000E+02  0.00000E+00  9.000E+00
      25     1     1     2     0     0 -6.996322927E+01  2.794849871E+02 -1.678157678E+02  3.560812315E+02  1.250000000E+02  0.00000E+00  9.000E+00
       2     1     1     2   502     0 -4.335443805E+01 -1.036267713E+02 -7.182787444E+02  7.270092639E+02  7.629394531E-06  0.00000E+00  9.000E+00
#rwgt            2          13   9.6915352697337883E-004           3      235686           0
</event>
<event>
      5   9999  3.19816E-02  1.00195E+02 -1.00000E+00  1.23790E-01
      21    -1     0     0   511   501  0.000000000E+00  0.000000000E+00  9.117963881E+02  9.117963881E+02  0.000000000E+00  0.00000E+00  9.000E+00
      21    -1     0     0   501   502  0.000000000E+00  0.000000000E+00 -1.644450545E+02  1.644450545E+02  0.000000000E+00  0.00000E+00  9.000E+00
      25     1     1     2     0     0 -8.387128417E+01 -2.008609767E+02  4.221424058E+02  4.911300592E+02  1.250000000E+02  0.00000E+00  9.000E+00
      25     1     1     2     0     0  1.803098127E+02  2.280407625E+02  8.929986288E+01  3.288064529E+02  1.250000000E+02  0.00000E+00  9.000E+00
      21     1     1     2   511   502 -9.643852857E+01 -2.717978573E+01  2.359090648E+02  2.563049305E+02  3.814697266E-06  0.00000E+00  9.000E+00
#rwgt            1           1   2.8276749125900648E-002           3      235705           0
</event>
<event>
      5   9999  3.19816E-02  1.77099E+01 -1.00000E+00  1.70848E-01
      21    -1     0     0   502   501  0.000000000E+00  0.000000000E+00  1.625823693E+02  1.625823693E+02  0.000000000E+00  0.00000E+00  9.000E+00
      21    -1     0     0   512   502  0.000000000E+00  0.000000000E+00 -3.689599055E+02  3.689599055E+02  0.000000000E+00  0.00000E+00  9.000E+00
      25     1     1     2     0     0 -1.053389443E+02  9.986303911E+01  5.407752861E+01  1.990434598E+02  1.250000000E+02  0.00000E+00  9.000E+00
      25     1     1     2     0     0  8.995308158E+01 -1.086332491E+02 -2.441455374E+02  3.084230587E+02  1.250000000E+02  0.00000E+00  9.000E+00
      21     1     1     2   512   501  1.538586276E+01  8.770210006E+00 -1.630952751E+01  2.407575635E+01  4.129530925E-07  0.00000E+00  9.000E+00
#rwgt            1           1   2.6554628273623780E-002           3      235774           0
</event>
<event>
      5   9999  3.19816E-02  3.52143E+02 -1.00000E+00  1.03379E-01
      21    -1     0     0   502   501  0.000000000E+00  0.000000000E+00  3.596016850E+02  3.596016850E+02  0.000000000E+00  0.00000E+00  9.000E+00
      21    -1     0     0   501   511  0.000000000E+00  0.000000000E+00 -8.610577275E+02  8.610577275E+02  0.000000000E+00  0.00000E+00  9.000E+00
      25     1     1     2     0     0  2.484371783E+01  1.712689121E+02 -1.012609185E+01  2.137236260E+02  1.250000000E+02  0.00000E+00  9.000E+00
      25     1     1     2     0     0 -2.965777066E+02 -3.952444135E+02 -1.916824038E+02  5.445581937E+02  1.250000000E+02  0.00000E+00  9.000E+00
      21     1     1     2   502   511  2.717339888E+02  2.239755013E+02 -2.996475469E+02  4.623775927E+02  9.344061824E-06  0.00000E+00  9.000E+00
#rwgt            1           1   2.8169399850593614E-002           3      236043           0
</event>
<event>
      5   9999  3.19816E-02  3.31591E+02 -1.00000E+00  1.04198E-01
      21    -1     0     0   512   501  0.000000000E+00  0.000000000E+00  1.463071242E+03  1.463071242E+03  0.000000000E+00  0.00000E+00  9.000E+00
      21    -1     0     0   501   502  0.000000000E+00  0.000000000E+00 -9.412487477E+02  9.412487477E+02  0.000000000E+00  0.00000E+00  9.000E+00
      25     1     1     2     0     0 -7.453371436E+02  2.981345124E+02 -2.426189582E+02  8.478800646E+02  1.250000000E+02  0.00000E+00  9.000E+00
      25     1     1     2     0     0  9.571385457E+02 -4.300189649E+01  3.545560646E+02  1.029222212E+03  1.250000000E+02  0.00000E+00  9.000E+00
      21     1     1     2   512   502 -2.118014022E+02 -2.551326159E+02  4.098853879E+02  5.272177129E+02  7.629394531E-06  0.00000E+00  9.000E+00
#rwgt            2          11   3.5574793698947577E-003           3      236081           0
</event>
<event>
      5   9999  3.19816E-02  5.28583E+01 -1.00000E+00  1.37712E-01
      21    -1     0     0   502   501  0.000000000E+00  0.000000000E+00  8.470655884E+02  8.470655884E+02  0.000000000E+00  0.00000E+00  9.000E+00
      21    -1     0     0   501   511  0.000000000E+00  0.000000000E+00 -3.232159208E+02  3.232159208E+02  0.000000000E+00  0.00000E+00  9.000E+00
      25     1     1     2     0     0  2.729055348E+02  4.917634889E+01  6.156793012E+02  6.867180980E+02  1.250000000E+02  0.00000E+00  9.000E+00
      25     1     1     2     0     0 -3.002463024E+02 -9.441438823E+01  4.049966837E+01  3.410676501E+02  1.250000000E+02  0.00000E+00  9.000E+00
      21     1     1     2   502   511  2.734076765E+01  4.523803934E+01 -1.323293020E+02  1.424957611E+02  1.907348633E-06  0.00000E+00  9.000E+00
#rwgt            1           1   2.8939374675376443E-002           3      236101           0
</event>
<event>
      5   9999  3.19816E-02  8.89164E+01 -1.00000E+00  1.26167E-01
      21    -1     0     0   502   501  0.000000000E+00  0.000000000E+00  4.007711350E+02  4.007711350E+02  0.000000000E+00  0.00000E+00  9.000E+00
       1    -1     0     0   501     0  0.000000000E+00  0.000000000E+00 -3.805278083E+02  3.805278083E+02  0.000000000E+00  0.00000E+00  9.000E+00
      25     1     1     2     0     0 -1.291372375E+02  1.342528560E-02  2.556576391E+02  3.125096074E+02  1.250000000E+02  0.00000E+00  9.000E+00
      25     1     1     2     0     0  1.484042841E+02 -8.681730867E+01  4.823266090E+00  2.126248822E+02  1.250000000E+02  0.00000E+00  9.000E+00
       1     1     1     2   502     0 -1.926704661E+01  8.680388339E+01 -2.402375785E+02  2.561644538E+02  4.672030912E-06  0.00000E+00  9.000E+00
#rwgt            1           1   2.5765363543602714E-002           3      236200           0
</event>
<event>
      5   9999  3.19816E-02  6.33028E+01 -1.00000E+00  1.33471E-01
      21    -1     0     0   502   501  0.000000000E+00  0.000000000E+00  6.316588700E+02  6.316588700E+02  0.000000000E+00  0.00000E+00  9.000E+00
      21    -1     0     0   511   502  0.000000000E+00  0.000000000E+00 -7.127225466E+02  7.127225466E+02  0.000000000E+00  0.00000E+00  9.000E+00
      25     1     1     2     0     0 -2.166135555E+01  2.569211670E+02  2.498164134E+02  3.801459467E+02  1.250000000E+02  0.00000E+00  9.000E+00
      25     1     1     2     0     0  3.480708643E+01 -3.188439624E+02  2.207820738E+02  4.089532121E+02  1.250000000E+02  0.00000E+00  9.000E+00
      21     1     1     2   511   501 -1.314573088E+01  6.192279537E+01 -5.516621638E+02  5.552822578E+02  1.078959322E-05  0.00000E+00  9.000E+00
#rwgt            2          11   5.9888011364389610E-003           3      236385           0
</event>
<event>
      5   9999  3.19816E-02  1.55321E+02 -1.00000E+00  1.15797E-01
      21    -1     0     0   512   501  0.000000000E+00  0.000000000E+00  1.407922096E+02  1.407922096E+02  0.000000000E+00  0.00000E+00  9.000E+00
      21    -1     0     0   501   502  0.000000000E+00  0.000000000E+00 -7.973928355E+02  7.973928355E+02  0.000000000E+00  0.00000E+00  9.000E+00
      25     1     1     2     0     0 -4.059493001E+01 -1.977222815E+02 -5.356336961E+02  5.858929128E+02  1.250000000E+02  0.00000E+00  9.000E+00
      25     1     1     2     0     0 -7.513254871E+01  9.412737286E+01 -4.462915961E+01  1.792250654E+02  1.250000000E+02  0.00000E+00  9.000E+00
      21     1     1     2   512   502  1.157274787E+02  1.035949087E+02 -7.633777023E+01  1.730670668E+02  3.814697266E-06  0.00000E+00  9.000E+00
#rwgt            1           1   2.7379890964276482E-002           3      236420           0
</event>
<event>
      5   9999  3.19816E-02  2.45518E+01 -1.00000E+00  1.59342E-01
      21    -1     0     0   511   501  0.000000000E+00  0.000000000E+00  3.055394536E+03  3.055394536E+03  0.000000000E+00  0.00000E+00  9.000E+00
      21    -1     0     0   501   502  0.000000000E+00  0.000000000E+00 -3.330233661E+02  3.330233661E+02  0.000000000E+00  0.00000E+00  9.000E+00
      25     1     1     2     0     0  2.141017234E+02  1.652721735E+01 -1.643784447E+02  2.979227584E+02  1.250000000E+02  0.00000E+00  9.000E+00
      25     1     1     2     0     0 -1.933589232E+02 -2.966217100E+01  3.050300406E+01  2.341430136E+02  1.250000000E+02  0.00000E+00  9.000E+00
      21     1     1     2   511   502 -2.074280018E+01  1.313495365E+01  2.856246611E+03  2.856352130E+03  6.103515625E-05  0.00000E+00  9.000E+00
#rwgt            1           1   2.5632747265683729E-002           3      236457           0
</event>
<event>
      5   9999  3.19816E-02  3.02163E+01 -1.00000E+00  1.52823E-01
      21    -1     0     0   512   501  0.000000000E+00  0.000000000E+00  1.246519533E+03  1.246519533E+03  0.000000000E+00  0.00000E+00  9.000E+00
      21    -1     0     0   501   502  0.000000000E+00  0.000000000E+00 -2.612404777E+02  2.612404777E+02  0.000000000E+00  0.00000E+00  9.000E+00
      25     1     1     2     0     0  1.950017275E+02  1.480306106E+02  7.591297756E+02  8.073671728E+02  1.250000000E+02  0.00000E+00  9.000E+00
      25     1     1     2     0     0 -2.247662034E+02 -1.532362997E+02 -1.417610823E+02  3.312437384E+02  1.250000000E+02  0.00000E+00  9.000E+00
      21     1     1     2   512   502  2.976447590E+01  5.205689025E+00  3.679103624E+02  3.691490999E+02  5.394796609E-06  0.00000E+00  9.000E+00
#rwgt            1           1   2.6822301832648606E-002           3      236609           0
</event>
<event>
      5   9999  3.19816E-02  1.90881E+01 -1.00000E+00  1.68059E-01
      21    -1     0     0   502   501  0.000000000E+00  0.000000000E+00  3.046204027E+02  3.046204027E+02  0.000000000E+00  0.00000E+00  9.000E+00
      21    -1     0     0   501   511  0.000000000E+00  0.000000000E+00 -1.595829771E+02  1.595829771E+02  0.000000000E+00  0.00000E+00  9.000E+00
      25     1     1     2     0     0  5.350896024E+01  1.574497872E+01 -2.693427222E+01  1.395047247E+02  1.250000000E+02  0.00000E+00  9.000E+00
      25     1     1     2     0     0 -6.995544435E+01 -6.056324219E+00  2.258640583E+02  2.675257298E+02  1.250000000E+02  0.00000E+00  9.000E+00
      21     1     1     2   502   511  1.644648411E+01 -9.688654506E+00 -5.389236058E+01  5.717292536E+01  9.536743164E-07  0.00000E+00  9.000E+00
#rwgt            1           1   2.9523452919555288E-002           3      236739           0
</event>
<event>
      5   9999  3.19816E-02  1.64277E+02 -1.00000E+00  1.14850E-01
      21    -1     0     0   502   501  0.000000000E+00  0.000000000E+00  1.162099974E+03  1.162099974E+03  0.000000000E+00  0.00000E+00  9.000E+00
      21    -1     0     0   501   512  0.000000000E+00  0.000000000E+00 -8.200380915E+02  8.200380915E+02  0.000000000E+00  0.00000E+00  9.000E+00
      25     1     1     2     0     0 -6.545028782E+02  7.628042494E+01  8.134763857E+02  1.054306194E+03  1.250000000E+02  0.00000E+00  9.000E+00
      25     1     1     2     0     0  5.937644155E+02  7.635578747E+01 -2.716146143E+02  6.691680552E+02  1.250000000E+02  0.00000E+00  9.000E+00
      21     1     1     2   502   512  6.073846274E+01 -1.526362124E+02 -1.997998889E+02  2.586638162E+02  4.672030912E-06  0.00000E+00  9.000E+00
#rwgt            2          11   4.8654803330863599E-003           3      236944           0
</event>
<event>
      5   9999  3.19816E-02  2.20858E+01 -1.00000E+00  1.62891E-01
      21    -1     0     0   502   501  0.000000000E+00  0.000000000E+00  1.074300839E+03  1.074300839E+03  0.000000000E+00  0.00000E+00  9.000E+00
      21    -1     0     0   511   502  0.000000000E+00  0.000000000E+00 -2.941105911E+02  2.941105911E+02  0.000000000E+00  0.00000E+00  9.000E+00
      25     1     1     2     0     0 -3.589177594E+02 -3.056090898E+02  1.128967832E+02  5.005892103E+02  1.250000000E+02  0.00000E+00  9.000E+00
      25     1     1     2     0     0  3.369284393E+02  3.035466395E+02  6.906778810E+02  8.356567901E+02  1.250000000E+02  0.00000E+00  9.000E+00
      21     1     1     2   511   501  2.198932006E+01  2.062450314E+00 -2.338441669E+01  3.216542930E+01  6.743495762E-07  0.00000E+00  9.000E+00
#rwgt            1           1   2.8686653905621664E-002           3      236979           0
</event>
<event>
      5   9999  3.19816E-02  4.61661E+01 -1.00000E+00  1.41082E-01
      21    -1     0     0   502   501  0.000000000E+00  0.000000000E+00  2.053943393E+02  2.053943393E+02  0.000000000E+00  0.00000E+00  9.000E+00
      21    -1     0     0   512   502  0.000000000E+00  0.000000000E+00 -5.864992674E+02  5.864992674E+02  0.000000000E+00  0.00000E+00  9.000E+00
      25     1     1     2     0     0 -5.309144252E+01 -1.986942014E+02  5.581260153E+01  2.470589675E+02  1.250000000E+02  0.00000E+00  9.000E+00
      25     1     1     2     0     0  7.443012880E+00  2.055880903E+02 -2.303763435E+02  3.331968202E+02  1.250000000E+02  0.00000E+00  9.000E+00
      21     1     1     2   512   501  4.564842964E+01 -6.893888940E+00 -2.065411861E+02  2.116378189E+02  0.000000000E+00  0.00000E+00  9.000E+00
#rwgt            1           1   3.4625887018599769E-002           3      237150           0
</event>
<event>
      5   9999  3.19816E-02  2.90296E+01 -1.00000E+00  1.54038E-01
      21    -1     0     0   502   501  0.000000000E+00  0.000000000E+00  8.162460741E+01  8.162460741E+01  0.000000000E+00  0.00000E+00  9.000E+00
      21    -1     0     0   501   511  0.000000000E+00  0.000000000E+00 -1.126228087E+03  1.126228087E+03  0.000000000E+00  0.00000E+00  9.000E+00
      25     1     1     2     0     0 -2.152099794E+02  3.681275731E+01 -2.469427728E+02  3.525283639E+02  1.250000000E+02  0.00000E+00  9.000E+00
      25     1     1     2     0     0  2.321609137E+02 -1.324618076E+01 -5.996108721E+02  6.551582627E+02  1.250000000E+02  0.00000E+00  9.000E+00
      21     1     1     2   502   511 -1.695093439E+01 -2.356657655E+01 -1.980498345E+02  2.001660677E+02  2.697398305E-06  0.00000E+00  9.000E+00
#rwgt            1           1   2.8490063826952662E-002           3      237258           0
</event>
<event>
      5   9999  3.19816E-02  8.55356E+01 -1.00000E+00  1.26959E-01
      21    -1     0     0   502   501  0.000000000E+00  0.000000000E+00  1.147897296E+03  1.147897296E+03  0.000000000E+00  0.00000E+00  9.000E+00
      21    -1     0     0   501   512  0.000000000E+00  0.000000000E+00 -5.962227741E+02  5.962227741E+02  0.000000000E+00  0.00000E+00  9.000E+00
      25     1     1     2     0     0  3.362580215E+02 -3.227517127E+02  8.150255753E+02  9.471693690E+02  1.250000000E+02  0.00000E+00  9.000E+00
      25     1     1     2     0     0 -4.206642274E+02  3.366054712E+02 -3.622854630E+01  5.542554853E+02  1.250000000E+02  0.00000E+00  9.000E+00
      21     1     1     2   502   512  8.440620589E+01 -1.385375848E+01 -2.271225074E+02  2.426952155E+02  5.394796609E-06  0.00000E+00  9.000E+00
#rwgt            1           1   3.2667152113921849E-002           3      237401           0
</event>
<event>
      5   9999  3.19816E-02  2.50394E+02 -1.00000E+00  1.08207E-01
      21    -1     0     0   502   501  0.000000000E+00  0.000000000E+00  6.717950056E+02  6.717950056E+02  0.000000000E+00  0.00000E+00  9.000E+00
      21    -1     0     0   511   502  0.000000000E+00  0.000000000E+00 -7.149825809E+02  7.149825809E+02  0.000000000E+00  0.00000E+00  9.000E+00
      25     1     1     2     0     0 -2.012377802E+01  5.755866684E+01 -6.829739685E+01  1.549435413E+02  1.250000000E+02  0.00000E+00  9.000E+00
      25     1     1     2     0     0 -5.006452458E+01  1.827966727E+02  5.801147520E+02  6.229600354E+02  1.250000000E+02  0.00000E+00  9.000E+00
      21     1     1     2   511   501  7.018830260E+01 -2.403553395E+02 -5.550049305E+02  6.088740099E+02  7.629394531E-06  0.00000E+00  9.000E+00
#rwgt            2          11   5.5996559192826086E-003           3      237596           0
</event>
<event>
      5   9999  3.19816E-02  8.22970E+00 -1.00000E+00  2.06076E-01
      21    -1     0     0   502   501  0.000000000E+00  0.000000000E+00  1.075135459E+02  1.075135459E+02  0.000000000E+00  0.00000E+00  9.000E+00
      21    -1     0     0   512   502  0.000000000E+00  0.000000000E+00 -9.037659673E+02  9.037659673E+02  0.000000000E+00  0.00000E+00  9.000E+00
      25     1     1     2     0     0  2.368838310E+02 -1.204952720E+02 -3.865263183E+02  4.854489208E+02  1.250000000E+02  0.00000E+00  9.000E+00
      25     1     1     2     0     0 -2.324620972E+02  1.135543661E+02 -2.985680759E+02  4.143683345E+02  1.250000000E+02  0.00000E+00  9.000E+00
      21     1     1     2   512   501 -4.421733837E+00  6.940905902E+00 -1.111580273E+02  1.114622579E+02  1.907348633E-06  0.00000E+00  9.000E+00
#rwgt            1           1   3.0391631715713199E-002           3      237631           0
</event>
<event>
      5   9999  3.19816E-02  3.18579E+01 -1.00000E+00  1.51249E-01
      21    -1     0     0   502   501  0.000000000E+00  0.000000000E+00  3.220907898E+02  3.220907898E+02  0.000000000E+00  0.00000E+00  9.000E+00
      21    -1     0     0   511   502  0.000000000E+00  0.000000000E+00 -1.180635266E+03  1.180635266E+03  0.000000000E+00  0.00000E+00  9.000E+00
      25     1     1     2     0     0  3.284956926E+02  7.501124418E+01 -1.368808627E+01  3.596504838E+02  1.250000000E+02  0.00000E+00  9.000E+00
      25     1     1     2     0     0 -2.966643832E+02 -7.631202824E+01 -3.510980887E+01  3.327025407E+02  1.250000000E+02  0.00000E+00  9.000E+00
      21     1     1     2   511   501 -3.183130945E+01  1.300784064E+00 -8.097465806E+02  8.103730308E+02  0.000000000E+00  0.00000E+00  9.000E+00
#rwgt            1           1   2.8540363256063950E-002           3      237841           0
</event>
<event>
      5   9999  3.19816E-02  1.00394E+02 -1.00000E+00  1.23751E-01
      21    -1     0     0   502   501  0.000000000E+00  0.000000000E+00  1.156234187E+02  1.156234187E+02  0.000000000E+00  0.00000E+00  9.000E+00
      21    -1     0     0   512   502  0.000000000E+00  0.000000000E+00 -7.154169923E+02  7.154169923E+02  0.000000000E+00  0.00000E+00  9.000E+00
      25     1     1     2     0     0  1.444023116E+02  3.146544360E+01 -4.003573957E+01  1.976612308E+02  1.250000000E+02  0.00000E+00  9.000E+00
      25     1     1     2     0     0 -1.135421399E+02  6.406739887E+01 -2.547986532E+02  3.123200326E+02  1.250000000E+02  0.00000E+00  9.000E+00
      21     1     1     2   512   501 -3.086017174E+01 -9.553284247E+01 -3.049591809E+02  3.210591475E+02  3.814697266E-06  0.00000E+00  9.000E+00
#rwgt            2          11   1.9744290783592564E-003           3      238044           0
</event>
<event>
      5   9999  3.19816E-02  6.26006E+01 -1.00000E+00  1.33726E-01
      21    -1     0     0   502   501  0.000000000E+00  0.000000000E+00  2.707096765E+03  2.707096765E+03  0.000000000E+00  0.00000E+00  9.000E+00
      21    -1     0     0   511   502  0.000000000E+00  0.000000000E+00 -8.956876148E+02  8.956876148E+02  0.000000000E+00  0.00000E+00  9.000E+00
      25     1     1     2     0     0 -7.533684699E+02 -7.617289823E+02  1.703921256E+03  2.016622856E+03  1.250000000E+02  0.00000E+00  9.000E+00
      25     1     1     2     0     0  7.944891787E+02  7.145280745E+02  5.016704824E+02  1.187039046E+03  1.250000000E+02  0.00000E+00  9.000E+00
      21     1     1     2   511   501 -4.112070881E+01  4.720090777E+01 -3.941825891E+02  3.991224774E+02  7.629394531E-06  0.00000E+00  9.000E+00
#rwgt            1           1   6.3617517086982642E-002           3      238064           0
</event>
<event>
      5   9999  3.19816E-02  1.83789E+02 -1.00000E+00  1.13001E-01
       4    -1     0     0   502     0  0.000000000E+00  0.000000000E+00  4.135239896E+02  4.135239896E+02  0.000000000E+00  0.00000E+00  9.000E+00
      21    -1     0     0   501   502  0.000000000E+00  0.000000000E+00 -3.120019699E+02  3.120019699E+02  0.000000000E+00  0.00000E+00  9.000E+00
      25     1     1     2     0     0 -4.041701871E+01  1.211603918E+02  6.257099887E+01  1.893502201E+02  1.250000000E+02  0.00000E+00  9.000E+00
      25     1     1     2     0     0  4.334543818E+01 -3.049262823E+02  9.199160951E+01  3.448859535E+02  1.250000000E+02  0.00000E+00  9.000E+00
       4     1     1     2   501     0 -2.928419474E+00  1.837658906E+02 -5.304058859E+01  1.912897860E+02  3.754619538E-06  0.00000E+00  9.000E+00
#rwgt            2          20   9.7143821271127526E-006           3      238220           0
</event>
<event>
      5   9999  3.19816E-02  4.29350E+01 -1.00000E+00  1.42958E-01
      21    -1     0     0   502   501  0.000000000E+00  0.000000000E+00  9.961473106E+02  9.961473106E+02  0.000000000E+00  0.00000E+00  9.000E+00
      21    -1     0     0   511   502  0.000000000E+00  0.000000000E+00 -7.412718266E+01  7.412718266E+01  0.000000000E+00  0.00000E+00  9.000E+00
      25     1     1     2     0     0 -5.460552753E+01  4.073230338E+01  6.905008371E+01  1.582207263E+02  1.250000000E+02  0.00000E+00  9.000E+00
      25     1     1     2     0     0  8.488257875E+01 -7.117426475E+01  8.529194446E+02  8.691187532E+02  1.250000000E+02  0.00000E+00  9.000E+00
      21     1     1     2   511   501 -3.027705122E+01  3.044196136E+01  5.059957229E-02  4.293501372E+01  1.032231072E-06  0.00000E+00  9.000E+00
#rwgt            1           1   2.7013006301565449E-002           3      238239           0
</event>
<event>
      5   9999  3.19816E-02  1.56455E+01 -1.00000E+00  1.75677E-01
      21    -1     0     0   502   512  0.000000000E+00  0.000000000E+00  3.749966145E+02  3.749966145E+02  0.000000000E+00  0.00000E+00  9.000E+00
      21    -1     0     0   501   502  0.000000000E+00  0.000000000E+00 -7.729272428E+02  7.729272428E+02  0.000000000E+00  0.00000E+00  9.000E+00
      25     1     1     2     0     0  3.459626571E+01  3.432883975E+02 -3.206516287E+02  4.873256533E+02  1.250000000E+02  0.00000E+00  9.000E+00
      25     1     1     2     0     0 -2.159575386E+01 -3.519929137E+02 -2.736872502E+02  4.635677931E+02  1.250000000E+02  0.00000E+00  9.000E+00
      21     1     1     2   501   512 -1.300051185E+01  8.704516242E+00  1.964082505E+02  1.970304108E+02  2.697398305E-06  0.00000E+00  9.000E+00
#rwgt            1           1   3.0316066902327313E-002           3      238392           0
</event>
<event>
      5   9999  3.19816E-02  2.03222E+01 -1.00000E+00  1.65798E-01
      21    -1     0     0   511   501  0.000000000E+00  0.000000000E+00  9.269338166E+02  9.269338166E+02  0.000000000E+00  0.00000E+00  9.000E+00
      21    -1     0     0   501   502  0.000000000E+00  0.000000000E+00 -1.016686309E+03  1.016686309E+03  0.000000000E+00  0.00000E+00  9.000E+00
      25     1     1     2     0     0 -2.439040747E+02  5.769155029E+02 -7.696658233E+02  1.000165574E+03  1.250000000E+02  0.00000E+00  9.000E+00
      25     1     1     2     0     0  2.260834186E+02 -5.671473276E+02  6.155322548E+02  8.759422128E+02  1.250000000E+02  0.00000E+00  9.000E+00
      21     1     1     2   511   502  1.782065616E+01 -9.768175227E+00  6.438107589E+01  6.751233936E+01  1.651812370E-06  0.00000E+00  9.000E+00
#rwgt            1           1   3.0077061468546804E-002           3      238586           0
</event>
<event>
      5   9999  3.19816E-02  6.82734E+01 -1.00000E+00  1.31772E-01
      21    -1     0     0   512   501  0.000000000E+00  0.000000000E+00  2.601527678E+02  2.601527678E+02  0.000000000E+00  0.00000E+00  9.000E+00
      21    -1     0     0   501   502  0.000000000E+00  0.000000000E+00 -1.235613287E+03  1.235613287E+03  0.000000000E+00  0.00000E+00  9.000E+00
      25     1     1     2     0     0 -2.615309929E+02 -1.397433224E+02 -7.412923775E+00  3.218798034E+02  1.250000000E+02  0.00000E+00  9.000E+00
      25     1     1     2     0     0  2.075692300E+02  1.815689810E+02 -1.034929588E+03  1.078311891E+03  1.250000000E+02  0.00000E+00  9.000E+00
      21     1     1     2   512   502  5.396176290E+01 -4.182565861E+01  6.688199273E+01  9.557436124E+01  0.000000000E+00  0.00000E+00  9.000E+00
#rwgt            1           1   2.4969910117900129E-002           3      238847           0
</event>
<event>
      5   9999  3.19816E-02  3.71004E+02 -1.00000E+00  1.02679E-01
      21    -1     0     0   502   501  0.000000000E+00  0.000000000E+00  4.924625581E+02  4.924625581E+02  0.000000000E+00  0.00000E+00  9.000E+00
       1    -1     0     0   501     0  0.000000000E+00  0.000000000E+00 -1.339295664E+03  1.339295664E+03  0.000000000E+00  0.00000E+00  9.000E+00
      25     1     1     2     0     0 -2.208624943E+02 -5.187893368E+02 -5.108793808E+02  7.710676748E+02  1.250000000E+02  0.00000E+00  9.000E+00
      25     1     1     2     0     0  2.285832930E+02  1.478659842E+02  2.343423476E+02  3.803367022E+02  1.250000000E+02  0.00000E+00  9.000E+00
       1     1     1     2   502     0 -7.720798690E+00  3.709233526E+02 -5.702960726E+02  6.803538452E+02  0.000000000E+00  0.00000E+00  9.000E+00
#rwgt            1           1   3.0680642506755011E-002           3      238996           0
</event>
<event>
      5   9999  3.19816E-02  1.74788E+01 -1.00000E+00  1.71347E-01
      21    -1     0     0   502   511  0.000000000E+00  0.000000000E+00  2.274372386E+03  2.274372386E+03  0.000000000E+00  0.00000E+00  9.000E+00
      21    -1     0     0   501   502  0.000000000E+00  0.000000000E+00 -2.692486558E+02  2.692486558E+02  0.000000000E+00  0.00000E+00  9.000E+00
      25     1     1     2     0     0 -6.699355910E+02  1.793686543E+02  4.842296914E+02  8.550381303E+02  1.250000000E+02  0.00000E+00  9.000E+00
      25     1     1     2     0     0  6.679449016E+02 -1.967336817E+02  1.423142581E+03  1.589281076E+03  1.250000000E+02  0.00000E+00  9.000E+00
      21     1     1     2   501   511  1.990689404E+00  1.736502741E+01  9.775145796E+01  9.930183561E+01  0.000000000E+00  0.00000E+00  9.000E+00
#rwgt            1           1   2.1517221762469788E-002           3      239046           0
</event>
<event>
      5   9999  3.19816E-02  4.44844E+01 -1.00000E+00  1.42035E-01
       2    -1     0     0   502     0  0.000000000E+00  0.000000000E+00  1.228207616E+03  1.228207616E+03  0.000000000E+00  0.00000E+00  9.000E+00
      21    -1     0     0   501   502  0.000000000E+00  0.000000000E+00 -6.593394037E+02  6.593394037E+02  0.000000000E+00  0.00000E+00  9.000E+00
      25     1     1     2     0     0  7.750340475E+01  1.666876398E+02 -5.720615499E+02  6.137352555E+02  1.250000000E+02  0.00000E+00  9.000E+00
      25     1     1     2     0     0 -3.475873619E+01 -1.790066194E+02  1.193021548E+02  2.512161294E+02  1.250000000E+02  0.00000E+00  9.000E+00
       2     1     1     2   501     0 -4.274466857E+01  1.231897959E+01  1.021627607E+03  1.022595635E+03  1.525878906E-05  0.00000E+00  9.000E+00
#rwgt            1           1   2.8414614100165107E-002           3      239306           0
</event>
<event>
      5   9999  3.19816E-02  7.62049E+01 -1.00000E+00  1.29380E-01
      21    -1     0     0   502   511  0.000000000E+00  0.000000000E+00  1.479277594E+03  1.479277594E+03  0.000000000E+00  0.00000E+00  9.000E+00
      21    -1     0     0   501   502  0.000000000E+00  0.000000000E+00 -7.498968510E+02  7.498968510E+02  0.000000000E+00  0.00000E+00  9.000E+00
      25     1     1     2     0     0 -2.220456609E+02 -7.760367874E+02 -1.547278618E+02  8.313260986E+02  1.250000000E+02  0.00000E+00  9.000E+00
      25     1     1     2     0     0  2.915812704E+02  7.448601673E+02  3.913478631E+02  8.992299239E+02  1.250000000E+02  0.00000E+00  9.000E+00
      21     1     1     2   501   511 -6.953560953E+01  3.117662008E+01  4.927607422E+02  4.986184229E+02  5.394796609E-06  0.00000E+00  9.000E+00
#rwgt            1           1   3.4483087311772256E-002           3      239421           0
</event>
<event>
      5   9999  3.19816E-02  1.57792E+01 -1.00000E+00  1.75336E-01
      21    -1     0     0   502   512  0.000000000E+00  0.000000000E+00  1.277052463E+03  1.277052463E+03  0.000000000E+00  0.00000E+00  9.000E+00
      21    -1     0     0   501   502  0.000000000E+00  0.000000000E+00 -1.012403998E+03  1.012403998E+03  0.000000000E+00  0.00000E+00  9.000E+00
      25     1     1     2     0     0  3.024505308E+02  6.250805662E+02  9.744970307E+02  1.203109098E+03  1.250000000E+02  0.00000E+00  9.000E+00
      25     1     1     2     0     0 -3.096331590E+02 -6.110309102E+02 -7.617818817E+02  1.032069814E+03  1.250000000E+02  0.00000E+00  9.000E+00
      21     1     1     2   501   512  7.182628157E+00 -1.404965604E+01  5.193331596E+01  5.427754866E+01  9.536743164E-07  0.00000E+00  9.000E+00
#rwgt            1           1   3.2308071781714763E-002           3      239505           0
</event>
<event>
      5   9999  3.19816E-02  8.34546E+01 -1.00000E+00  1.27467E-01
      21    -1     0     0   502   501  0.000000000E+00  0.000000000E+00  9.964600653E+02  9.964600653E+02  0.000000000E+00  0.00000E+00  9.000E+00
      21    -1     0     0   511   502  0.000000000E+00  0.000000000E+00 -9.753859291E+01  9.753859291E+01  0.000000000E+00  0.00000E+00  9.000E+00
      25     1     1     2     0     0  6.378462995E+00  3.137314033E+01 -2.036936666E+01  1.306325757E+02  1.250000000E+02  0.00000E+00  9.000E+00
      25     1     1     2     0     0 -8.471503738E+01 -6.014912247E+01  8.084093260E+02  8.245878927E+02  1.250000000E+02  0.00000E+00  9.000E+00
      21     1     1     2   511   501  7.833657438E+01  2.877598214E+01  1.108815131E+02  1.387781899E+02  3.303624740E-06  0.00000E+00  9.000E+00
#rwgt            1           1   3.0243766330413306E-002           3      239767           0
</event>
<event>
      5   9999  3.19816E-02  4.23603E+01 -1.00000E+00  1.43313E-01
      21    -1     0     0   502   512  0.000000000E+00  0.000000000E+00  9.085010491E+02  9.085010491E+02  0.000000000E+00  0.00000E+00  9.000E+00
      21    -1     0     0   501   502  0.000000000E+00  0.000000000E+00 -5.633400712E+01  5.633400712E+01  0.000000000E+00  0.00000E+00  9.000E+00
      25     1     1     2     0     0  9.266463499E+01 -4.963625540E+01  6.330753223E+02  6.538041420E+02  1.250000000E+02  0.00000E+00  9.000E+00
      25     1     1     2     0     0 -5.972075710E+01  2.300744299E+01  7.170682632E+01  1.576793588E+02  1.250000000E+02  0.00000E+00  9.000E+00
      21     1     1     2   501   512 -3.294387788E+01  2.662881241E+01  1.473848934E+02  1.533515554E+02  2.697398305E-06  0.00000E+00  9.000E+00
#rwgt            1           1   2.8908920639098074E-002           3      239848           0
</event>
<event>
      5   9999  3.19816E-02  2.80869E+01 -1.00000E+00  1.55054E-01
      21    -1     0     0   502   501  0.000000000E+00  0.000000000E+00  4.226125046E+02  4.226125046E+02  0.000000000E+00  0.00000E+00  9.000E+00
      21    -1     0     0   511   502  0.000000000E+00  0.000000000E+00 -3.491948548E+02  3.491948548E+02  0.000000000E+00  0.00000E+00  9.000E+00
      25     1     1     2     0     0  2.053969574E+02  2.568035826E+02 -9.570915654E+01  3.645836431E+02  1.250000000E+02  0.00000E+00  9.000E+00
      25     1     1     2     0     0 -2.113024543E+02 -2.293445390E+02  1.745728595E+02  3.786136924E+02  1.250000000E+02  0.00000E+00  9.000E+00
      21     1     1     2   511   501  5.905496954E+00 -2.745904361E+01 -5.446053211E+00  2.861002387E+01  7.702617635E-07  0.00000E+00  9.000E+00
#rwgt            1           1   2.6137319168913421E-002           3      239912           0
</event>
<event>
      5   9999  3.19816E-02  4.82499E+01 -1.00000E+00  1.39964E-01
      21    -1     0     0   502   501  0.000000000E+00  0.000000000E+00  4.757326574E+02  4.757326574E+02  0.000000000E+00  0.00000E+00  9.000E+00
       2    -1     0     0   501     0  0.000000000E+00  0.000000000E+00 -6.102692962E+02  6.102692962E+02  0.000000000E+00  0.00000E+00  9.000E+00
      25     1     1     2     0     0 -2.734947267E+02 -1.314112414E+02  1.834564304E+02  3.759648145E+02  1.250000000E+02  0.00000E+00  9.000E+00
      25     1     1     2     0     0  2.973335643E+02  1.733608050E+02  2.180883736E+01  3.668267201E+02  1.250000000E+02  0.00000E+00  9.000E+00
       2     1     1     2   502     0 -2.383883766E+01 -4.194956359E+01 -3.398019065E+02  3.432104190E+02  5.394796609E-06  0.00000E+00  9.000E+00
#rwgt            2          13   6.5097422886840146E-004           3      240158           0
</event>
<event>
      5   9999  3.19816E-02  6.08061E+01 -1.00000E+00  1.34394E-01
      21    -1     0     0   502   501  0.000000000E+00  0.000000000E+00  3.153237512E+01  3.153237512E+01  0.000000000E+00  0.00000E+00  9.000E+00
       1    -1     0     0   501     0  0.000000000E+00  0.000000000E+00 -1.691707991E+03  1.691707991E+03  0.000000000E+00  0.00000E+00  9.000E+00
      25     1     1     2     0     0 -2.106104225E+01  9.066255010E+01 -8.131747206E+02  8.279742699E+02  1.250000000E+02  0.00000E+00  9.000E+00
      25     1     1     2     0     0 -3.271839401E+01 -1.190378112E+02 -7.981798930E+02  8.172861405E+02  1.250000000E+02  0.00000E+00  9.000E+00
       1     1     1     2   502     0  5.377943626E+01  2.837526108E+01 -4.882100193E+01  7.797995534E+01  1.651812370E-06  0.00000E+00  9.000E+00
#rwgt            1           1   9.2786751808296042E-002           3      240177           0
</event>
<event>
      5   9999  3.19816E-02  7.82177E+01 -1.00000E+00  1.28825E-01
      21    -1     0     0   502   511  0.000000000E+00  0.000000000E+00  1.861855486E+03  1.861855486E+03  0.000000000E+00  0.00000E+00  9.000E+00
      21    -1     0     0   501   502  0.000000000E+00  0.000000000E+00 -1.113108139E+02  1.113108139E+02  0.000000000E+00  0.00000E+00  9.000E+00
      25     1     1     2     0     0 -2.402712738E+02 -1.451854197E+02  1.654716345E+02  3.490199893E+02  1.250000000E+02  0.00000E+00  9.000E+00
      25     1     1     2     0     0  1.620619019E+02  1.463250883E+02  1.411717786E+03  1.433962063E+03  1.250000000E+02  0.00000E+00  9.000E+00
      21     1     1     2   501   511  7.820937195E+01 -1.139668531E+00  1.733552517E+02  1.901842475E+02  3.303624740E-06  0.00000E+00  9.000E+00
#rwgt            1           1   3.0953294752083672E-002           3      240227           0
</event>
<event>
      5   9999  3.19816E-02  1.16917E+02 -1.00000E+00  1.20850E-01
      21    -1     0     0   512   501  0.000000000E+00  0.000000000E+00  4.904506841E+02  4.904506841E+02  0.000000000E+00  0.00000E+00  9.000E+00
      21    -1     0     0   501   502  0.000000000E+00  0.000000000E+00 -6.562324594E+02  6.562324594E+02  0.000000000E+00  0.00000E+00  9.000E+00
      25     1     1     2     0     0  3.055689297E+02 -2.447183185E+01  2.787271299E+02  4.327644328E+02  1.250000000E+02  0.00000E+00  9.000E+00
      25     1     1     2     0     0 -2.955599183E+02  1.409595607E+02 -4.775972514E+02  5.924098224E+02  1.250000000E+02  0.00000E+00  9.000E+00
      21     1     1     2   512   502 -1.000901139E+01 -1.164877289E+02  3.308834624E+01  1.215088883E+02  2.286830675E-06  0.00000E+00  9.000E+00
#rwgt            1           1   2.9683462880139299E-002           3      240339           0
</event>
<event>
      5   9999  3.19816E-02  3.87904E+01 -1.00000E+00  1.45672E-01
       1    -1     0     0   502     0  0.000000000E+00  0.000000000E+00  4.474104080E+02  4.474104080E+02  0.000000000E+00  0.00000E+00  9.000E+00
      21    -1     0     0   501   502  0.000000000E+00  0.000000000E+00 -1.472331117E+03  1.472331117E+03  0.000000000E+00  0.00000E+00  9.000E+00
      25     1     1     2     0     0  5.045811307E+00  1.519730373E+01  1.195594908E+01  1.265873729E+02  1.250000000E+02  0.00000E+00  9.000E+00
      25     1     1     2     0     0 -1.237892893E+01  2.289360864E+01 -1.411130677E+03  1.416895248E+03  1.250000000E+02  0.00000E+00  9.000E+00
       1     1     1     2   501     0  7.333117628E+00 -3.809091237E+01  3.742540192E+02  3.762589043E+02  9.344061824E-06  0.00000E+00  9.000E+00
#rwgt            1           1   3.0720181061820635E-002           3      240450           0
</event>
<event>
      5   9999  3.19816E-02  6.32865E+01 -1.00000E+00  1.33477E-01
      21    -1     0     0   502   501  0.000000000E+00  0.000000000E+00  8.699837303E+02  8.699837303E+02  0.000000000E+00  0.00000E+00  9.000E+00
      21    -1     0     0   501   511  0.000000000E+00  0.000000000E+00 -9.543815677E+01  9.543815677E+01  0.000000000E+00  0.00000E+00  9.000E+00
      25     1     1     2     0     0  1.423268716E+02 -4.078923731E+01  8.892879040E+01  2.131995076E+02  1.250000000E+02  0.00000E+00  9.000E+00
      25     1     1     2     0     0 -1.003887528E+02 -6.606715196E+00  6.673258956E+02  6.863456864E+02  1.250000000E+02  0.00000E+00  9.000E+00
      21     1     1     2   502   511 -4.193811883E+01  4.739595250E+01  1.829088756E+01  6.587669309E+01  9.536743164E-07  0.00000E+00  9.000E+00
#rwgt            1           1   2.7958128044833920E-002           3      240590           0
</event>
<event>
      5   9999  3.19816E-02  2.20167E+02 -1.00000E+00  1.10150E-01
      21    -1     0     0   502   501  0.000000000E+00  0.000000000E+00  1.585275268E+02  1.585275268E+02  0.000000000E+00  0.00000E+00  9.000E+00
       1    -1     0     0   501     0  0.000000000E+00  0.000000000E+00 -1.804185590E+03  1.804185590E+03  0.000000000E+00  0.00000E+00  9.000E+00
      25     1     1     2     0     0  2.760818264E+02 -2.194473575E+02 -2.252641885E+02  4.367462332E+02  1.250000000E+02  0.00000E+00  9.000E+00
      25     1     1     2     0     0 -6.551249788E+01  2.837426302E+02 -6.262116799E+02  7.018317716E+02  1.250000000E+02  0.00000E+00  9.000E+00
       1     1     1     2   502     0 -2.105693286E+02 -6.429527277E+01 -7.941821951E+02  8.241351123E+02  1.525878906E-05  0.00000E+00  9.000E+00
#rwgt            1           1   2.5390991573366790E-002           3      240659           0
</event>
<event>
      5   9999  3.19816E-02  3.02358E+01 -1.00000E+00  1.52804E-01
      21    -1     0     0   502   511  0.000000000E+00  0.000000000E+00  4.324250094E+02  4.324250094E+02  0.000000000E+00  0.00000E+00  9.000E+00
      21    -1     0     0   501   502  0.000000000E+00  0.000000000E+00 -4.172358713E+02  4.172358713E+02  0.000000000E+00  0.00000E+00  9.000E+00
      25     1     1     2     0     0 -1.722153499E+02  2.955090767E+02  2.282521571E+01  3.648694721E+02  1.250000000E+02  0.00000E+00  9.000E+00
      25     1     1     2     0     0  1.721751224E+02 -3.257448948E+02 -8.802205064E+01  3.989071204E+02  1.250000000E+02  0.00000E+00  9.000E+00
      21     1     1     2   501   511  4.022741902E-02  3.023581809E+01  8.038597303E+01  8.588428829E+01  0.000000000E+00  0.00000E+00  9.000E+00
#rwgt            1           1   3.0418930613928381E-002           3      240712           0
</event>
<event>
      5   9999  3.19816E-02  1.34843E+02 -1.00000E+00  1.18257E-01
      21    -1     0     0   502   512  0.000000000E+00  0.000000000E+00  2.051382111E+03  2.051382111E+03  0.000000000E+00  0.00000E+00  9.000E+00
      21    -1     0     0   501   502  0.000000000E+00  0.000000000E+00 -3.436461503E+02  3.436461503E+02  0.000000000E+00  0.00000E+00  9.000E+00
      25     1     1     2     0     0  5.792892812E+02 -1.288355500E+02  5.317849696E+02  8.065946468E+02  1.250000000E+02  0.00000E+00  9.000E+00
      25     1     1     2     0     0 -7.068836531E+02  1.724502956E+02  4.824234697E+02  8.819189348E+02  1.250000000E+02  0.00000E+00  9.000E+00
      21     1     1     2   501   512  1.275943719E+02 -4.361474567E+01  6.935275218E+02  7.065146801E+02  0.000000000E+00  0.00000E+00  9.000E+00
#rwgt            1           1   3.1858222925244144E-002           3      240793           0
</event>
<event>
      5   9999  3.19816E-02  4.24998E+01 -1.00000E+00  1.43226E-01
      21    -1     0     0   511   501  0.000000000E+00  0.000000000E+00  1.500539861E+02  1.500539861E+02  0.000000000E+00  0.00000E+00  9.000E+00
      21    -1     0     0   501   502  0.000000000E+00  0.000000000E+00 -1.233606416E+03  1.233606416E+03  0.000000000E+00  0.00000E+00  9.000E+00
      25     1     1     2     0     0  3.002294234E+01 -1.246459786E+02 -9.426694622E+02  9.595252535E+02  1.250000000E+02  0.00000E+00  9.000E+00
      25     1     1     2     0     0 -5.125326781E+01  8.782879211E+01 -2.554006212E+02  3.019855485E+02  1.250000000E+02  0.00000E+00  9.000E+00
      21     1     1     2   511   502  2.123032547E+01  3.681718648E+01  1.145176534E+02  1.221496004E+02  4.264961200E-06  0.00000E+00  9.000E+00
#rwgt            1           1   3.5447174562921624E-002           3      240885           0
</event>
<event>
      5   9999  3.19816E-02  3.77605E+01 -1.00000E+00  1.46409E-01
      21    -1     0     0   512   501  0.000000000E+00  0.000000000E+00  5.373776441E+02  5.373776441E+02  0.000000000E+00  0.00000E+00  9.000E+00
      21    -1     0     0   501   502  0.000000000E+00  0.000000000E+00 -1.525681092E+02  1.525681092E+02  0.000000000E+00  0.00000E+00  9.000E+00
      25     1     1     2     0     0  2.099775037E+02  1.029711657E+02  1.623984734E+02  3.109531752E+02  1.250000000E+02  0.00000E+00  9.000E+00
      25     1     1     2     0     0 -2.031988220E+02 -6.582412740E+01  1.308377671E+02  2.799394547E+02  1.250000000E+02  0.00000E+00  9.000E+00
      21     1     1     2   512   502 -6.778681753E+00 -3.714703826E+01  9.157329455E+01  9.905312339E+01  1.348699152E-06  0.00000E+00  9.000E+00
#rwgt            1           1   2.7462540534031334E-002           3      240937           0
</event>
<event>
      5   9999  3.19816E-02  1.16932E+02 -1.00000E+00  1.20848E-01
      21    -1     0     0   502   501  0.000000000E+00  0.000000000E+00  1.674401986E+02  1.674401986E+02  0.000000000E+00  0.00000E+00  9.000E+00
      21    -1     0     0   511   502  0.000000000E+00  0.000000000E+00 -8.336402621E+02  8.336402621E+02  0.000000000E+00  0.00000E+00  9.000E+00
      25     1     1     2     0     0  6.991623934E+01 -1.692422723E+01  9.191361987E+01  1.710199506E+02  1.250000000E+02  0.00000E+00  9.000E+00
      25     1     1     2     0     0 -1.530133793E+02  9.919218998E+01 -4.920465618E+02  5.394321123E+02  1.250000000E+02  0.00000E+00  9.000E+00
      21     1     1     2   511   501  8.309714001E+01 -8.226796275E+01 -2.660671216E+02  2.906283978E+02  0.000000000E+00  0.00000E+00  9.000E+00
#rwgt            1           1   2.7367544454912976E-002           3      241062           0
</event>
<event>
      5   9999  3.19816E-02  6.48048E+00 -1.00000E+00  2.20399E-01
      21    -1     0     0   512   501  0.000000000E+00  0.000000000E+00  3.128248944E+02  3.128248944E+02  0.000000000E+00  0.00000E+00  9.000E+00
      21    -1     0     0   501   502  0.000000000E+00  0.000000000E+00 -6.747773227E+02  6.747773227E+02  0.000000000E+00  0.00000E+00  9.000E+00
      25     1     1     2     0     0  1.218101802E+02  3.181918483E+02  1.151452097E+02  3.807455734E+02  1.250000000E+02  0.00000E+00  9.000E+00
      25     1     1     2     0     0 -1.282904417E+02 -3.182446636E+02 -4.765037596E+02  6.003490120E+02  1.250000000E+02  0.00000E+00  9.000E+00
      21     1     1     2   512   502  6.480261506E+00  5.281531166E-02 -5.938784169E-01  6.507631690E+00  9.394824663E-08  0.00000E+00  9.000E+00
#rwgt            1           1   2.9136170742503249E-002           3      241127           0
</event>
<event>
      5   9999  3.19816E-02  6.61394E+01 -1.00000E+00  1.32481E-01
      21    -1     0     0   502   501  0.000000000E+00  0.000000000E+00  2.835393504E+02  2.835393504E+02  0.000000000E+00  0.00000E+00  9.000E+00
      21    -1     0     0   501   511  0.000000000E+00  0.000000000E+00 -1.115256215E+03  1.115256215E+03  0.000000000E+00  0.00000E+00  9.000E+00
      25     1     1     2     0     0  7.505823075E+01 -2.446767719E+02  1.370737321E+02  3.160928167E+02  1.250000000E+02  0.00000E+00  9.000E+00
      25     1     1     2     0     0 -8.302351546E+01  1.790188014E+02 -1.899962165E+02  3.011049612E+02  1.250000000E+02  0.00000E+00  9.000E+00
      21     1     1     2   502   511  7.965284718E+00  6.565797050E+01 -7.787943802E+02  7.815977875E+02  0.000000000E+00  0.00000E+00  9.000E+00
#rwgt            1           1   2.6563047896458285E-002           3      241461           0
</event>
<event>
      5   9999  3.19816E-02  6.60250E+01 -1.00000E+00  1.32520E-01
      21    -1     0     0   502   501  0.000000000E+00  0.000000000E+00  9.798249992E+01  9.798249992E+01  0.000000000E+00  0.00000E+00  9.000E+00
       2    -1     0     0   501     0  0.000000000E+00  0.000000000E+00 -1.571584394E+03  1.571584394E+03  0.000000000E+00  0.00000E+00  9.000E+00
      25     1     1     2     0     0 -6.758892706E+01  2.257257333E+02 -1.389590294E+02  3.007573467E+02  1.250000000E+02  0.00000E+00  9.000E+00
      25     1     1     2     0     0  6.877105094E+01 -1.597113229E+02 -7.356074291E+02  7.661464964E+02  1.250000000E+02  0.00000E+00  9.000E+00
       2     1     1     2   502     0 -1.182123883E+00 -6.601441038E+01 -5.990354357E+02  6.026630510E+02  7.629394531E-06  0.00000E+00  9.000E+00
#rwgt            1           1   3.0763938147919476E-002           3      241558           0
</event>
<event>
      5   9999  3.19816E-02  2.16441E+01 -1.00000E+00  1.63587E-01
      21    -1     0     0   502   501  0.000000000E+00  0.000000000E+00  1.509685603E+03  1.509685603E+03  0.000000000E+00  0.00000E+00  9.000E+00
      21    -1     0     0   501   511  0.000000000E+00  0.000000000E+00 -6.696053523E+01  6.696053523E+01  0.000000000E+00  0.00000E+00  9.000E+00
      25     1     1     2     0     0 -4.208000841E+00  6.395438436E+01  8.213320813E+02  8.332582183E+02  1.250000000E+02  0.00000E+00  9.000E+00
      25     1     1     2     0     0  1.300807358E+01 -8.372876564E+01  6.717824902E+02  6.885466073E+02  1.250000000E+02  0.00000E+00  9.000E+00
      21     1     1     2   502   511 -8.800072741E+00  1.977438128E+01 -5.038950402E+01  5.484131245E+01  2.939421655E-06  0.00000E+00  9.000E+00
#rwgt            1           1   3.4515938574657026E-002           3      241617           0
</event>
<event>
      5   9999  3.19816E-02  7.30943E+01 -1.00000E+00  1.30276E-01
      21    -1     0     0   502   512  0.000000000E+00  0.000000000E+00  1.146622156E+03  1.146622156E+03  0.000000000E+00  0.00000E+00  9.000E+00
      21    -1     0     0   501   502  0.000000000E+00  0.000000000E+00 -1.674140085E+02  1.674140085E+02  0.000000000E+00  0.00000E+00  9.000E+00
      25     1     1     2     0     0 -2.530540171E+02  1.839339836E+02  4.437106495E+02  5.571105692E+02  1.250000000E+02  0.00000E+00  9.000E+00
      25     1     1     2     0     0  2.409514769E+02 -2.560193897E+02  2.201921451E+02  4.332587251E+02  1.250000000E+02  0.00000E+00  9.000E+00
      21     1     1     2   501   512  1.210254015E+01  7.208540610E+01  3.153053526E+02  3.236668698E+02  3.814697266E-06  0.00000E+00  9.000E+00
#rwgt            1           1   2.9872466899143992E-002           3      241725           0
</event>
<event>
      5   9999  3.19816E-02  3.97513E+01 -1.00000E+00  1.45008E-01
      21    -1     0     0   502   511  0.000000000E+00  0.000000000E+00  3.853410355E+02  3.853410355E+02  0.000000000E+00  0.00000E+00  9.000E+00
      21    -1     0     0   501   502  0.000000000E+00  0.000000000E+00 -2.657251309E+03  2.657251309E+03  0.000000000E+00  0.00000E+00  9.000E+00
      25     1     1     2     0     0 -6.567387047E+02 -5.898922502E+02 -5.046296189E+02  1.024477743E+03  1.250000000E+02  0.00000E+00  9.000E+00
      25     1     1     2     0     0  6.472142020E+02  5.512988144E+02 -1.779837739E+03  1.976427075E+03  1.250000000E+02  0.00000E+00  9.000E+00
      21     1     1     2   501   511  9.524502697E+00  3.859343579E+01  1.255708508E+01  4.168752599E+01  4.129530925E-07  0.00000E+00  9.000E+00
#rwgt            1           1   3.2927658230063807E-002           3      241801           0
</event>
<event>
      5   9999  3.19816E-02  1.86961E+01 -1.00000E+00  1.68822E-01
      21    -1     0     0   502   501  0.000000000E+00  0.000000000E+00  8.838034612E+02  8.838034612E+02  0.000000000E+00  0.00000E+00  9.000E+00
      21    -1     0     0   501   512  0.000000000E+00  0.000000000E+00 -2.153545504E+03  2.153545504E+03  0.000000000E+00  0.00000E+00  9.000E+00
      25     1     1     2     0     0 -4.849451329E+02  4.883715043E+02  3.874081918E+02  7.996177932E+02  1.250000000E+02  0.00000E+00  9.000E+00
      25     1     1     2     0     0  4.981331380E+02 -4.751192828E+02 -1.314104705E+02  7.118768628E+02  1.250000000E+02  0.00000E+00  9.000E+00
      21     1     1     2   502   512 -1.318800504E+01 -1.325222149E+01 -1.525739764E+03  1.525854309E+03  2.157918644E-05  0.00000E+00  9.000E+00
#rwgt            1           1   2.9796761363275012E-002           3      241983           0
</event>
<event>
      5   9999  3.19816E-02  4.86807E+01 -1.00000E+00  1.39741E-01
      21    -1     0     0   502   501  0.000000000E+00  0.000000000E+00  9.942355913E+02  9.942355913E+02  0.000000000E+00  0.00000E+00  9.000E+00
      21    -1     0     0   511   502  0.000000000E+00  0.000000000E+00 -3.412751642E+02  3.412751642E+02  0.000000000E+00  0.00000E+00  9.000E+00
      25     1     1     2     0     0  9.219445009E+00 -2.813198903E+02 -1.792592437E+02  3.563492042E+02  1.250000000E+02  0.00000E+00  9.000E+00
      25     1     1     2     0     0  2.258776455E+01  3.181723998E+02  8.581484108E+02  9.240062652E+02  1.250000000E+02  0.00000E+00  9.000E+00
      21     1     1     2   511   501 -3.180720956E+01 -3.685250945E+01 -2.592873997E+01  5.515528614E+01  5.840038640E-07  0.00000E+00  9.000E+00
#rwgt            1           1   2.8806779230182645E-002           3      242201           0
</event>
<event>
      5   9999  3.19816E-02  3.26215E+01 -1.00000E+00  1.50555E-01
      21    -1     0     0   502   501  0.000000000E+00  0.000000000E+00  3.530620995E+02  3.530620995E+02  0.000000000E+00  0.00000E+00  9.000E+00
      21    -1     0     0   501   512  0.000000000E+00  0.000000000E+00 -1.113466509E+02  1.113466509E+02  0.000000000E+00  0.00000E+00  9.000E+00
      25     1     1     2     0     0 -9.828613949E+01 -8.073835374E+01  1.424446796E+02  2.282418317E+02  1.250000000E+02  0.00000E+00  9.000E+00
      25     1     1     2     0     0  1.070424145E+02  4.931400209E+01  1.073227943E+02  2.025663631E+02  1.250000000E+02  0.00000E+00  9.000E+00
      21     1     1     2   502   512 -8.756275008E+00  3.142435165E+01 -8.052025305E+00  3.360055565E+01  6.951036328E-07  0.00000E+00  9.000E+00
#rwgt            1           1   2.7813756313890454E-002           3      242279           0
</event>
<event>
      5   9999  3.19816E-02  1.59818E+01 -1.00000E+00  1.74828E-01
      21    -1     0     0   502   501  0.000000000E+00  0.000000000E+00  2.207654112E+02  2.207654112E+02  0.000000000E+00  0.00000E+00  9.000E+00
      21    -1     0     0   511   502  0.000000000E+00  0.000000000E+00 -2.490261645E+02  2.490261645E+02  0.000000000E+00  0.00000E+00  9.000E+00
      25     1     1     2     0     0  5.962220277E+01  1.000969662E+02  1.114492151E+02  2.040101401E+02  1.250000000E+02  0.00000E+00  9.000E+00
      25     1     1     2     0     0 -4.364735674E+01 -1.005678218E+02 -4.851745265E+01  1.731990812E+02  1.250000000E+02  0.00000E+00  9.000E+00
      21     1     1     2   511   501 -1.597484602E+01  4.708555963E-01 -9.119251575E+01  9.258235436E+01  0.000000000E+00  0.00000E+00  9.000E+00
#rwgt            1           1   2.7745245212806687E-002           3      242367           0
</event>
<event>
      5   9999  3.19816E-02  4.80604E+01 -1.00000E+00  1.40063E-01
      21    -1     0     0   502   501  0.000000000E+00  0.000000000E+00  8.684289824E+01  8.684289824E+01  0.000000000E+00  0.00000E+00  9.000E+00
      21    -1     0     0   512   502  0.000000000E+00  0.000000000E+00 -1.296943127E+03  1.296943127E+03  0.000000000E+00  0.00000E+00  9.000E+00
      25     1     1     2     0     0  1.656692209E+02  1.213542914E+00 -2.462622277E+02  3.220525551E+02  1.250000000E+02  0.00000E+00  9.000E+00
      25     1     1     2     0     0 -1.181412268E+02 -8.347574479E+00 -1.052800706E+02  2.018314265E+02  1.250000000E+02  0.00000E+00  9.000E+00
      21     1     1     2   512   501 -4.752799417E+01  7.134031566E+00 -8.585579303E+02  8.599020434E+02  0.000000000E+00  0.00000E+00  9.000E+00
#rwgt            1           1   2.7221406957137356E-002           3      242507           0
</event>
<event>
      5   9999  3.19816E-02  3.65398E+01 -1.00000E+00  1.47320E-01
      21    -1     0     0   511   501  0.000000000E+00  0.000000000E+00  1.220631091E+02  1.220631091E+02  0.000000000E+00  0.00000E+00  9.000E+00
      21    -1     0     0   501   502  0.000000000E+00  0.000000000E+00 -1.267440388E+03  1.267440388E+03  0.000000000E+00  0.00000E+00  9.000E+00
      25     1     1     2     0     0 -2.091252712E+02  1.471395416E+02 -1.239278366E+02  3.104295934E+02  1.250000000E+02  0.00000E+00  9.000E+00
      25     1     1     2     0     0  2.313548321E+02 -1.181395325E+02 -9.891559040E+02  1.030308891E+03  1.250000000E+02  0.00000E+00  9.000E+00
      21     1     1     2   511   502 -2.222956089E+01 -2.900000917E+01 -3.229353876E+01  4.876501363E+01  4.768371582E-07  0.00000E+00  9.000E+00
#rwgt            1           1   2.5107634174801850E-002           3      242568           0
</event>
<event>
      5   9999  3.19816E-02  6.76101E+01 -1.00000E+00  1.31989E-01
       3    -1     0     0   502     0  0.000000000E+00  0.000000000E+00  2.445594748E+02  2.445594748E+02  0.000000000E+00  0.00000E+00  9.000E+00
      21    -1     0     0   501   502  0.000000000E+00  0.000000000E+00 -7.021986594E+02  7.021986594E+02  0.000000000E+00  0.00000E+00  9.000E+00
      25     1     1     2     0     0  5.386681516E+01 -1.268954433E+02 -5.999965294E+02  6.281917881E+02  1.250000000E+02  0.00000E+00  9.000E+00
      25     1     1     2     0     0 -6.612013949E+01  6.040499120E+01 -7.717649358E+00  1.539649243E+02  1.250000000E+02  0.00000E+00  9.000E+00
       3     1     1     2   501     0  1.225332433E+01  6.649045209E+01  1.500749942E+02  1.646014218E+02  2.697398305E-06  0.00000E+00  9.000E+00
#rwgt            1           1   2.6577419088323565E-002           3      242646           0
</event>
<event>
      5   9999  3.19816E-02  5.53270E+01 -1.00000E+00  1.36613E-01
      21    -1     0     0   502   511  0.000000000E+00  0.000000000E+00  1.106360072E+03  1.106360072E+03  0.000000000E+00  0.00000E+00  9.000E+00
      21    -1     0     0   501   502  0.000000000E+00  0.000000000E+00 -2.481352219E+03  2.481352219E+03  0.000000000E+00  0.00000E+00  9.000E+00
      25     1     1     2     0     0 -1.778877193E+02  1.428129432E+02  3.183556834E+02  4.111142403E+02  1.250000000E+02  0.00000E+00  9.000E+00
      25     1     1     2     0     0  1.853394227E+02 -1.976358044E+02 -2.424782918E+03  2.443073436E+03  1.250000000E+02  0.00000E+00  9.000E+00
      21     1     1     2   501   511 -7.451703437E+00  5.482286115E+01  7.314350874E+02  7.335246151E+02  1.525878906E-05  0.00000E+00  9.000E+00
#rwgt            1           1   2.9149212236195578E-002           3      242715           0
</event>
<event>
      5   9999  3.19816E-02  8.83395E+01 -1.00000E+00  1.26299E-01
      21    -1     0     0   502   501  0.000000000E+00  0.000000000E+00  4.765341552E+02  4.765341552E+02  0.000000000E+00  0.00000E+00  9.000E+00
      21    -1     0     0   512   502  0.000000000E+00  0.000000000E+00 -7.064152747E+02  7.064152747E+02  0.000000000E+00  0.00000E+00  9.000E+00
      25     1     1     2     0     0 -1.389657153E+02  9.952390649E+01 -5.230390674E+02  5.642794911E+02  1.250000000E+02  0.00000E+00  9.000E+00
      25     1     1     2     0     0  2.186455848E+02 -1.376682640E+02  3.921656704E+02  4.859808182E+02  1.250000000E+02  0.00000E+00  9.000E+00
      21     1     1     2   512   501 -7.967986948E+01  3.814435751E+01 -9.900772252E+01  1.326891206E+02  1.907348633E-06  0.00000E+00  9.000E+00
#rwgt            1           1   2.8895927821431029E-002           3      242796           0
</event>
<event>
      5   9999  3.19816E-02  1.31194E+02 -1.00000E+00  1.18747E-01
      21    -1     0     0   502   511  0.000000000E+00  0.000000000E+00  8.808111703E+02  8.808111703E+02  0.000000000E+00  0.00000E+00  9.000E+00
      21    -1     0     0   501   502  0.000000000E+00  0.000000000E+00 -8.327399262E+01  8.327399262E+01  0.000000000E+00  0.00000E+00  9.000E+00
      25     1     1     2     0     0 -1.320101739E+02  4.652715321E+01  1.168493859E+02  2.210661461E+02  1.250000000E+02  0.00000E+00  9.000E+00
      25     1     1     2     0     0  1.361299715E+01 -1.030427463E+02  3.143594180E+02  3.539067179E+02  1.250000000E+02  0.00000E+00  9.000E+00
      21     1     1     2   501   511  1.183971767E+02  5.651559309E+01  3.663283737E+02  3.891122989E+02  5.394796609E-06  0.00000E+00  9.000E+00
#rwgt            1           1   2.7662914962343677E-002           3      242910           0
</event>
<event>
      5   9999  3.19816E-02  8.34744E+01 -1.00000E+00  1.27462E-01
      21    -1     0     0   502   501  0.000000000E+00  0.000000000E+00  5.500634323E+02  5.500634323E+02  0.000000000E+00  0.00000E+00  9.000E+00
      21    -1     0     0   512   502  0.000000000E+00  0.000000000E+00 -1.079276248E+03  1.079276248E+03  0.000000000E+00  0.00000E+00  9.000E+00
      25     1     1     2     0     0  2.035143460E+01  5.052425409E+01  3.591948220E+01  1.410038664E+02  1.250000000E+02  0.00000E+00  9.000E+00
      25     1     1     2     0     0 -1.128336045E+00 -1.317550711E+02  4.419430945E+02  4.778068340E+02  1.250000000E+02  0.00000E+00  9.000E+00
      21     1     1     2   512   501 -1.922309856E+01  8.123081697E+01 -1.007075392E+03  1.010528979E+03  1.078959322E-05  0.00000E+00  9.000E+00
#rwgt            1           1   3.4191429744921537E-002           3      242958           0
</event>
<event>
      5   9999  3.19816E-02  8.55370E+01 -1.00000E+00  1.26958E-01
      21    -1     0     0   502   501  0.000000000E+00  0.000000000E+00  6.832191295E+01  6.832191295E+01  0.000000000E+00  0.00000E+00  9.000E+00
       2    -1     0     0   501     0  0.000000000E+00  0.000000000E+00 -2.404003662E+03  2.404003662E+03  0.000000000E+00  0.00000E+00  9.000E+00
      25     1     1     2     0     0  1.840726706E+02  1.113391440E+02 -1.369792824E+03  1.392205636E+03  1.250000000E+02  0.00000E+00  9.000E+00
      25     1     1     2     0     0 -1.523089893E+02 -1.907598794E+02 -2.911311402E+02  3.999621240E+02  1.250000000E+02  0.00000E+00  9.000E+00
       2     1     1     2   502     0 -3.176368133E+01  7.942073546E+01 -6.747577844E+02  6.801578142E+02  1.078959322E-05  0.00000E+00  9.000E+00
#rwgt            1           1   2.9783875789803915E-002           3      243022           0
</event>
<event>
      5   9999  3.19816E-02  4.13477E+02 -1.00000E+00  1.01254E-01
       2    -1     0     0   502     0  0.000000000E+00  0.000000000E+00  9.479179739E+02  9.479179739E+02  0.000000000E+00  0.00000E+00  9.000E+00
      21    -1     0     0   501   502  0.000000000E+00  0.000000000E+00 -3.712854506E+02  3.712854506E+02  0.000000000E+00  0.00000E+00  9.000E+00
      25     1     1     2     0     0  2.508581887E+02 -4.033858544E+02  8.176291739E+01  4.979559750E+02  1.250000000E+02  0.00000E+00  9.000E+00
      25     1     1     2     0     0  5.020839391E+00  7.859530561E+01  3.553948647E+02  3.848804240E+02  1.250000000E+02  0.00000E+00  9.000E+00
       2     1     1     2   501     0 -2.558790281E+02  3.247905488E+02  1.394747411E+02  4.363670256E+02  5.394796609E-06  0.00000E+00  9.000E+00
#rwgt            2          18   4.1820720260571674E-004           3      243203           0
</event>
<event>
      5   9999  3.19816E-02  7.40518E+01 -1.00000E+00  1.29995E-01
      -1    -1     0     0     0   501  0.000000000E+00  0.000000000E+00  1.381924408E+02  1.381924408E+02  0.000000000E+00  0.00000E+00  9.000E+00
      21    -1     0     0   501   502  0.000000000E+00  0.000000000E+00 -1.069374975E+03  1.069374975E+03  0.000000000E+00  0.00000E+00  9.000E+00
      25     1     1     2     0     0  1.490981052E+02 -2.306327516E+02 -3.504240650E+02  4.624324128E+02  1.250000000E+02  0.00000E+00  9.000E+00
      25     1     1     2     0     0 -1.211278330E+02  2.991989705E+02 -3.107950673E+02  4.651994730E+02  1.250000000E+02  0.00000E+00  9.000E+00
      -1     1     1     2     0   502 -2.797027220E+01 -6.856621892E+01 -2.699634019E+02  2.799355299E+02  3.814697266E-06  0.00000E+00  9.000E+00
#rwgt            1           1   2.7376671342712659E-002           3      243222           0
</event>
<event>
      5   9999  3.19816E-02  3.43310E+02 -1.00000E+00  1.03723E-01
      21    -1     0     0   502   511  0.000000000E+00  0.000000000E+00  5.896488181E+02  5.896488181E+02  0.000000000E+00  0.00000E+00  9.000E+00
      21    -1     0     0   501   502  0.000000000E+00  0.000000000E+00 -9.677901828E+02  9.677901828E+02  0.000000000E+00  0.00000E+00  9.000E+00
      25     1     1     2     0     0  2.161394110E+02 -2.441318428E+02 -2.015450026E+02  4.031897688E+02  1.250000000E+02  0.00000E+00  9.000E+00
      25     1     1     2     0     0 -4.012226265E+02 -4.501551589E+01 -5.190362866E+02  6.693501771E+02  1.250000000E+02  0.00000E+00  9.000E+00
      21     1     1     2   501   511  1.850832155E+02  2.891473586E+02  3.424399245E+02  4.848990550E+02  6.607249480E-06  0.00000E+00  9.000E+00
#rwgt            2          11   4.5420602345575649E-003           3      243386           0
</event>
<event>
      5   9999  3.19816E-02  1.67283E+01 -1.00000E+00  1.73035E-01
      21    -1     0     0   502   501  0.000000000E+00  0.000000000E+00  1.972807493E+03  1.972807493E+03  0.000000000E+00  0.00000E+00  9.000E+00
      21    -1     0     0   512   502  0.000000000E+00  0.000000000E+00 -8.942074129E+01  8.942074129E+01  0.000000000E+00  0.00000E+00  9.000E+00
      25     1     1     2     0     0  3.060324070E+02 -3.712310244E+01  1.057502439E+03  1.108589359E+03  1.250000000E+02  0.00000E+00  9.000E+00
      25     1     1     2     0     0 -3.134722793E+02  5.210587672E+01  8.546609349E+02  9.203533049E+02  1.250000000E+02  0.00000E+00  9.000E+00
      21     1     1     2   512   501  7.439872244E+00 -1.498277428E+01 -2.877662196E+01  3.328557038E+01  2.261837239E-06  0.00000E+00  9.000E+00
#rwgt            1           1   3.0258357249864642E-002           3      243406           0
</event>
<event>
      5   9999  3.19816E-02  9.00141E+01 -1.00000E+00  1.25918E-01
      21    -1     0     0   502   501  0.000000000E+00  0.000000000E+00  1.294288722E+03  1.294288722E+03  0.000000000E+00  0.00000E+00  9.000E+00
      21    -1     0     0   511   502  0.000000000E+00  0.000000000E+00 -1.214415178E+02  1.214415178E+02  0.000000000E+00  0.00000E+00  9.000E+00
      25     1     1     2     0     0 -1.143208002E+02 -2.308992874E+02  1.535436561E+02  3.249375026E+02  1.250000000E+02  0.00000E+00  9.000E+00
      25     1     1     2     0     0  1.016414310E+02  1.417826335E+02  9.583418387E+02  9.820780903E+02  1.250000000E+02  0.00000E+00  9.000E+00
      21     1     1     2   511   501  1.267936911E+01  8.911665393E+01  6.096170945E+01  1.087146468E+02  1.507891493E-06  0.00000E+00  9.000E+00
#rwgt            1           1   3.4843698489055198E-002           3      243556           0
</event>
<event>
      5   9999  3.19816E-02  7.60746E+01 -1.00000E+00  1.29416E-01
       1    -1     0     0   502     0  0.000000000E+00  0.000000000E+00  3.471576338E+02  3.471576338E+02  0.000000000E+00  0.00000E+00  9.000E+00
      21    -1     0     0   501   502  0.000000000E+00  0.000000000E+00 -3.058705377E+02  3.058705377E+02  0.000000000E+00  0.00000E+00  9.000E+00
      25     1     1     2     0     0  2.799272754E+01 -5.447431224E+01 -1.173132291E+01  1.396913291E+02  1.250000000E+02  0.00000E+00  9.000E+00
      25     1     1     2     0     0 -1.025238959E+02  6.972075631E+01 -1.897975218E+02  2.588826614E+02  1.250000000E+02  0.00000E+00  9.000E+00
       1     1     1     2   501     0  7.453116833E+01 -1.524644406E+01  2.428159409E+02  2.544541810E+02  0.000000000E+00  0.00000E+00  9.000E+00
#rwgt            1           1   3.3282206506723998E-002           3      243638           0
</event>
<event>
      5   9999  3.19816E-02  3.57433E+01 -1.00000E+00  1.47937E-01
      21    -1     0     0   511   501  0.000000000E+00  0.000000000E+00  5.231158296E+02  5.231158296E+02  0.000000000E+00  0.00000E+00  9.000E+00
      21    -1     0     0   501   502  0.000000000E+00  0.000000000E+00 -2.583586012E+02  2.583586012E+02  0.000000000E+00  0.00000E+00  9.000E+00
      25     1     1     2     0     0 -1.482120903E+02  1.857362248E+02  4.976915278E+00  2.685415026E+02  1.250000000E+02  0.00000E+00  9.000E+00
      25     1     1     2     0     0  1.126044608E+02 -1.888480217E+02  2.245569492E+00  2.529295999E+02  1.250000000E+02  0.00000E+00  9.000E+00
      21     1     1     2   511   502  3.560762946E+01  3.111796897E+00  2.575347437E+02  2.600033284E+02  0.000000000E+00  0.00000E+00  9.000E+00
#rwgt            1           1   2.6799577106478286E-002           3      243710           0
</event>
<event>
      5   9999  3.19816E-02  4.66075E+01 -1.00000E+00  1.40839E-01
      21    -1     0     0   512   501  0.000000000E+00  0.000000000E+00  4.532347293E+02  4.532347293E+02  0.000000000E+00  0.00000E+00  9.000E+00
      21    -1     0     0   501   502  0.000000000E+00  0.000000000E+00 -1.413700066E+02  1.413700066E+02  0.000000000E+00  0.00000E+00  9.000E+00
      25     1     1     2     0     0 -1.446125175E+02  7.547661684E-01  2.743720964E+01  1.931091669E+02  1.250000000E+02  0.00000E+00  9.000E+00
      25     1     1     2     0     0  1.886983657E+02 -1.587742664E+01  1.890414315E+02  2.953317266E+02  1.250000000E+02  0.00000E+00  9.000E+00
      21     1     1     2   512   502 -4.408584825E+01  1.512266047E+01  9.538608161E+01  1.061638424E+02  0.000000000E+00  0.00000E+00  9.000E+00
#rwgt            1           1   2.4673488796765512E-002           3      243852           0
</event>
<event>
      5   9999  3.19816E-02  3.85789E+01 -1.00000E+00  1.45821E-01
      21    -1     0     0   502   511  0.000000000E+00  0.000000000E+00  2.183820851E+02  2.183820851E+02  0.000000000E+00  0.00000E+00  9.000E+00
      21    -1     0     0   501   502  0.000000000E+00  0.000000000E+00 -9.528893919E+02  9.528893919E+02  0.000000000E+00  0.00000E+00  9.000E+00
      25     1     1     2     0     0 -3.114796265E+02  1.210687446E+01 -2.136420482E+01  3.365227532E+02  1.250000000E+02  0.00000E+00  9.000E+00
      25     1     1     2     0     0  2.758700665E+02 -2.694904052E+01 -7.313860749E+02  7.920739453E+02  1.250000000E+02  0.00000E+00  9.000E+00
      21     1     1     2   501   511  3.560956005E+01  1.484216607E+01  1.824297289E+01  4.267477850E+01  6.307962682E-07  0.00000E+00  9.000E+00
#rwgt            1           1   2.8677661553608694E-002           3      243994           0
</event>
<event>
      5   9999  3.19816E-02  3.26538E+01 -1.00000E+00  1.50526E-01
      21    -1     0     0   512   501  0.000000000E+00  0.000000000E+00  9.302448189E+01  9.302448189E+01  0.000000000E+00  0.00000E+00  9.000E+00
      21    -1     0     0   501   502  0.000000000E+00  0.000000000E+00 -2.609267355E+03  2.609267355E+03  0.000000000E+00  0.00000E+00  9.000E+00
      25     1     1     2     0     0  1.043843460E+02  3.784216979E+02 -1.778340447E+03  1.825436611E+03  1.250000000E+02  0.00000E+00  9.000E+00
      25     1     1     2     0     0 -1.279860501E+02 -4.009877933E+02 -6.638507405E+02  7.959236427E+02  1.250000000E+02  0.00000E+00  9.000E+00
      21     1     1     2   512   502  2.360170419E+01  2.256609540E+01 -7.405168511E+01  8.093158327E+01  1.907348633E-06  0.00000E+00  9.000E+00
#rwgt            1           1   8.3277563272155450E-002           3      244106           0
</event>
<event>
      5   9999  3.19816E-02  2.16608E+02 -1.00000E+00  1.10401E-01
       2    -1     0     0   502     0  0.000000000E+00  0.000000000E+00  1.545925985E+03  1.545925985E+03  0.000000000E+00  0.00000E+00  9.000E+00
      21    -1     0     0   501   502  0.000000000E+00  0.000000000E+00 -4.194799488E+02  4.194799488E+02  0.000000000E+00  0.00000E+00  9.000E+00
      25     1     1     2     0     0 -3.595619989E+02  3.904443901E+02  3.564975692E+02  6.514961010E+02  1.250000000E+02  0.00000E+00  9.000E+00
      25     1     1     2     0     0  2.700232487E+02 -1.932094014E+02 -1.378567381E+02  3.806204249E+02  1.250000000E+02  0.00000E+00  9.000E+00
       2     1     1     2   501     0  8.953875017E+01 -1.972349887E+02  9.078052050E+02  9.332894078E+02  0.000000000E+00  0.00000E+00  9.000E+00
#rwgt            2          18   1.5215630713091982E-003           3      244300           0
</event>
<event>
      5   9999  3.19816E-02  2.45027E+02 -1.00000E+00  1.08529E-01
       2    -1     0     0   502     0  0.000000000E+00  0.000000000E+00  2.309819570E+03  2.309819570E+03  0.000000000E+00  0.00000E+00  9.000E+00
      21    -1     0     0   501   502  0.000000000E+00  0.000000000E+00 -1.181338388E+02  1.181338388E+02  0.000000000E+00  0.00000E+00  9.000E+00
      25     1     1     2     0     0  2.347360705E+02 -2.079797375E+02  4.192179676E+02  5.382613662E+02  1.250000000E+02  0.00000E+00  9.000E+00
      25     1     1     2     0     0 -3.835934934E+02  1.335282536E+01  9.697599591E+02  1.050419747E+03  1.250000000E+02  0.00000E+00  9.000E+00
       2     1     1     2   501     0  1.488574228E+02  1.946269122E+02  8.027078041E+02  8.392722955E+02  0.000000000E+00  0.00000E+00  9.000E+00
#rwgt            1           1   2.8392299152415926E-002           3      244334           0
</event>
<event>
      5   9999  3.19816E-02  6.07658E+00 -1.00000E+00  2.24620E-01
      21    -1     0     0   502   501  0.000000000E+00  0.000000000E+00  9.549397537E+01  9.549397537E+01  0.000000000E+00  0.00000E+00  9.000E+00
      21    -1     0     0   501   511  0.000000000E+00  0.000000000E+00 -4.645393174E+02  4.645393174E+02  0.000000000E+00  0.00000E+00  9.000E+00
      25     1     1     2     0     0  5.044966092E+01 -1.504121530E+02 -2.186614777E+02  2.976689871E+02  1.250000000E+02  0.00000E+00  9.000E+00
      25     1     1     2     0     0 -5.394742297E+01  1.553811106E+02 -1.376248747E+02  2.482321899E+02  1.250000000E+02  0.00000E+00  9.000E+00
      21     1     1     2   502   511  3.497762047E+00 -4.968957612E+00 -1.275898969E+01  1.413211580E+01  1.685873940E-07  0.00000E+00  9.000E+00
#rwgt            1           1   2.4160541491208873E-002           3      244371           0
</event>
<event>
      5   9999  3.19816E-02  9.67279E+01 -1.00000E+00  1.24481E-01
      21    -1     0     0   502   512  0.000000000E+00  0.000000000E+00  2.590362267E+03  2.590362267E+03  0.000000000E+00  0.00000E+00  9.000E+00
      21    -1     0     0   501   502  0.000000000E+00  0.000000000E+00 -4.365906578E+02  4.365906578E+02  0.000000000E+00  0.00000E+00  9.000E+00
      25     1     1     2     0     0  4.381079937E+02 -3.981178624E+01  3.108230998E+02  5.529553254E+02  1.250000000E+02  0.00000E+00  9.000E+00
      25     1     1     2     0     0 -4.720857855E+02 -5.075194360E+01 -1.226086002E+02  5.060618712E+02  1.250000000E+02  0.00000E+00  9.000E+00
      21     1     1     2   501   512  3.397779179E+01  9.056372984E+01  1.965557110E+03  1.967935728E+03  0.000000000E+00  0.00000E+00  9.000E+00
#rwgt            1           1   2.6851973955235576E-002           3      244691           0
</event>
<event>
      5   9999  3.19816E-02  4.66835E+01 -1.00000E+00  1.40798E-01
      21    -1     0     0   502   501  0.000000000E+00  0.000000000E+00  1.236061042E+03  1.236061042E+03  0.000000000E+00  0.00000E+00  9.000E+00
      21    -1     0     0   501   511  0.000000000E+00  0.000000000E+00 -2.482070483E+02  2.482070483E+02  0.000000000E+00  0.00000E+00  9.000E+00
      25     1     1     2     0     0 -2.633941038E+02 -3.350834755E+02  2.249543878E+02  4.978823818E+02  1.250000000E+02  0.00000E+00  9.000E+00
      25     1     1     2     0     0  2.173074352E+02  3.276426729E+02  8.168035481E+02  9.150766518E+02  1.250000000E+02  0.00000E+00  9.000E+00
      21     1     1     2   502   511  4.608666856E+01  7.440802646E+00 -5.390394233E+01  7.130905666E+01  2.523185073E-06  0.00000E+00  9.000E+00
#rwgt            1           1   2.8991091949202425E-002           3      244774           0
</event>
<event>
      5   9999  3.19816E-02  1.17002E+02 -1.00000E+00  1.20836E-01
      21    -1     0     0   502   501  0.000000000E+00  0.000000000E+00  4.653081082E+02  4.653081082E+02  0.000000000E+00  0.00000E+00  9.000E+00
      21    -1     0     0   501   512  0.000000000E+00  0.000000000E+00 -1.251128285E+03  1.251128285E+03  0.000000000E+00  0.00000E+00  9.000E+00
      25     1     1     2     0     0 -2.436509740E+02 -2.279335947E+02  3.512642547E+02  5.003309878E+02  1.250000000E+02  0.00000E+00  9.000E+00
      25     1     1     2     0     0  2.347751397E+02  1.112684576E+02 -5.903499154E+02  6.569916731E+02  1.250000000E+02  0.00000E+00  9.000E+00
      21     1     1     2   502   512  8.875834366E+00  1.166651372E+02 -5.467345157E+02  5.591137320E+02  7.629394531E-06  0.00000E+00  9.000E+00
#rwgt            1           1   2.9930902225219328E-002           3      244919           0
</event>
<event>
      5   9999  3.19816E-02  2.08520E+02 -1.00000E+00  1.10992E-01
      21    -1     0     0   502   501  0.000000000E+00  0.000000000E+00  1.587639986E+03  1.587639986E+03  0.000000000E+00  0.00000E+00  9.000E+00
       2    -1     0     0   501     0  0.000000000E+00  0.000000000E+00 -1.549048035E+03  1.549048035E+03  0.000000000E+00  0.00000E+00  9.000E+00
      25     1     1     2     0     0  1.023661266E+02 -1.035207846E+03  1.983380652E+02  1.066347550E+03  1.250000000E+02  0.00000E+00  9.000E+00
      25     1     1     2     0     0 -1.826546605E+02  8.427644953E+02  7.422049562E+02  1.144599457E+03  1.250000000E+02  0.00000E+00  9.000E+00
       2     1     1     2   502     0  8.028853385E+01  1.924433507E+02 -9.019510707E+02  9.257410144E+02  1.525878906E-05  0.00000E+00  9.000E+00
#rwgt            1           1   3.0208260139833031E-002           3      245016           0
</event>
<event>
      5   9999  3.19816E-02  1.17597E+01 -1.00000E+00  1.87956E-01
      21    -1     0     0   502   511  0.000000000E+00  0.000000000E+00  7.741151113E+02  7.741151113E+02  0.000000000E+00  0.00000E+00  9.000E+00
      21    -1     0     0   501   502  0.000000000E+00  0.000000000E+00 -2.546463940E+02  2.546463940E+02  0.000000000E+00  0.00000E+00  9.000E+00
      25     1     1     2     0     0  3.285637784E+02  1.737469147E+02  4.535424482E+02  5.995564186E+02  1.250000000E+02  0.00000E+00  9.000E+00
      25     1     1     2     0     0 -3.369385137E+02 -1.820024663E+02  4.518622843E+01  4.053631150E+02  1.250000000E+02  0.00000E+00  9.000E+00
      21     1     1     2   501   511  8.374735328E+00  8.255551673E+00  2.074004069E+01  2.384197167E+01  2.384185791E-07  0.00000E+00  9.000E+00
#rwgt            1           1   2.6072856856200501E-002           3      245115           0
</event>
<event>
      5   9999  3.19816E-02  1.48030E+02 -1.00000E+00  1.16622E-01
      21    -1     0     0   502   501  0.000000000E+00  0.000000000E+00  2.401306962E+02  2.401306962E+02  0.000000000E+00  0.00000E+00  9.000E+00
      21    -1     0     0   501   512  0.000000000E+00  0.000000000E+00 -1.185834945E+03  1.185834945E+03  0.000000000E+00  0.00000E+00  9.000E+00
      25     1     1     2     0     0 -9.035653848E+01 -4.032181683E+01  3.435390730E+01  1.630807895E+02  1.250000000E+02  0.00000E+00  9.000E+00
      25     1     1     2     0     0  2.230359390E+02  1.059648781E+02 -5.160391127E+00  2.768125993E+02  1.250000000E+02  0.00000E+00  9.000E+00
      21     1     1     2   502   512 -1.326794005E+02 -6.564306122E+01 -9.748977647E+02  9.860722521E+02  1.078959322E-05  0.00000E+00  9.000E+00
#rwgt            1           1   2.5080642284521632E-002           3      245385           0
</event>
<event>
      5   9999  3.19816E-02  6.15433E+01 -1.00000E+00  1.34117E-01
      21    -1     0     0   502   501  0.000000000E+00  0.000000000E+00  1.654156705E+02  1.654156705E+02  0.000000000E+00  0.00000E+00  9.000E+00
      21    -1     0     0   511   502  0.000000000E+00  0.000000000E+00 -2.758863476E+02  2.758863476E+02  0.000000000E+00  0.00000E+00  9.000E+00
      25     1     1     2     0     0  8.513845623E+01 -6.954443345E+01 -7.903059798E+01  1.842710514E+02  1.250000000E+02  0.00000E+00  9.000E+00
      25     1     1     2     0     0 -1.137445303E+02  1.505346613E+01  2.741534152E+01  1.718750301E+02  1.250000000E+02  0.00000E+00  9.000E+00
      21     1     1     2   511   501  2.860607406E+01  5.449096732E+01 -5.885542064E+01  8.515593656E+01  6.743495762E-07  0.00000E+00  9.000E+00
#rwgt            1           1   2.4961152764904567E-002           3      245459           0
</event>
<event>
      5   9999  3.19816E-02  1.08010E+02 -1.00000E+00  1.22341E-01
      21    -1     0     0   502   512  0.000000000E+00  0.000000000E+00  5.904415077E+01  5.904415077E+01  0.000000000E+00  0.00000E+00  9.000E+00
      21    -1     0     0   501   502  0.000000000E+00  0.000000000E+00 -9.732568337E+02  9.732568337E+02  0.000000000E+00  0.00000E+00  9.000E+00
      25     1     1     2     0     0 -1.028582762E+02  1.245200833E+02 -3.919884638E+02  4.420011672E+02  1.250000000E+02  0.00000E+00  9.000E+00
      25     1     1     2     0     0  2.241464754E+01 -5.244357940E+01 -4.187841530E+02  4.407469935E+02  1.250000000E+02  0.00000E+00  9.000E+00
      21     1     1     2   501   512  8.044362864E+01 -7.207650392E+01 -1.034400662E+02  1.495528238E+02  3.303624740E-06  0.00000E+00  9.000E+00
#rwgt            2          11   7.9802536338578790E-003           3      245561           0
</event>
<event>
      5   9999  3.19816E-02  1.53464E+02 -1.00000E+00  1.16002E-01
      21    -1     0     0   502   511  0.000000000E+00  0.000000000E+00  7.829647096E+02  7.829647096E+02  0.000000000E+00  0.00000E+00  9.000E+00
      21    -1     0     0   501   502  0.000000000E+00  0.000000000E+00 -2.769270624E+02  2.769270624E+02  0.000000000E+00  0.00000E+00  9.000E+00
      25     1     1     2     0     0 -2.502301601E+02  2.126456880E+01  3.495059176E+01  2.826903938E+02  1.250000000E+02  0.00000E+00  9.000E+00
      25     1     1     2     0     0  1.474550332E+02 -1.352319396E+02 -4.378639773E+01  2.399435620E+02  1.250000000E+02  0.00000E+00  9.000E+00
      21     1     1     2   501   511  1.027751269E+02  1.139673708E+02  5.148734531E+02  5.372578162E+02  7.629394531E-06  0.00000E+00  9.000E+00
#rwgt            1           1   2.3916653407533024E-002           3      245581           0
</event>
<event>
      5   9999  3.19816E-02  1.04389E+02 -1.00000E+00  1.22995E-01
      21    -1     0     0   512   501  0.000000000E+00  0.000000000E+00  3.514232791E+02  3.514232791E+02  0.000000000E+00  0.00000E+00  9.000E+00
      21    -1     0     0   501   502  0.000000000E+00  0.000000000E+00 -1.011796582E+03  1.011796582E+03  0.000000000E+00  0.00000E+00  9.000E+00
      25     1     1     2     0     0 -2.313463936E+02 -2.148981297E+01 -1.573355898E+02  3.071847224E+02  1.250000000E+02  0.00000E+00  9.000E+00
      25     1     1     2     0     0  2.121237944E+02 -8.111417908E+01 -7.469867259E+02  7.906896881E+02  1.250000000E+02  0.00000E+00  9.000E+00
      21     1     1     2   512   502  1.922259919E+01  1.026039921E+02  2.439490125E+02  2.653454507E+02  5.394796609E-06  0.00000E+00  9.000E+00
#rwgt            1           1   2.1063901556450167E-002           3      245613           0
</event>
<event>
      5   9999  3.19816E-02  1.03535E+01 -1.00000E+00  1.94029E-01
      21    -1     0     0   502   501  0.000000000E+00  0.000000000E+00  1.114827066E+03  1.114827066E+03  0.000000000E+00  0.00000E+00  9.000E+00
      21    -1     0     0   501   511  0.000000000E+00  0.000000000E+00 -1.413384382E+02  1.413384382E+02  0.000000000E+00  0.00000E+00  9.000E+00
      25     1     1     2     0     0 -9.583638489E+01  8.426209898E+01  9.285976303E+02  9.456232194E+02  1.250000000E+02  0.00000E+00  9.000E+00
      25     1     1     2     0     0  9.104851696E+01 -7.508216471E+01  1.357818571E+02  2.190636360E+02  1.250000000E+02  0.00000E+00  9.000E+00
      21     1     1     2   502   511  4.787867923E+00 -9.179934263E+00 -9.089085950E+01  9.147864894E+01  2.697398305E-06  0.00000E+00  9.000E+00
#rwgt            1           1   3.2080197291777739E-002           3      245694           0
</event>
<event>
      5   9999  3.19816E-02  6.83624E+01 -1.00000E+00  1.31743E-01
      21    -1     0     0   502   501  0.000000000E+00  0.000000000E+00  5.858722244E+02  5.858722244E+02  0.000000000E+00  0.00000E+00  9.000E+00
      21    -1     0     0   501   512  0.000000000E+00  0.000000000E+00 -1.417849624E+03  1.417849624E+03  0.000000000E+00  0.00000E+00  9.000E+00
      25     1     1     2     0     0  5.477322982E+02 -3.090137361E+02 -9.871709397E+02  1.177128550E+03  1.250000000E+02  0.00000E+00  9.000E+00
      25     1     1     2     0     0 -6.087477040E+02  3.398445869E+02  2.102149283E+02  7.388392426E+02  1.250000000E+02  0.00000E+00  9.000E+00
      21     1     1     2   502   512  6.101540578E+01 -3.083085077E+01 -5.502138816E+01  8.775405551E+01  1.651812370E-06  0.00000E+00  9.000E+00
#rwgt            1           1   3.8802806552855756E-002           3      245972           0
</event>
<event>
      5   9999  3.19816E-02  7.90192E+01 -1.00000E+00  1.28609E-01
       2    -1     0     0   502     0  0.000000000E+00  0.000000000E+00  1.836152823E+03  1.836152823E+03  0.000000000E+00  0.00000E+00  9.000E+00
      21    -1     0     0   501   502  0.000000000E+00  0.000000000E+00 -6.088968841E+02  6.088968841E+02  0.000000000E+00  0.00000E+00  9.000E+00
      25     1     1     2     0     0 -1.396808768E+02 -3.990860846E+02  7.000808164E+02  8.273563922E+02  1.250000000E+02  0.00000E+00  9.000E+00
      25     1     1     2     0     0  7.018941495E+01  3.614699804E+02 -4.741737450E+02  6.132314743E+02  1.250000000E+02  0.00000E+00  9.000E+00
       2     1     1     2   501     0  6.949146188E+01  3.761610424E+01  1.001348868E+03  1.004461841E+03  1.078959322E-05  0.00000E+00  9.000E+00
#rwgt            1           1   2.9502730631974332E-002           3      246069           0
</event>
<event>
      5   9999  3.19816E-02  7.49610E+01 -1.00000E+00  1.29732E-01
      21    -1     0     0   502   501  0.000000000E+00  0.000000000E+00  5.134868074E+02  5.134868074E+02  0.000000000E+00  0.00000E+00  9.000E+00
      21    -1     0     0   501   511  0.000000000E+00  0.000000000E+00 -1.033767991E+03  1.033767991E+03  0.000000000E+00  0.00000E+00  9.000E+00
      25     1     1     2     0     0 -1.104950436E+02  1.251920406E+02  2.856022512E+02  3.536606390E+02  1.250000000E+02  0.00000E+00  9.000E+00
      25     1     1     2     0     0  1.098744082E+02 -5.023358218E+01  1.531230874E+02  2.316624230E+02  1.250000000E+02  0.00000E+00  9.000E+00
      21     1     1     2   502   511  6.206353592E-01 -7.495845847E+01 -9.590065218E+02  9.619317359E+02  1.078959322E-05  0.00000E+00  9.000E+00
#rwgt            1           1   3.0253408006694966E-002           3      246134           0
</event>
<event>
      5   9999  3.19816E-02  3.97535E+01 -1.00000E+00  1.45007E-01
      21    -1     0     0   502   512  0.000000000E+00  0.000000000E+00  6.294159657E+02  6.294159657E+02  0.000000000E+00  0.00000E+00  9.000E+00
      21    -1     0     0   501   502  0.000000000E+00  0.000000000E+00 -2.668008606E+02  2.668008606E+02  0.000000000E+00  0.00000E+00  9.000E+00
      25     1     1     2     0     0  6.987746591E+01  1.844559704E+02 -1.632156393E+02  2.849056162E+02  1.250000000E+02  0.00000E+00  9.000E+00
      25     1     1     2     0     0 -8.365662841E+01 -2.217450198E+02  4.864000036E+02  5.553190513E+02  1.250000000E+02  0.00000E+00  9.000E+00
      21     1     1     2   501   512  1.377916251E+01  3.728904943E+01  3.943074080E+01  5.599215880E+01  9.536743164E-07  0.00000E+00  9.000E+00
#rwgt            1           1   2.6619201646806676E-002           3      246223           0
</event>
<event>
      5   9999  3.19816E-02  7.53198E+01 -1.00000E+00  1.29630E-01
      21    -1     0     0   511   501  0.000000000E+00  0.000000000E+00  6.269437153E+01  6.269437153E+01  0.000000000E+00  0.00000E+00  9.000E+00
      21    -1     0     0   501   502  0.000000000E+00  0.000000000E+00 -2.612775015E+03  2.612775015E+03  0.000000000E+00  0.00000E+00  9.000E+00
      25     1     1     2     0     0 -3.016186476E+01  1.734626858E+02 -1.039668363E+03  1.061854202E+03  1.250000000E+02  0.00000E+00  9.000E+00
      25     1     1     2     0     0 -3.953209366E+01 -1.449000383E+02 -1.524514343E+03  1.536986594E+03  1.250000000E+02  0.00000E+00  9.000E+00
      21     1     1     2   511   502  6.969395842E+01 -2.856264755E+01  1.410206286E+01  7.662859030E+01  2.323816858E-06  0.00000E+00  9.000E+00
#rwgt            1           1   5.2996223704075224E-002           3      246383           0
</event>
<event>
      5   9999  3.19816E-02  8.73588E+01 -1.00000E+00  1.26527E-01
      21    -1     0     0   502   501  0.000000000E+00  0.000000000E+00  9.837544576E+02  9.837544576E+02  0.000000000E+00  0.00000E+00  9.000E+00
      21    -1     0     0   501   512  0.000000000E+00  0.000000000E+00 -5.200655704E+02  5.200655704E+02  0.000000000E+00  0.00000E+00  9.000E+00
      25     1     1     2     0     0 -3.037078397E+02 -4.876293809E+02  3.088248125E+02  6.640923353E+02  1.250000000E+02  0.00000E+00  9.000E+00
      25     1     1     2     0     0  3.626702368E+02  5.520886594E+02  2.437474533E+02  7.151009786E+02  1.250000000E+02  0.00000E+00  9.000E+00
      21     1     1     2   502   512 -5.896239709E+01 -6.445927851E+01 -8.888337863E+01  1.246267140E+02  1.907348633E-06  0.00000E+00  9.000E+00
#rwgt            1           1   2.9847497358301223E-002           3      246459           0
</event>
<event>
      5   9999  3.19816E-02  2.11881E+02 -1.00000E+00  1.10743E-01
      21    -1     0     0   502   511  0.000000000E+00  0.000000000E+00  2.804651556E+03  2.804651556E+03  0.000000000E+00  0.00000E+00  9.000E+00
      21    -1     0     0   501   502  0.000000000E+00  0.000000000E+00 -1.554629016E+02  1.554629016E+02  0.000000000E+00  0.00000E+00  9.000E+00
      25     1     1     2     0     0 -2.352836977E+02 -2.610939883E+02  5.514214538E+02  6.657470307E+02  1.250000000E+02  0.00000E+00  9.000E+00
      25     1     1     2     0     0  2.830071175E+02  5.465740362E+01  1.743390758E+02  3.593042912E+02  1.250000000E+02  0.00000E+00  9.000E+00
      21     1     1     2   501   511 -4.772341977E+01  2.064365847E+02  1.923428125E+03  1.935063136E+03  0.000000000E+00  0.00000E+00  9.000E+00
#rwgt            1           1   2.8061323323919203E-002           3      246536           0
</event>
<event>
      5   9999  3.19816E-02  1.21809E+01 -1.00000E+00  1.86347E-01
      21    -1     0     0   502   501  0.000000000E+00  0.000000000E+00  5.354104427E+01  5.354104427E+01  0.000000000E+00  0.00000E+00  9.000E+00
      21    -1     0     0   512   502  0.000000000E+00  0.000000000E+00 -1.667629143E+03  1.667629143E+03  0.000000000E+00  0.00000E+00  9.000E+00
      25     1     1     2     0     0 -1.027067824E+02 -1.383875011E+02 -9.586255278E+02  9.819815101E+02  1.250000000E+02  0.00000E+00  9.000E+00
      25     1     1     2     0     0  9.697720849E+01  1.491367206E+02 -2.411288149E+02  3.246759088E+02  1.250000000E+02  0.00000E+00  9.000E+00
      21     1     1     2   512   501  5.729573947E+00 -1.074921947E+01 -4.143337557E+02  4.145127680E+02  1.078959322E-05  0.00000E+00  9.000E+00
#rwgt            1           1   3.0994054690299443E-002           3      246574           0
</event>
<event>
      5   9999  3.19816E-02  5.02585E+01 -1.00000E+00  1.38948E-01
      -2    -1     0     0     0   501  0.000000000E+00  0.000000000E+00  1.228958295E+03  1.228958295E+03  0.000000000E+00  0.00000E+00  9.000E+00
      21    -1     0     0   501   502  0.000000000E+00  0.000000000E+00 -1.366597914E+02  1.366597914E+02  0.000000000E+00  0.00000E+00  9.000E+00
      25     1     1     2     0     0 -3.250279275E+02  7.010576126E+01  4.036234860E+02  5.376754504E+02  1.250000000E+02  0.00000E+00  9.000E+00
      25     1     1     2     0     0  2.872890318E+02 -3.691407088E+01  2.977315471E+02  4.337818698E+02  1.250000000E+02  0.00000E+00  9.000E+00
      -2     1     1     2     0   502  3.773889576E+01 -3.319169038E+01  3.909434708E+02  3.941607666E+02  5.394796609E-06  0.00000E+00  9.000E+00
#rwgt            1           1   2.5540463870677200E-002           3      246750           0
</event>
<event>
      5   9999  3.19816E-02  5.73760E+01 -1.00000E+00  1.35749E-01
      21    -1     0     0   502   501  0.000000000E+00  0.000000000E+00  3.038772118E+02  3.038772118E+02  0.000000000E+00  0.00000E+00  9.000E+00
      21    -1     0     0   511   502  0.000000000E+00  0.000000000E+00 -1.658645921E+03  1.658645921E+03  0.000000000E+00  0.00000E+00  9.000E+00
      25     1     1     2     0     0  2.382657539E+02  2.462549779E+02 -1.348815369E+03  1.397261601E+03  1.250000000E+02  0.00000E+00  9.000E+00
      25     1     1     2     0     0 -2.080944440E+02 -2.950576100E+02  1.411840094E+02  4.073330522E+02  1.250000000E+02  0.00000E+00  9.000E+00
      21     1     1     2   511   501 -3.017130987E+01  4.880263214E+01 -1.471373498E+02  1.579284792E+02  2.697398305E-06  0.00000E+00  9.000E+00
#rwgt            1           1   3.6594911308390897E-002           3      246909           0
</event>
<event>
      5   9999  3.19816E-02  2.50020E+02 -1.00000E+00  1.08229E-01
      21    -1     0     0   512   501  0.000000000E+00  0.000000000E+00  6.718357135E+02  6.718357135E+02  0.000000000E+00  0.00000E+00  9.000E+00
      21    -1     0     0   501   502  0.000000000E+00  0.000000000E+00 -7.673234229E+02  7.673234229E+02  0.000000000E+00  0.00000E+00  9.000E+00
      25     1     1     2     0     0  4.007937398E+02 -3.463056342E+01  3.182967046E+02  5.279892896E+02  1.250000000E+02  0.00000E+00  9.000E+00
      25     1     1     2     0     0 -1.536289472E+02  7.230889693E+01 -5.758376704E+02  6.132246347E+02  1.250000000E+02  0.00000E+00  9.000E+00
      21     1     1     2   512   502 -2.471647925E+02 -3.767833352E+01  1.620532564E+02  2.979452120E+02  2.697398305E-06  0.00000E+00  9.000E+00
#rwgt            1           1   2.8370740221292164E-002           3      247045           0
</event>
<event>
      5   9999  3.19816E-02  1.30100E+01 -1.00000E+00  1.83412E-01
      21    -1     0     0   511   501  0.000000000E+00  0.000000000E+00  6.271157153E+02  6.271157153E+02  0.000000000E+00  0.00000E+00  9.000E+00
      21    -1     0     0   501   502  0.000000000E+00  0.000000000E+00 -4.111585247E+02  4.111585247E+02  0.000000000E+00  0.00000E+00  9.000E+00
      25     1     1     2     0     0 -4.422050765E+02 -1.406090449E+02  1.300963153E+02  4.978617122E+02  1.250000000E+02  0.00000E+00  9.000E+00
      25     1     1     2     0     0  4.528559897E+02  1.480801776E+02  4.165770914E+01  4.943345539E+02  1.250000000E+02  0.00000E+00  9.000E+00
      21     1     1     2   511   502 -1.065091321E+01 -7.471132718E+00  4.420316617E+01  4.607797387E+01  0.000000000E+00  0.00000E+00  9.000E+00
#rwgt            1           1   3.2363770777519785E-002           3      247116           0
</event>
<event>
      5   9999  3.19816E-02  1.91156E+01 -1.00000E+00  1.68006E-01
      21    -1     0     0   502   512  0.000000000E+00  0.000000000E+00  1.009206806E+03  1.009206806E+03  0.000000000E+00  0.00000E+00  9.000E+00
      21    -1     0     0   501   502  0.000000000E+00  0.000000000E+00 -1.920173970E+03  1.920173970E+03  0.000000000E+00  0.00000E+00  9.000E+00
      25     1     1     2     0     0 -8.360649560E+02 -5.933814880E+02 -1.586760542E+02  1.044944635E+03  1.250000000E+02  0.00000E+00  9.000E+00
      25     1     1     2     0     0  8.170173070E+02  5.949915439E+02 -1.121404295E+03  1.514828310E+03  1.250000000E+02  0.00000E+00  9.000E+00
      21     1     1     2   501   512  1.904764905E+01 -1.610055810E+00  3.691131846E+02  3.696078303E+02  5.394796609E-06  0.00000E+00  9.000E+00
#rwgt            1           1   2.8521759458058293E-002           3      247342           0
</event>
<event>
      5   9999  3.19816E-02  2.14526E+02 -1.00000E+00  1.10551E-01
      21    -1     0     0   502   501  0.000000000E+00  0.000000000E+00  2.537670197E+03  2.537670197E+03  0.000000000E+00  0.00000E+00  9.000E+00
      21    -1     0     0   511   502  0.000000000E+00  0.000000000E+00 -9.594734998E+02  9.594734998E+02  0.000000000E+00  0.00000E+00  9.000E+00
      25     1     1     2     0     0  9.818846806E+02 -3.469577059E+02  2.050677191E+03  2.303340860E+03  1.250000000E+02  0.00000E+00  9.000E+00
      25     1     1     2     0     0 -8.290886584E+02  1.963763760E+02 -4.660675431E+02  9.791811065E+02  1.250000000E+02  0.00000E+00  9.000E+00
      21     1     1     2   511   501 -1.527960222E+02  1.505813299E+02 -6.412950404E+00  2.146217306E+02  2.514722718E-06  0.00000E+00  9.000E+00
#rwgt            2          11   3.1700151748561251E-002           3      247662           0
</event>
<event>
      5   9999  3.19816E-02  1.54726E+01 -1.00000E+00  1.76124E-01
      21    -1     0     0   502   512  0.000000000E+00  0.000000000E+00  1.884641409E+02  1.884641409E+02  0.000000000E+00  0.00000E+00  9.000E+00
      21    -1     0     0   501   502  0.000000000E+00  0.000000000E+00 -2.152127265E+03  2.152127265E+03  0.000000000E+00  0.00000E+00  9.000E+00
      25     1     1     2     0     0  2.463848054E+02  1.360568379E+02 -1.997277642E+03  2.020880975E+03  1.250000000E+02  0.00000E+00  9.000E+00
      25     1     1     2     0     0 -2.334490415E+02 -1.445460312E+02  2.704205330E+01  3.028997899E+02  1.250000000E+02  0.00000E+00  9.000E+00
      21     1     1     2   501   512 -1.293576394E+01  8.489193259E+00  6.572464067E+00  1.681064172E+01  2.064765462E-07  0.00000E+00  9.000E+00
#rwgt            1           1   2.9192378309717878E-002           3      247682           0
</event>
<event>
      5   9999  3.19816E-02  3.57548E+01 -1.00000E+00  1.47928E-01
      21    -1     0     0   502   501  0.000000000E+00  0.000000000E+00  1.921499582E+02  1.921499582E+02  0.000000000E+00  0.00000E+00  9.000E+00
      21    -1     0     0   501   511  0.000000000E+00  0.000000000E+00 -7.164974691E+02  7.164974691E+02  0.000000000E+00  0.00000E+00  9.000E+00
      25     1     1     2     0     0  7.424433458E+01  3.000492441E+02 -1.255274153E+02  3.562638097E+02  1.250000000E+02  0.00000E+00  9.000E+00
      25     1     1     2     0     0 -4.096862339E+01 -2.869674504E+02 -2.598010120E+02  4.088402029E+02  1.250000000E+02  0.00000E+00  9.000E+00
      21     1     1     2   502   511 -3.327571119E+01 -1.308179370E+01 -1.390190836E+02  1.435434146E+02  2.697398305E-06  0.00000E+00  9.000E+00
#rwgt            1           1   2.8336450363736453E-002           3      247890           0
</event>
<event>
      5   9999  3.19816E-02  7.28222E+01 -1.00000E+00  1.30357E-01
      21    -1     0     0   512   501  0.000000000E+00  0.000000000E+00  4.173878474E+02  4.173878474E+02  0.000000000E+00  0.00000E+00  9.000E+00
      21    -1     0     0   501   502  0.000000000E+00  0.000000000E+00 -9.826014074E+02  9.826014074E+02  0.000000000E+00  0.00000E+00  9.000E+00
      25     1     1     2     0     0 -4.318974591E+02 -9.928458386E+00 -6.735393220E+02  8.098853053E+02  1.250000000E+02  0.00000E+00  9.000E+00
      25     1     1     2     0     0  4.839634496E+02  6.084216782E+01  7.177811591E+01  5.086250956E+02  1.250000000E+02  0.00000E+00  9.000E+00
      21     1     1     2   512   502 -5.206599054E+01 -5.091370944E+01  3.654764617E+01  8.147885382E+01  6.743495762E-07  0.00000E+00  9.000E+00
#rwgt            1           1   2.6229556873403889E-002           3      247972           0
</event>
<event>
      5   9999  3.19816E-02  1.92098E+02 -1.00000E+00  1.12289E-01
      21    -1     0     0   502   501  0.000000000E+00  0.000000000E+00  2.641341426E+02  2.641341426E+02  0.000000000E+00  0.00000E+00  9.000E+00
      21    -1     0     0   511   502  0.000000000E+00  0.000000000E+00 -2.189486325E+03  2.189486325E+03  0.000000000E+00  0.00000E+00  9.000E+00
      25     1     1     2     0     0 -4.936297867E+02  9.756837712E+01 -9.763079026E+01  5.275857520E+02  1.250000000E+02  0.00000E+00  9.000E+00
      25     1     1     2     0     0  3.308345732E+02 -1.995460765E+02 -1.073545604E+03  1.147778426E+03  1.250000000E+02  0.00000E+00  9.000E+00
      21     1     1     2   511   501  1.627952135E+02  1.019776993E+02 -7.541757882E+02  7.782562895E+02  0.000000000E+00  0.00000E+00  9.000E+00
#rwgt            1           1   2.4389821740931128E-002           3      248055           0
</event>
<event>
      5   9999  3.19816E-02  2.09339E+01 -1.00000E+00  1.64750E-01
      21    -1     0     0   502   501  0.000000000E+00  0.000000000E+00  2.833909146E+02  2.833909146E+02  0.000000000E+00  0.00000E+00  9.000E+00
      21    -1     0     0   501   512  0.000000000E+00  0.000000000E+00 -2.130775582E+02  2.130775582E+02  0.000000000E+00  0.00000E+00  9.000E+00
      25     1     1     2     0     0 -1.691497852E+02  4.967572227E+01  1.452084736E+02  2.603647979E+02  1.250000000E+02  0.00000E+00  9.000E+00
      25     1     1     2     0     0  1.564405859E+02 -3.304125635E+01 -6.692499697E+01  2.137038529E+02  1.250000000E+02  0.00000E+00  9.000E+00
      21     1     1     2   502   512  1.270919927E+01 -1.663446592E+01 -7.970120257E+00  2.239982186E+01  3.769728732E-07  0.00000E+00  9.000E+00
#rwgt            1           1   2.7417225105197018E-002           3      248119           0
</event>
<event>
      5   9999  3.19816E-02  8.27784E+01 -1.00000E+00  1.27636E-01
      21    -1     0     0   511   501  0.000000000E+00  0.000000000E+00  3.668722605E+02  3.668722605E+02  0.000000000E+00  0.00000E+00  9.000E+00
      21    -1     0     0   501   502  0.000000000E+00  0.000000000E+00 -1.007280767E+03  1.007280767E+03  0.000000000E+00  0.00000E+00  9.000E+00
      25     1     1     2     0     0 -1.478379900E+02 -3.985835492E+01 -2.827806549E+01  1.996732549E+02  1.250000000E+02  0.00000E+00  9.000E+00
      25     1     1     2     0     0  9.872214218E+01 -2.677420120E+01 -8.796965354E+02  8.944014275E+02  1.250000000E+02  0.00000E+00  9.000E+00
      21     1     1     2   511   502  4.911584784E+01  6.663255612E+01  2.675660948E+02  2.800783446E+02  0.000000000E+00  0.00000E+00  9.000E+00
#rwgt            1           1   2.9395022003594860E-002           3      248257           0
</event>
<event>
      5   9999  3.19816E-02  2.85028E+01 -1.00000E+00  1.54600E-01
      21    -1     0     0   502   501  0.000000000E+00  0.000000000E+00  7.441971844E+02  7.441971844E+02  0.000000000E+00  0.00000E+00  9.000E+00
      21    -1     0     0   501   512  0.000000000E+00  0.000000000E+00 -8.472462416E+02  8.472462416E+02  0.000000000E+00  0.00000E+00  9.000E+00
      25     1     1     2     0     0 -9.321346104E+01  7.300741379E+02 -7.043789129E+01  7.498556479E+02  1.250000000E+02  0.00000E+00  9.000E+00
      25     1     1     2     0     0  8.328075958E+01 -7.567902577E+02  3.069378697E+01  7.721620864E+02  1.250000000E+02  0.00000E+00  9.000E+00
      21     1     1     2   502   512  9.932701465E+00  2.671611986E+01 -6.330495280E+01  6.942569170E+01  1.168007728E-06  0.00000E+00  9.000E+00
#rwgt            1           1   2.8773638303282043E-002           3      248317           0
</event>
<event>
      5   9999  3.19816E-02  8.64399E+02 -1.00000E+00  9.25366E-02
      21    -1     0     0   502   501  0.000000000E+00  0.000000000E+00  1.571098622E+03  1.571098622E+03  0.000000000E+00  0.00000E+00  9.000E+00
       2    -1     0     0   501     0  0.000000000E+00  0.000000000E+00 -1.262654267E+03  1.262654267E+03  0.000000000E+00  0.00000E+00  9.000E+00
      25     1     1     2     0     0  4.822862223E+02  3.321353693E+02 -8.059388513E+01  6.041806667E+02  1.250000000E+02  0.00000E+00  9.000E+00
      25     1     1     2     0     0 -1.302727354E+02  4.573401342E+02  1.038074316E+03  1.148631477E+03  1.250000000E+02  0.00000E+00  9.000E+00
       2     1     1     2   502     0 -3.520134868E+02 -7.894755035E+02 -6.490360758E+02  1.080940745E+03  1.525878906E-05  0.00000E+00  9.000E+00
#rwgt            2          13   9.0326684026190368E-004           3      248497           0
</event>
<event>
      5   9999  3.19816E-02  3.37012E+02 -1.00000E+00  1.03976E-01
       1    -1     0     0   502     0  0.000000000E+00  0.000000000E+00  3.983214291E+02  3.983214291E+02  0.000000000E+00  0.00000E+00  9.000E+00
      21    -1     0     0   501   502  0.000000000E+00  0.000000000E+00 -1.618542522E+03  1.618542522E+03  0.000000000E+00  0.00000E+00  9.000E+00
      25     1     1     2     0     0  3.482852164E+01  3.046537432E+02 -9.123698679E+02  9.706032686E+02  1.250000000E+02  0.00000E+00  9.000E+00
      25     1     1     2     0     0 -2.565223120E+02 -5.584825763E+02 -6.428776731E+01  6.304477787E+02  1.250000000E+02  0.00000E+00  9.000E+00
       1     1     1     2   501     0  2.216937903E+02  2.538288332E+02 -2.435634581E+02  4.158129043E+02  6.607249480E-06  0.00000E+00  9.000E+00
#rwgt            2          17   7.9302800462400499E-005           3      248531           0
</event>
<event>
      5   9999  3.19816E-02  3.00999E+01 -1.00000E+00  1.52940E-01
      21    -1     0     0   502   501  0.000000000E+00  0.000000000E+00  2.486471418E+02  2.486471418E+02  0.000000000E+00  0.00000E+00  9.000E+00
      21    -1     0     0   511   502  0.000000000E+00  0.000000000E+00 -7.506505303E+02  7.506505303E+02  0.000000000E+00  0.00000E+00  9.000E+00
      25     1     1     2     0     0 -2.863340966E+02  2.068809451E+02 -4.525007839E+02  5.875107656E+02  1.250000000E+02  0.00000E+00  9.000E+00
      25     1     1     2     0     0  2.677207513E+02 -2.305356550E+02 -3.008441520E+01  3.759669679E+02  1.250000000E+02  0.00000E+00  9.000E+00
      21     1     1     2   511   501  1.861334530E+01  2.365470992E+01 -1.941818933E+01  3.581993860E+01  5.331201500E-07  0.00000E+00  9.000E+00
#rwgt            1           1   3.1384838409710521E-002           3      248580           0
</event>
<event>
      5   9999  3.19816E-02  7.32689E+01 -1.00000E+00  1.30225E-01
      21    -1     0     0   512   501  0.000000000E+00  0.000000000E+00  1.244404912E+03  1.244404912E+03  0.000000000E+00  0.00000E+00  9.000E+00
      21    -1     0     0   501   502  0.000000000E+00  0.000000000E+00 -3.185628385E+02  3.185628385E+02  0.000000000E+00  0.00000E+00  9.000E+00
      25     1     1     2     0     0 -6.947151565E+01  5.526944098E+02  2.125412872E+02  6.091766582E+02  1.250000000E+02  0.00000E+00  9.000E+00
      25     1     1     2     0     0 -3.453895093E+00 -5.456080548E+02  6.237710824E+02  8.381022862E+02  1.250000000E+02  0.00000E+00  9.000E+00
      21     1     1     2   512   502  7.292541074E+01 -7.086355015E+00  8.952970368E+01  1.156888059E+02  0.000000000E+00  0.00000E+00  9.000E+00
#rwgt            1           1   2.7310406583670874E-002           3      248735           0
</event>
<event>
      5   9999  3.19816E-02  1.68832E+02 -1.00000E+00  1.14394E-01
       1    -1     0     0   502     0  0.000000000E+00  0.000000000E+00  2.656448347E+03  2.656448347E+03  0.000000000E+00  0.00000E+00  9.000E+00
      21    -1     0     0   501   502  0.000000000E+00  0.000000000E+00 -1.109884186E+02  1.109884186E+02  0.000000000E+00  0.00000E+00  9.000E+00
      25     1     1     2     0     0  3.153296945E+02  1.606284219E+02  1.297360170E+03  1.350556448E+03  1.250000000E+02  0.00000E+00  9.000E+00
      25     1     1     2     0     0 -3.183803500E+02 -3.294332779E+02  7.204856247E+02  8.629118537E+02  1.250000000E+02  0.00000E+00  9.000E+00
       1     1     1     2   501     0  3.050655505E+00  1.688048560E+02  5.276141336E+02  5.539684647E+02  1.078959322E-05  0.00000E+00  9.000E+00
#rwgt            2          17   4.3905694091035783E-004           3      248884           0
</event>
<event>
      5   9999  3.19816E-02  5.29118E+01 -1.00000E+00  1.37687E-01
      21    -1     0     0   502   501  0.000000000E+00  0.000000000E+00  1.632175716E+03  1.632175716E+03  0.000000000E+00  0.00000E+00  9.000E+00
      21    -1     0     0   501   511  0.000000000E+00  0.000000000E+00 -1.866116014E+02  1.866116014E+02  0.000000000E+00  0.00000E+00  9.000E+00
      25     1     1     2     0     0  3.834324210E+02  9.443329393E+01  1.181160711E+03  1.251680348E+03  1.250000000E+02  0.00000E+00  9.000E+00
      25     1     1     2     0     0 -4.263299961E+02 -6.345819519E+01  2.366262981E+02  5.073472312E+02  1.250000000E+02  0.00000E+00  9.000E+00
      21     1     1     2   502   511  4.289757508E+01 -3.097509873E+01  2.777710500E+01  5.975973771E+01  1.215700987E-06  0.00000E+00  9.000E+00
#rwgt            1           1   2.7966266573623333E-002           3      248963           0
</event>
<event>
      5   9999  3.19816E-02  3.74512E+01 -1.00000E+00  1.46636E-01
      21    -1     0     0   502   512  0.000000000E+00  0.000000000E+00  4.785933873E+01  4.785933873E+01  0.000000000E+00  0.00000E+00  9.000E+00
      21    -1     0     0   501   502  0.000000000E+00  0.000000000E+00 -2.367712544E+03  2.367712544E+03  0.000000000E+00  0.00000E+00  9.000E+00
      25     1     1     2     0     0  1.928923290E+02  3.825208479E+01 -1.874898139E+03  1.889322287E+03  1.250000000E+02  0.00000E+00  9.000E+00
      25     1     1     2     0     0 -1.810719691E+02 -2.715217492E+00 -4.350157829E+02  4.875019608E+02  1.250000000E+02  0.00000E+00  9.000E+00
      21     1     1     2   501   512 -1.182035985E+01 -3.553686729E+01 -9.939283117E+00  3.874763468E+01  1.099055345E-06  0.00000E+00  9.000E+00
#rwgt            1           1   8.2092990630569393E-002           3      249041           0
</event>
<event>
      5   9999  3.19816E-02  3.27896E+02 -1.00000E+00  1.04352E-01
      21    -1     0     0   502   511  0.000000000E+00  0.000000000E+00  3.205747630E+02  3.205747630E+02  0.000000000E+00  0.00000E+00  9.000E+00
      21    -1     0     0   501   502  0.000000000E+00  0.000000000E+00 -7.065470763E+02  7.065470763E+02  0.000000000E+00  0.00000E+00  9.000E+00
      25     1     1     2     0     0  3.191473524E+02  2.376949390E+02 -3.400917020E+02  5.381833166E+02  1.250000000E+02  0.00000E+00  9.000E+00
      25     1     1     2     0     0 -6.391598416E+01 -3.184795687E+01 -7.015563715E+01  1.601448058E+02  1.250000000E+02  0.00000E+00  9.000E+00
      21     1     1     2   501   511 -2.552313682E+02 -2.058469821E+02  2.427502579E+01  3.287937169E+02  0.000000000E+00  0.00000E+00  9.000E+00
#rwgt            1           1   2.6479264107748594E-002           3      249127           0
</event>
<event>
      5   9999  3.19816E-02  7.94008E+01 -1.00000E+00  1.28508E-01
      21    -1     0     0   512   501  0.000000000E+00  0.000000000E+00  1.050059607E+03  1.050059607E+03  0.000000000E+00  0.00000E+00  9.000E+00
      21    -1     0     0   501   502  0.000000000E+00  0.000000000E+00 -3.528938399E+02  3.528938399E+02  0.000000000E+00  0.00000E+00  9.000E+00
      25     1     1     2     0     0  1.977109260E+02  2.225471140E+02 -2.312639038E+02  3.971458440E+02  1.250000000E+02  0.00000E+00  9.000E+00
      25     1     1     2     0     0 -2.202875500E+02 -1.464236225E+02  5.947551207E+02  6.628160646E+02  1.250000000E+02  0.00000E+00  9.000E+00
      21     1     1     2   512   502  2.257662399E+01 -7.612349154E+01  3.336745501E+02  3.429915382E+02  0.000000000E+00  0.00000E+00  9.000E+00
#rwgt            1           1   2.8965014566744995E-002           3      249179           0
</event>
<event>
      5   9999  3.19816E-02  4.78387E+01 -1.00000E+00  1.40179E-01
      21    -1     0     0   511   501  0.000000000E+00  0.000000000E+00  1.596250002E+02  1.596250002E+02  0.000000000E+00  0.00000E+00  9.000E+00
      21    -1     0     0   501   502  0.000000000E+00  0.000000000E+00 -6.716245195E+02  6.716245195E+02  0.000000000E+00  0.00000E+00  9.000E+00
      25     1     1     2     0     0 -6.242546657E+01  2.599561463E+02 -3.450554879E+02  4.540511277E+02  1.250000000E+02  0.00000E+00  9.000E+00
      25     1     1     2     0     0  1.036519173E+02 -2.356884341E+02 -1.625686080E+02  3.291600070E+02  1.250000000E+02  0.00000E+00  9.000E+00
      21     1     1     2   511   502 -4.122645071E+01 -2.426771219E+01 -4.375423477E+00  4.803838490E+01  6.222907608E-07  0.00000E+00  9.000E+00
#rwgt            1           1   2.6569165217769936E-002           3      249281           0
</event>
<event>
      5   9999  3.19816E-02  9.09173E+01 -1.00000E+00  1.25717E-01
      21    -1     0     0   502   501  0.000000000E+00  0.000000000E+00  3.944151384E+02  3.944151384E+02  0.000000000E+00  0.00000E+00  9.000E+00
      21    -1     0     0   501   512  0.000000000E+00  0.000000000E+00 -5.689742235E+02  5.689742235E+02  0.000000000E+00  0.00000E+00  9.000E+00
      25     1     1     2     0     0  6.849215810E+01  3.082292319E+02  2.099768969E+02  3.992639883E+02  1.250000000E+02  0.00000E+00  9.000E+00
      25     1     1     2     0     0  2.586933894E+00 -2.515395797E+02 -1.632526745E+02  3.248927333E+02  1.250000000E+02  0.00000E+00  9.000E+00
      21     1     1     2   502   512 -7.107909199E+01 -5.668965217E+01 -2.212833076E+02  2.392326403E+02  0.000000000E+00  0.00000E+00  9.000E+00
#rwgt            1           1   2.6132694219443975E-002           3      249406           0
</event>
<event>
      5   9999  3.19816E-02  3.84869E+01 -1.00000E+00  1.45886E-01
      21    -1     0     0   502   511  0.000000000E+00  0.000000000E+00  6.951351441E+02  6.951351441E+02  0.000000000E+00  0.00000E+00  9.000E+00
      21    -1     0     0   501   502  0.000000000E+00  0.000000000E+00 -9.889500567E+01  9.889500567E+01  0.000000000E+00  0.00000E+00  9.000E+00
      25     1     1     2     0     0 -5.736175952E+01 -1.663343774E+02  1.233307319E+02  2.485819100E+02  1.250000000E+02  0.00000E+00  9.000E+00
      25     1     1     2     0     0  3.047801837E+01  1.938753884E+02  3.921272004E+02  4.559663553E+02  1.250000000E+02  0.00000E+00  9.000E+00
      21     1     1     2   501   511  2.688374115E+01 -2.754101102E+01  8.078220604E+01  8.948188441E+01  1.348699152E-06  0.00000E+00  9.000E+00
#rwgt            1           1   2.7644224784261692E-002           3      249529           0
</event>
<event>
      5   9999  3.19816E-02  1.28830E+02 -1.00000E+00  1.19074E-01
       2    -1     0     0   502     0  0.000000000E+00  0.000000000E+00  1.185605450E+03  1.185605450E+03  0.000000000E+00  0.00000E+00  9.000E+00
      21    -1     0     0   501   502  0.000000000E+00  0.000000000E+00 -6.452234337E+02  6.452234337E+02  0.000000000E+00  0.00000E+00  9.000E+00
      25     1     1     2     0     0 -7.927479883E+01  5.188094801E+02 -3.347091907E+02  6.349039397E+02  1.250000000E+02  0.00000E+00  9.000E+00
      25     1     1     2     0     0  1.837301950E+02 -4.434020650E+02  2.457189552E+02  5.535024668E+02  1.250000000E+02  0.00000E+00  9.000E+00
       2     1     1     2   501     0 -1.044553961E+02 -7.540741510E+01  6.293722514E+02  6.424224769E+02  1.078959322E-05  0.00000E+00  9.000E+00
#rwgt            1           1   2.7348948751688983E-002           3      249649           0
</event>
<event>
      5   9999  3.19816E-02  9.34120E+00 -1.00000E+00  1.99242E-01
      21    -1     0     0   502   501  0.000000000E+00  0.000000000E+00  2.502540716E+03  2.502540716E+03  0.000000000E+00  0.00000E+00  9.000E+00
      21    -1     0     0   511   502  0.000000000E+00  0.000000000E+00 -3.115272291E+02  3.115272291E+02  0.000000000E+00  0.00000E+00  9.000E+00
      25     1     1     2     0     0 -1.218775217E+02  2.947193733E+02  2.077633308E+03  2.105682503E+03  1.250000000E+02  0.00000E+00  9.000E+00
      25     1     1     2     0     0  1.136459260E+02 -2.991351220E+02  3.389591043E+02  4.826131910E+02  1.250000000E+02  0.00000E+00  9.000E+00
      21     1     1     2   511   501  8.231595653E+00  4.415748655E+00 -2.255789254E+02  2.257722516E+02  6.607249480E-06  0.00000E+00  9.000E+00
#rwgt            1           1   7.8275282596752357E-002           3      249730           0
</event>
<event>
      5   9999  3.19816E-02  2.08552E+01 -1.00000E+00  1.64883E-01
      21    -1     0     0   502   501  0.000000000E+00  0.000000000E+00  3.908637500E+02  3.908637500E+02  0.000000000E+00  0.00000E+00  9.000E+00
      21    -1     0     0   512   502  0.000000000E+00  0.000000000E+00 -2.911453164E+02  2.911453164E+02  0.000000000E+00  0.00000E+00  9.000E+00
      25     1     1     2     0     0  2.387987005E+02 -1.301417423E+02  2.140514953E+01  3.000747788E+02  1.250000000E+02  0.00000E+00  9.000E+00
      25     1     1     2     0     0 -2.380588262E+02  1.092996894E+02  1.360465664E+02  3.205496764E+02  1.250000000E+02  0.00000E+00  9.000E+00
      21     1     1     2   512   501 -7.398743357E-01  2.084205296E+01 -5.773328236E+01  6.138461108E+01  9.536743164E-07  0.00000E+00  9.000E+00
#rwgt            1           1   2.9516307172377625E-002           3      249907           0
</event>
<event>
      5   9999  3.19816E-02  2.93589E+01 -1.00000E+00  1.53694E-01
       2    -1     0     0   502     0  0.000000000E+00  0.000000000E+00  1.114930082E+03  1.114930082E+03  0.000000000E+00  0.00000E+00  9.000E+00
      21    -1     0     0   501   502  0.000000000E+00  0.000000000E+00 -3.880189860E+02  3.880189860E+02  0.000000000E+00  0.00000E+00  9.000E+00
      25     1     1     2     0     0  3.289339779E+01  1.261509047E+02  1.052121618E+03  1.067511558E+03  1.250000000E+02  0.00000E+00  9.000E+00
      25     1     1     2     0     0 -5.560969164E+01 -1.447497157E+02 -3.461601418E+02  3.993704569E+02  1.250000000E+02  0.00000E+00  9.000E+00
       2     1     1     2   501     0  2.271629386E+01  1.859881105E+01  2.094961975E+01  3.606705348E+01  6.307962682E-07  0.00000E+00  9.000E+00
#rwgt            1           1   2.9610196442622916E-002           3      250059           0
</event>
<event>
      5   9999  3.19816E-02  7.75964E+01 -1.00000E+00  1.28994E-01
      21    -1     0     0   511   501  0.000000000E+00  0.000000000E+00  1.939533414E+02  1.939533414E+02  0.000000000E+00  0.00000E+00  9.000E+00
      21    -1     0     0   501   502  0.000000000E+00  0.000000000E+00 -7.692526430E+02  7.692526430E+02  0.000000000E+00  0.00000E+00  9.000E+00
      25     1     1     2     0     0  2.139431814E+02 -1.593595363E+02 -9.972266467E+01  3.110253310E+02  1.250000000E+02  0.00000E+00  9.000E+00
      25     1     1     2     0     0 -2.804423900E+02  1.193713722E+02 -4.705735892E+02  5.744231554E+02  1.250000000E+02  0.00000E+00  9.000E+00
      21     1     1     2   511   502  6.649920853E+01  3.998816413E+01 -5.003047778E+00  7.775749799E+01  1.525459754E-06  0.00000E+00  9.000E+00
#rwgt            1           1   2.9187736490097642E-002           3      250176           0
</event>
<event>
      5   9999  3.19816E-02  3.61863E+01 -1.00000E+00  1.47592E-01
      21    -1     0     0   502   501  0.000000000E+00  0.000000000E+00  2.853653133E+02  2.853653133E+02  0.000000000E+00  0.00000E+00  9.000E+00
      21    -1     0     0   501   512  0.000000000E+00  0.000000000E+00 -6.420489423E+02  6.420489423E+02  0.000000000E+00  0.00000E+00  9.000E+00
      25     1     1     2     0     0 -1.602152391E+02  1.988823696E+02 -6.850399531E+01  2.924737888E+02  1.250000000E+02  0.00000E+00  9.000E+00
      25     1     1     2     0     0  1.485341512E+02 -2.331315057E+02  3.890380756E+01  3.058614053E+02  1.250000000E+02  0.00000E+00  9.000E+00
      21     1     1     2   502   512  1.168108787E+01  3.424913609E+01 -3.270834413E+02  3.290790615E+02  0.000000000E+00  0.00000E+00  9.000E+00
#rwgt            1           1   2.6568948880737488E-002           3      250250           0
</event>
<event>
      5   9999  3.19816E-02  1.72092E+01 -1.00000E+00  1.71941E-01
       1    -1     0     0   502     0  0.000000000E+00  0.000000000E+00  9.932148587E+02  9.932148587E+02  0.000000000E+00  0.00000E+00  9.000E+00
      21    -1     0     0   501   502  0.000000000E+00  0.000000000E+00 -4.068733575E+03  4.068733575E+03  0.000000000E+00  0.00000E+00  9.000E+00
      25     1     1     2     0     0 -1.744488008E+02 -7.469299607E+02 -2.805367827E+03  2.911022225E+03  1.250000000E+02  0.00000E+00  9.000E+00
      25     1     1     2     0     0  1.581287252E+02  7.414699590E+02 -1.088508244E+03  1.332387928E+03  1.250000000E+02  0.00000E+00  9.000E+00
       1     1     1     2   501     0  1.632007559E+01  5.460001707E+00  8.183573546E+02  8.185382803E+02  0.000000000E+00  0.00000E+00  9.000E+00
#rwgt            1           1   1.7339577706124699E-002           3      250340           0
</event>
<event>
      5   9999  3.19816E-02  6.43823E+02 -1.00000E+00  9.58298E-02
      21    -1     0     0   511   501  0.000000000E+00  0.000000000E+00  1.132817773E+03  1.132817773E+03  0.000000000E+00  0.00000E+00  9.000E+00
      21    -1     0     0   501   502  0.000000000E+00  0.000000000E+00 -5.760880683E+02  5.760880683E+02  0.000000000E+00  0.00000E+00  9.000E+00
      25     1     1     2     0     0 -3.756839494E+02  1.457034831E+02 -2.312907901E+02  4.811323772E+02  1.250000000E+02  0.00000E+00  9.000E+00
      25     1     1     2     0     0 -2.619544447E+02 -5.667796538E+01  2.118560437E+02  3.637863468E+02  1.250000000E+02  0.00000E+00  9.000E+00
      21     1     1     2   511   502  6.376383941E+02 -8.902551773E+01  5.761644513E+02  8.639871175E+02  1.868812365E-05  0.00000E+00  9.000E+00
#rwgt            2          11   2.5588813347375504E-003           3      250603           0
</event>
<event>
      5   9999  3.19816E-02  5.39884E+01 -1.00000E+00  1.37200E-01
      21    -1     0     0   502   501  0.000000000E+00  0.000000000E+00  3.467055032E+02  3.467055032E+02  0.000000000E+00  0.00000E+00  9.000E+00
      21    -1     0     0   512   502  0.000000000E+00  0.000000000E+00 -5.646397275E+02  5.646397275E+02  0.000000000E+00  0.00000E+00  9.000E+00
      25     1     1     2     0     0 -4.066314606E+01  1.324465399E+02 -1.611177796E+02  2.465350204E+02  1.250000000E+02  0.00000E+00  9.000E+00
      25     1     1     2     0     0 -1.266213311E+01 -1.240106121E+02  2.760084750E+02  3.276349185E+02  1.250000000E+02  0.00000E+00  9.000E+00
      21     1     1     2   512   501  5.332527917E+01 -8.435927734E+00 -3.328249197E+02  3.371752919E+02  6.607249480E-06  0.00000E+00  9.000E+00
#rwgt            1           1   2.8598637474502382E-002           3      250638           0
</event>
<event>
      5   9999  3.19816E-02  6.45540E+01 -1.00000E+00  1.33027E-01
      21    -1     0     0   511   501  0.000000000E+00  0.000000000E+00  9.890147385E+01  9.890147385E+01  0.000000000E+00  0.00000E+00  9.000E+00
      21    -1     0     0   501   502  0.000000000E+00  0.000000000E+00 -4.995286334E+02  4.995286334E+02  0.000000000E+00  0.00000E+00  9.000E+00
      25     1     1     2     0     0  1.106939950E+02  6.285434004E+01 -2.495546314E+02  3.067675710E+02  1.250000000E+02  0.00000E+00  9.000E+00
      25     1     1     2     0     0 -5.078889857E+01 -8.690842050E+01 -1.598479558E+02  2.265148003E+02  1.250000000E+02  0.00000E+00  9.000E+00
      21     1     1     2   511   502 -5.990509646E+01  2.405408045E+01  8.775427615E+00  6.514773594E+01  5.331201500E-07  0.00000E+00  9.000E+00
#rwgt            1           1   2.8122500677452596E-002           3      250711           0
</event>
<event>
      5   9999  3.19816E-02  4.03038E+01 -1.00000E+00  1.44637E-01
      21    -1     0     0   502   501  0.000000000E+00  0.000000000E+00  3.319752083E+02  3.319752083E+02  0.000000000E+00  0.00000E+00  9.000E+00
      21    -1     0     0   512   502  0.000000000E+00  0.000000000E+00 -3.217394796E+02  3.217394796E+02  0.000000000E+00  0.00000E+00  9.000E+00
      25     1     1     2     0     0  3.650825783E+01 -1.376042672E+02 -2.131036626E+02  2.851419966E+02  1.250000000E+02  0.00000E+00  9.000E+00
      25     1     1     2     0     0 -7.291422525E+01  1.203126829E+02  2.552775142E+02  3.171486011E+02  1.250000000E+02  0.00000E+00  9.000E+00
      21     1     1     2   512   501  3.640596742E+01  1.729158432E+01 -3.193812303E+01  5.142409022E+01  6.743495762E-07  0.00000E+00  9.000E+00
#rwgt            1           1   2.5212744530909548E-002           3      250745           0
</event>
<event>
      5   9999  3.19816E-02  1.20993E+01 -1.00000E+00  1.86653E-01
      21    -1     0     0   511   501  0.000000000E+00  0.000000000E+00  1.354207624E+02  1.354207624E+02  0.000000000E+00  0.00000E+00  9.000E+00
      21    -1     0     0   501   502  0.000000000E+00  0.000000000E+00 -2.779635310E+02  2.779635310E+02  0.000000000E+00  0.00000E+00  9.000E+00
      25     1     1     2     0     0  6.970846368E+01 -1.194023670E+02 -8.049329205E+01  2.030279912E+02  1.250000000E+02  0.00000E+00  9.000E+00
      25     1     1     2     0     0 -7.872734730E+01  1.113369056E+02 -6.772594640E+01  1.969916383E+02  1.250000000E+02  0.00000E+00  9.000E+00
      21     1     1     2   511   502  9.018883612E+00  8.065461415E+00  5.676469851E+00  1.336466383E+01  2.230201594E-07  0.00000E+00  9.000E+00
#rwgt            1           1   3.0915969056489870E-002           3      250846           0
</event>
<event>
      5   9999  3.19816E-02  1.32801E+01 -1.00000E+00  1.82516E-01
      21    -1     0     0   512   501  0.000000000E+00  0.000000000E+00  9.849158547E+01  9.849158547E+01  0.000000000E+00  0.00000E+00  9.000E+00
      21    -1     0     0   501   502  0.000000000E+00  0.000000000E+00 -7.593719485E+02  7.593719485E+02  0.000000000E+00  0.00000E+00  9.000E+00
      25     1     1     2     0     0 -1.689234729E+02  3.366612805E+01 -2.844141533E+02  3.552252221E+02  1.250000000E+02  0.00000E+00  9.000E+00
      25     1     1     2     0     0  1.626264500E+02 -2.197386209E+01 -4.141500541E+02  4.626829154E+02  1.250000000E+02  0.00000E+00  9.000E+00
      21     1     1     2   512   502  6.297022837E+00 -1.169226597E+01  3.768384436E+01  3.995539645E+01  6.743495762E-07  0.00000E+00  9.000E+00
#rwgt            1           1   2.5200700552619852E-002           3      251046           0
</event>
<event>
      5   9999  3.19816E-02  1.13676E+02 -1.00000E+00  1.21375E-01
      21    -1     0     0   502   501  0.000000000E+00  0.000000000E+00  7.822566126E+01  7.822566126E+01  0.000000000E+00  0.00000E+00  9.000E+00
       2    -1     0     0   501     0  0.000000000E+00  0.000000000E+00 -1.871306712E+03  1.871306712E+03  0.000000000E+00  0.00000E+00  9.000E+00
      25     1     1     2     0     0 -5.659134670E+01  8.932443365E+01 -9.929357716E+02  1.006343819E+03  1.250000000E+02  0.00000E+00  9.000E+00
      25     1     1     2     0     0  4.967981423E+00  1.195317553E+01  9.100677653E+00  1.259975459E+02  1.250000000E+02  0.00000E+00  9.000E+00
       2     1     1     2   502     0  5.162336528E+01 -1.012776092E+02 -8.092459567E+02  8.171910086E+02  1.078959322E-05  0.00000E+00  9.000E+00
#rwgt            1           1   2.8557415605509593E-002           3      251198           0
</event>
<event>
      5   9999  3.19816E-02  6.41115E+01 -1.00000E+00  1.33183E-01
      21    -1     0     0   502   511  0.000000000E+00  0.000000000E+00  6.421992505E+01  6.421992505E+01  0.000000000E+00  0.00000E+00  9.000E+00
      21    -1     0     0   501   502  0.000000000E+00  0.000000000E+00 -9.409889581E+02  9.409889581E+02  0.000000000E+00  0.00000E+00  9.000E+00
      25     1     1     2     0     0  1.378210362E+02  1.351655906E+02 -5.530911914E+02  5.989985316E+02  1.250000000E+02  0.00000E+00  9.000E+00
      25     1     1     2     0     0 -8.628692422E+01 -9.702743660E+01 -2.212200081E+02  2.853472423E+02  1.250000000E+02  0.00000E+00  9.000E+00
      21     1     1     2   501   511 -5.153411199E+01 -3.813815404E+01 -1.024578336E+02  1.208631092E+02  1.348699152E-06  0.00000E+00  9.000E+00
#rwgt            1           1   2.8479192139655229E-002           3      251251           0
</event>
<event>
      5   9999  3.19816E-02  3.86165E+01 -1.00000E+00  1.45795E-01
      21    -1     0     0   502   501  0.000000000E+00  0.000000000E+00  1.639298078E+03  1.639298078E+03  0.000000000E+00  0.00000E+00  9.000E+00
      21    -1     0     0   512   502  0.000000000E+00  0.000000000E+00 -4.285309675E+01  4.285309675E+01  0.000000000E+00  0.00000E+00  9.000E+00
      25     1     1     2     0     0  9.159878960E+01  1.160389308E+02  3.832684136E+02  4.293891575E+02  1.250000000E+02  0.00000E+00  9.000E+00
      25     1     1     2     0     0 -8.912799073E+01 -7.750153760E+01  1.199545222E+03  1.211810227E+03  1.250000000E+02  0.00000E+00  9.000E+00
      21     1     1     2   512   501 -2.470798870E+00 -3.853739317E+01  1.363134551E+01  4.095178995E+01  6.743495762E-07  0.00000E+00  9.000E+00
#rwgt            1           1   3.6079924264335123E-002           3      251329           0
</event>
<event>
      5   9999  3.19816E-02  1.02597E+02 -1.00000E+00  1.23329E-01
      21    -1     0     0   502   501  0.000000000E+00  0.000000000E+00  2.610709271E+02  2.610709271E+02  0.000000000E+00  0.00000E+00  9.000E+00
       3    -1     0     0   501     0  0.000000000E+00  0.000000000E+00 -3.238735259E+03  3.238735259E+03  0.000000000E+00  0.00000E+00  9.000E+00
      25     1     1     2     0     0 -1.554032266E+01 -7.595248963E+01 -1.246397543E+02  1.927961376E+02  1.250000000E+02  0.00000E+00  9.000E+00
      25     1     1     2     0     0  4.003449259E+01  1.755830251E+02  1.729917658E+02  2.792549199E+02  1.250000000E+02  0.00000E+00  9.000E+00
       3     1     1     2   502     0 -2.449416993E+01 -9.963053543E+01 -3.026016344E+03  3.027755129E+03  4.315837288E-05  0.00000E+00  9.000E+00
#rwgt            1           1   2.8007613263664466E-002           3      251415           0
</event>
<event>
      5   9999  3.19816E-02  1.07646E+02 -1.00000E+00  1.22406E-01
      -1    -1     0     0     0   501  0.000000000E+00  0.000000000E+00  2.385035596E+02  2.385035596E+02  0.000000000E+00  0.00000E+00  9.000E+00
      21    -1     0     0   501   502  0.000000000E+00  0.000000000E+00 -1.858676411E+03  1.858676411E+03  0.000000000E+00  0.00000E+00  9.000E+00
      25     1     1     2     0     0  2.319854271E+02  4.202764755E+02 -1.732675900E+02  5.254485817E+02  1.250000000E+02  0.00000E+00  9.000E+00
      25     1     1     2     0     0 -3.254402842E+02 -3.668556104E+02 -1.204571474E+03  1.306564906E+03  1.250000000E+02  0.00000E+00  9.000E+00
      -1     1     1     2     0   502  9.345485711E+01 -5.342086513E+01 -2.423337881E+02  2.651664836E+02  0.000000000E+00  0.00000E+00  9.000E+00
#rwgt            1           1   2.8179917945717881E-002           3      251465           0
</event>
<event>
      5   9999  3.19816E-02  1.31099E+01 -1.00000E+00  1.83077E-01
      21    -1     0     0   502   511  0.000000000E+00  0.000000000E+00  5.087467260E+02  5.087467260E+02  0.000000000E+00  0.00000E+00  9.000E+00
      21    -1     0     0   501   502  0.000000000E+00  0.000000000E+00 -1.052911955E+03  1.052911955E+03  0.000000000E+00  0.00000E+00  9.000E+00
      25     1     1     2     0     0 -2.621663164E+02 -3.618625819E+02 -7.150191334E+02  8.523808226E+02  1.250000000E+02  0.00000E+00  9.000E+00
      25     1     1     2     0     0  2.641219083E+02  3.748257866E+02 -5.911960838E+01  4.789309771E+02  1.250000000E+02  0.00000E+00  9.000E+00
      21     1     1     2   501   511 -1.955591860E+00 -1.296320473E+01  2.299735129E+02  2.303468811E+02  2.697398305E-06  0.00000E+00  9.000E+00
#rwgt            1           1   2.6597284445152154E-002           3      251538           0
</event>
<event>
      5   9999  3.19816E-02  4.29776E+01 -1.00000E+00  1.42932E-01
      21    -1     0     0   502   501  0.000000000E+00  0.000000000E+00  1.761300003E+03  1.761300003E+03  0.000000000E+00  0.00000E+00  9.000E+00
      21    -1     0     0   512   502  0.000000000E+00  0.000000000E+00 -1.042972172E+02  1.042972172E+02  0.000000000E+00  0.00000E+00  9.000E+00
      25     1     1     2     0     0  2.449800010E+02  1.513282496E+02  2.586189028E+02  4.067237108E+02  1.250000000E+02  0.00000E+00  9.000E+00
      25     1     1     2     0     0 -2.398569042E+02 -1.939993929E+02  1.363442939E+03  1.403484502E+03  1.250000000E+02  0.00000E+00  9.000E+00
      21     1     1     2   512   501 -5.123096809E+00  4.267114330E+01  3.494094359E+01  5.538900730E+01  6.743495762E-07  0.00000E+00  9.000E+00
#rwgt            1           1   2.6969667973421887E-002           3      251775           0
</event>
<event>
      5   9999  3.19816E-02  2.20681E+02 -1.00000E+00  1.10114E-01
      21    -1     0     0   502   501  0.000000000E+00  0.000000000E+00  1.164338638E+03  1.164338638E+03  0.000000000E+00  0.00000E+00  9.000E+00
      21    -1     0     0   501   511  0.000000000E+00  0.000000000E+00 -4.053873178E+02  4.053873178E+02  0.000000000E+00  0.00000E+00  9.000E+00
      25     1     1     2     0     0 -5.412103249E+01  6.582753019E+01  9.186202492E+02  9.309943674E+02  1.250000000E+02  0.00000E+00  9.000E+00
      25     1     1     2     0     0  2.376220138E+02  5.676001490E+01  1.052670473E+02  2.939252830E+02  1.250000000E+02  0.00000E+00  9.000E+00
      21     1     1     2   502   511 -1.835009813E+02 -1.225875451E+02 -2.649359766E+02  3.448063051E+02  0.000000000E+00  0.00000E+00  9.000E+00
#rwgt            1           1   2.9714939245005151E-002           3      251842           0
</event>
<event>
      5   9999  3.19816E-02  1.22930E+02 -1.00000E+00  1.19925E-01
      21    -1     0     0   502   501  0.000000000E+00  0.000000000E+00  4.246550059E+02  4.246550059E+02  0.000000000E+00  0.00000E+00  9.000E+00
      21    -1     0     0   501   512  0.000000000E+00  0.000000000E+00 -2.107331692E+02  2.107331692E+02  0.000000000E+00  0.00000E+00  9.000E+00
      25     1     1     2     0     0 -1.891294675E+01  5.133509925E+00  3.011174671E+02  3.266202404E+02  1.250000000E+02  0.00000E+00  9.000E+00
      25     1     1     2     0     0 -6.626956342E+01 -9.376589592E+01 -7.389928200E+01  1.851210473E+02  1.250000000E+02  0.00000E+00  9.000E+00
      21     1     1     2   502   512  8.518251016E+01  8.863238599E+01 -1.329634839E+01  1.236468874E+02  2.431401974E-06  0.00000E+00  9.000E+00
#rwgt            1           1   2.8714967737507344E-002           3      251927           0
</event>
<event>
      5   9999  3.38384E-02  9.94413E+01 -1.00000E+00  1.23937E-01
      21    -1     0     0   511   501  0.000000000E+00  0.000000000E+00  5.975597248E+01  5.975597248E+01  0.000000000E+00  0.00000E+00  9.000E+00
      21    -1     0     0   501   502  0.000000000E+00  0.000000000E+00 -1.990225285E+03  1.990225285E+03  0.000000000E+00  0.00000E+00  9.000E+00
      25     1     1     2     0     0 -1.351852613E+02  2.684726989E+01 -5.297619823E+02  5.614878348E+02  1.250000000E+02  0.00000E+00  9.000E+00
      25     1     1     2     0     0  2.168939364E+02 -8.352404718E+01 -1.352458184E+03  1.377964943E+03  1.250000000E+02  0.00000E+00  9.000E+00
      21     1     1     2   511   502 -8.170867514E+01  5.667677729E+01 -4.824914695E+01  1.105284799E+02  3.754619538E-06  0.00000E+00  9.000E+00
#rwgt            1           1  0.10303909281533528                3      251979           0
</event>
<event>
      5   9999  3.19816E-02  2.28670E+01 -1.00000E+00  1.61708E-01
       2    -1     0     0   502     0  0.000000000E+00  0.000000000E+00  1.709019096E+02  1.709019096E+02  0.000000000E+00  0.00000E+00  9.000E+00
      21    -1     0     0   501   502  0.000000000E+00  0.000000000E+00 -1.830596607E+03  1.830596607E+03  0.000000000E+00  0.00000E+00  9.000E+00
      25     1     1     2     0     0 -4.542943012E+02  2.145545948E+01 -3.647215959E+02  5.962302335E+02  1.250000000E+02  0.00000E+00  9.000E+00
      25     1     1     2     0     0  4.771612128E+02 -2.141178577E+01 -1.290828021E+03  1.382028678E+03  1.250000000E+02  0.00000E+00  9.000E+00
       2     1     1     2   501     0 -2.286691168E+01 -4.367370964E-02 -4.145080887E+00  2.323960526E+01  5.161913656E-07  0.00000E+00  9.000E+00
#rwgt            1           1   2.3756444527051959E-002           3      252060           0
</event>
<event>
      5   9999  3.19816E-02  1.37362E+02 -1.00000E+00  1.17929E-01
      21    -1     0     0   511   501  0.000000000E+00  0.000000000E+00  1.855266067E+03  1.855266067E+03  0.000000000E+00  0.00000E+00  9.000E+00
      21    -1     0     0   501   502  0.000000000E+00  0.000000000E+00 -1.059649423E+03  1.059649423E+03  0.000000000E+00  0.00000E+00  9.000E+00
      25     1     1     2     0     0  7.092059587E+02 -3.917342040E+02 -7.099332393E+02  1.084462532E+03  1.250000000E+02  0.00000E+00  9.000E+00
      25     1     1     2     0     0 -5.947184688E+02  3.158337770E+02  5.879707002E+02  9.026491988E+02  1.250000000E+02  0.00000E+00  9.000E+00
      21     1     1     2   511   502 -1.144874899E+02  7.590042695E+01  9.175791829E+02  9.278037600E+02  0.000000000E+00  0.00000E+00  9.000E+00
#rwgt            2          11   2.5989130493182682E-003           3      252466           0
</event>
<event>
      5   9999  3.19816E-02  1.49889E+01 -1.00000E+00  1.77414E-01
      21    -1     0     0   502   501  0.000000000E+00  0.000000000E+00  3.196303388E+03  3.196303388E+03  0.000000000E+00  0.00000E+00  9.000E+00
      21    -1     0     0   501   512  0.000000000E+00  0.000000000E+00 -8.334473161E+01  8.334473161E+01  0.000000000E+00  0.00000E+00  9.000E+00
      25     1     1     2     0     0  2.847518281E+02 -3.694797132E+02  1.192876665E+03  1.286926027E+03  1.250000000E+02  0.00000E+00  9.000E+00
      25     1     1     2     0     0 -2.792968821E+02  3.834407603E+02  1.915089724E+03  1.976923675E+03  1.250000000E+02  0.00000E+00  9.000E+00
      21     1     1     2   502   512 -5.454946036E+00 -1.396104713E+01  4.992268022E+00  1.579841806E+01  4.878850443E-07  0.00000E+00  9.000E+00
#rwgt            1           1   3.3358238836619210E-002           3      252501           0
</event>
<event>
      5   9999  3.19816E-02  5.12627E+01 -1.00000E+00  1.38460E-01
      21    -1     0     0   502   511  0.000000000E+00  0.000000000E+00  3.347171784E+02  3.347171784E+02  0.000000000E+00  0.00000E+00  9.000E+00
      21    -1     0     0   501   502  0.000000000E+00  0.000000000E+00 -6.341565551E+02  6.341565551E+02  0.000000000E+00  0.00000E+00  9.000E+00
      25     1     1     2     0     0 -2.175163553E+01 -2.460428935E+02  2.777741011E+01  2.782208181E+02  1.250000000E+02  0.00000E+00  9.000E+00
      25     1     1     2     0     0  7.272380249E+01  2.405925166E+02 -4.652686153E+02  5.433906467E+02  1.250000000E+02  0.00000E+00  9.000E+00
      21     1     1     2   501   511 -5.097216696E+01  5.450376895E+00  1.380518286E+02  1.472622687E+02  3.303624740E-06  0.00000E+00  9.000E+00
#rwgt            1           1   2.7124282118613532E-002           3      252714           0
</event>
<event>
      5   9999  3.19816E-02  2.03857E+02 -1.00000E+00  1.11347E-01
       1    -1     0     0   502     0  0.000000000E+00  0.000000000E+00  4.422820326E+03  4.422820326E+03  0.000000000E+00  0.00000E+00  9.000E+00
      21    -1     0     0   501   502  0.000000000E+00  0.000000000E+00 -2.800096654E+02  2.800096654E+02  0.000000000E+00  0.00000E+00  9.000E+00
      25     1     1     2     0     0 -2.760700680E+02 -6.087451238E+02  5.343167020E+02  8.648148046E+02  1.250000000E+02  0.00000E+00  9.000E+00
      25     1     1     2     0     0  2.769558613E+02  4.048904138E+02  4.633283264E+02  6.862499066E+02  1.250000000E+02  0.00000E+00  9.000E+00
       1     1     1     2   501     0 -8.857932745E-01  2.038547100E+02  3.145165632E+03  3.151765280E+03  0.000000000E+00  0.00000E+00  9.000E+00
#rwgt            1           1   2.9933316855445032E-002           3      252824           0
</event>
<event>
      5   9999  3.19816E-02  1.37518E+02 -1.00000E+00  1.17909E-01
       1    -1     0     0   502     0  0.000000000E+00  0.000000000E+00  2.072711257E+03  2.072711257E+03  0.000000000E+00  0.00000E+00  9.000E+00
      21    -1     0     0   501   502  0.000000000E+00  0.000000000E+00 -3.078380000E+01  3.078380000E+01  0.000000000E+00  0.00000E+00  9.000E+00
      25     1     1     2     0     0 -8.324295146E+01  3.124503820E+00  6.594558150E+02  6.763476351E+02  1.250000000E+02  0.00000E+00  9.000E+00
      25     1     1     2     0     0  1.148375943E+02  1.307153836E+02  9.229811972E+02  9.475196436E+02  1.250000000E+02  0.00000E+00  9.000E+00
       1     1     1     2   501     0 -3.159464282E+01 -1.338398874E+02  4.594904447E+02  4.796277782E+02  5.394796609E-06  0.00000E+00  9.000E+00
#rwgt            1           1   2.8117354726973260E-002           3      252945           0
</event>
<event>
      5   9999  3.19816E-02  2.56057E+01 -1.00000E+00  1.57976E-01
      21    -1     0     0   502   511  0.000000000E+00  0.000000000E+00  4.391511077E+02  4.391511077E+02  0.000000000E+00  0.00000E+00  9.000E+00
      21    -1     0     0   501   502  0.000000000E+00  0.000000000E+00 -1.556097874E+02  1.556097874E+02  0.000000000E+00  0.00000E+00  9.000E+00
      25     1     1     2     0     0  7.430547954E+01  1.687946693E+02  2.527413812E+02  3.369215791E+02  1.250000000E+02  0.00000E+00  9.000E+00
      25     1     1     2     0     0 -5.122858302E+01 -1.798901061E+02  1.058390017E+01  2.252150904E+02  1.250000000E+02  0.00000E+00  9.000E+00
      21     1     1     2   501   511 -2.307689652E+01  1.109543677E+01  2.021603890E+01  3.262422565E+01  0.000000000E+00  0.00000E+00  9.000E+00
#rwgt            1           1   2.7376094659026972E-002           3      252985           0
</event>
<event>
      5   9999  3.19816E-02  1.02893E+02 -1.00000E+00  1.23273E-01
      -2    -1     0     0     0   501  0.000000000E+00  0.000000000E+00  9.378099280E+02  9.378099280E+02  0.000000000E+00  0.00000E+00  9.000E+00
      21    -1     0     0   501   502  0.000000000E+00  0.000000000E+00 -8.484173455E+01  8.484173455E+01  0.000000000E+00  0.00000E+00  9.000E+00
      25     1     1     2     0     0  4.831084913E+01  3.856247335E+01  6.041605374E+02  6.200451254E+02  1.250000000E+02  0.00000E+00  9.000E+00
      25     1     1     2     0     0 -8.806475678E+01  5.634080971E+01  3.696231157E+01  1.670954838E+02  1.250000000E+02  0.00000E+00  9.000E+00
      -2     1     1     2     0   502  3.975390766E+01 -9.490328306E+01  2.118453445E+02  2.355110535E+02  4.672030912E-06  0.00000E+00  9.000E+00
#rwgt            1           1   2.6794794480377981E-002           3      253161           0
</event>
<event>
      5   9999  3.19816E-02  7.30518E+01 -1.00000E+00  1.30289E-01
      21    -1     0     0   502   501  0.000000000E+00  0.000000000E+00  1.605896805E+02  1.605896805E+02  0.000000000E+00  0.00000E+00  9.000E+00
      21    -1     0     0   511   502  0.000000000E+00  0.000000000E+00 -2.542753439E+02  2.542753439E+02  0.000000000E+00  0.00000E+00  9.000E+00
      25     1     1     2     0     0 -1.108423131E+02 -5.678702798E+01 -9.003764725E+01  1.980973570E+02  1.250000000E+02  0.00000E+00  9.000E+00
      25     1     1     2     0     0  3.924329578E+01  4.229048961E+01  2.184766113E+01  1.393945554E+02  1.250000000E+02  0.00000E+00  9.000E+00
      21     1     1     2   511   501  7.159901735E+01  1.449653837E+01 -2.549567722E+01  7.737311204E+01  1.066240300E-06  0.00000E+00  9.000E+00
#rwgt            1           1   2.8782599123503297E-002           3      253208           0
</event>
<event>
      5   9999  3.19816E-02  2.77492E+02 -1.00000E+00  1.06704E-01
      21    -1     0     0   502   512  0.000000000E+00  0.000000000E+00  4.307669857E+02  4.307669857E+02  0.000000000E+00  0.00000E+00  9.000E+00
      21    -1     0     0   501   502  0.000000000E+00  0.000000000E+00 -1.380037469E+03  1.380037469E+03  0.000000000E+00  0.00000E+00  9.000E+00
      25     1     1     2     0     0  2.625438286E+02 -4.094023646E+01 -2.853809594E+02  4.094785182E+02  1.250000000E+02  0.00000E+00  9.000E+00
      25     1     1     2     0     0 -3.351757510E+02 -2.268780904E+02 -9.268283595E+02  1.019044778E+03  1.250000000E+02  0.00000E+00  9.000E+00
      21     1     1     2   501   512  7.263192233E+01  2.678183269E+02  2.629388358E+02  3.822811580E+02  6.607249480E-06  0.00000E+00  9.000E+00
#rwgt            1           1   3.5523212539383731E-002           3      253268           0
</event>
<event>
      5   9999  3.19816E-02  3.16818E+02 -1.00000E+00  1.04828E-01
      21    -1     0     0   502   501  0.000000000E+00  0.000000000E+00  1.336111329E+03  1.336111329E+03  0.000000000E+00  0.00000E+00  9.000E+00
      21    -1     0     0   501   511  0.000000000E+00  0.000000000E+00 -1.869144174E+02  1.869144174E+02  0.000000000E+00  0.00000E+00  9.000E+00
      25     1     1     2     0     0 -3.535722335E+02  4.634092527E+01  3.222888167E+02  4.966446285E+02  1.250000000E+02  0.00000E+00  9.000E+00
      25     1     1     2     0     0  1.054739180E+02  1.506892804E+02  5.907707898E+02  6.312425308E+02  1.250000000E+02  0.00000E+00  9.000E+00
      21     1     1     2   502   511  2.480983155E+02 -1.970302057E+02  2.361373048E+02  3.951385868E+02  2.697398305E-06  0.00000E+00  9.000E+00
#rwgt            2          11   3.2645586160051417E-003           3      253300           0
</event>
<event>
      5   9999  3.19816E-02  2.26411E+02 -1.00000E+00  1.09722E-01
       4    -1     0     0   502     0  0.000000000E+00  0.000000000E+00  8.182893261E+02  8.182893261E+02  0.000000000E+00  0.00000E+00  9.000E+00
      21    -1     0     0   501   502  0.000000000E+00  0.000000000E+00 -5.311191058E+02  5.311191058E+02  0.000000000E+00  0.00000E+00  9.000E+00
      25     1     1     2     0     0 -3.880485349E+02 -8.238629320E+01 -1.762702725E+02  4.517359579E+02  1.250000000E+02  0.00000E+00  9.000E+00
      25     1     1     2     0     0  3.287940017E+02 -1.361328780E+02 -5.191968921E+00  3.772129539E+02  1.250000000E+02  0.00000E+00  9.000E+00
       4     1     1     2   501     0  5.925453315E+01  2.185191712E+02  4.686324617E+02  5.204595201E+02  5.394796609E-06  0.00000E+00  9.000E+00
#rwgt            1           1   2.5615973969758121E-002           3      253320           0
</event>
<event>
      5   9999  3.19816E-02  1.95454E+02 -1.00000E+00  1.12013E-01
      21    -1     0     0   502   501  0.000000000E+00  0.000000000E+00  8.080251240E+02  8.080251240E+02  0.000000000E+00  0.00000E+00  9.000E+00
       3    -1     0     0   501     0  0.000000000E+00  0.000000000E+00 -5.885316859E+02  5.885316859E+02  0.000000000E+00  0.00000E+00  9.000E+00
      25     1     1     2     0     0 -2.906471221E+02  3.374678286E+02  3.915631072E+02  6.060585383E+02  1.250000000E+02  0.00000E+00  9.000E+00
      25     1     1     2     0     0  4.738140704E+02 -2.692614050E+02 -5.301072132E+01  5.616374400E+02  1.250000000E+02  0.00000E+00  9.000E+00
       3     1     1     2   502     0 -1.831669483E+02 -6.820642366E+01 -1.190589478E+02  2.288608315E+02  3.814697266E-06  0.00000E+00  9.000E+00
#rwgt            1           1   2.8198228753978514E-002           3      253363           0
</event>
<event>
      5   9999  3.19816E-02  2.88362E+01 -1.00000E+00  1.54243E-01
      21    -1     0     0   502   501  0.000000000E+00  0.000000000E+00  5.607097386E+01  5.607097386E+01  0.000000000E+00  0.00000E+00  9.000E+00
      21    -1     0     0   501   511  0.000000000E+00  0.000000000E+00 -4.915673838E+02  4.915673838E+02  0.000000000E+00  0.00000E+00  9.000E+00
      25     1     1     2     0     0 -6.080963607E+01  4.473603132E+01 -1.596791846E+02  2.163829160E+02  1.250000000E+02  0.00000E+00  9.000E+00
      25     1     1     2     0     0  7.145990077E+01 -1.793863943E+01 -1.800369181E+02  2.312284673E+02  1.250000000E+02  0.00000E+00  9.000E+00
      21     1     1     2   502   511 -1.065026470E+01 -2.679739189E+01 -9.578030723E+01  1.000269744E+02  1.348699152E-06  0.00000E+00  9.000E+00
#rwgt            1           1   3.9078245212489718E-002           3      253435           0
</event>
<event>
      5   9999  3.19816E-02  1.42857E+02 -1.00000E+00  1.17240E-01
       2    -1     0     0   502     0  0.000000000E+00  0.000000000E+00  1.057104980E+03  1.057104980E+03  0.000000000E+00  0.00000E+00  9.000E+00
      21    -1     0     0   501   502  0.000000000E+00  0.000000000E+00 -7.650201418E+02  7.650201418E+02  0.000000000E+00  0.00000E+00  9.000E+00
      25     1     1     2     0     0  5.181289558E+02 -2.100532330E+02  7.549002830E+01  5.778440273E+02  1.250000000E+02  0.00000E+00  9.000E+00
      25     1     1     2     0     0 -3.906494225E+02  2.745284417E+02 -3.849998086E+02  6.259574180E+02  1.250000000E+02  0.00000E+00  9.000E+00
       2     1     1     2   501     0 -1.274795333E+02 -6.447520864E+01  6.015946181E+02  6.183236761E+02  7.629394531E-06  0.00000E+00  9.000E+00
#rwgt            1           1   3.0072451590913055E-002           3      253535           0
</event>
<event>
      5   9999  3.19816E-02  6.63361E+01 -1.00000E+00  1.32414E-01
      21    -1     0     0   502   501  0.000000000E+00  0.000000000E+00  3.179740180E+02  3.179740180E+02  0.000000000E+00  0.00000E+00  9.000E+00
       4    -1     0     0   501     0  0.000000000E+00  0.000000000E+00 -6.209109605E+02  6.209109605E+02  0.000000000E+00  0.00000E+00  9.000E+00
      25     1     1     2     0     0  9.502685196E+01  1.470416289E+02 -3.960402128E+02  4.506930146E+02  1.250000000E+02  0.00000E+00  9.000E+00
      25     1     1     2     0     0 -1.555694329E+02 -1.741539476E+02  2.204470203E+02  3.446060572E+02  1.250000000E+02  0.00000E+00  9.000E+00
       4     1     1     2   502     0  6.054258092E+01  2.711231868E+01 -1.273437500E+02  1.435859067E+02  2.697398305E-06  0.00000E+00  9.000E+00
#rwgt            1           1   2.8878440684909527E-002           3      253596           0
</event>
<event>
      5   9999  3.19816E-02  4.23541E+01 -1.00000E+00  1.43317E-01
      21    -1     0     0   511   501  0.000000000E+00  0.000000000E+00  5.471764760E+02  5.471764760E+02  0.000000000E+00  0.00000E+00  9.000E+00
      21    -1     0     0   501   502  0.000000000E+00  0.000000000E+00 -2.397351204E+02  2.397351204E+02  0.000000000E+00  0.00000E+00  9.000E+00
      25     1     1     2     0     0 -1.612346190E+02 -2.453093181E+01 -1.599532325E+02  2.604004715E+02  1.250000000E+02  0.00000E+00  9.000E+00
      25     1     1     2     0     0  1.386668149E+02 -1.130988497E+01  4.339648147E+02  4.725535520E+02  1.250000000E+02  0.00000E+00  9.000E+00
      21     1     1     2   511   502  2.256780409E+01  3.584081678E+01  3.342977343E+01  5.395757296E+01  1.066240300E-06  0.00000E+00  9.000E+00
#rwgt            1           1   2.7757141921746619E-002           3      253688           0
</event>
<event>
      5   9999  3.19816E-02  2.47441E+01 -1.00000E+00  1.59086E-01
      21    -1     0     0   502   501  0.000000000E+00  0.000000000E+00  2.505789053E+02  2.505789053E+02  0.000000000E+00  0.00000E+00  9.000E+00
      21    -1     0     0   501   512  0.000000000E+00  0.000000000E+00 -8.690431808E+02  8.690431808E+02  0.000000000E+00  0.00000E+00  9.000E+00
      25     1     1     2     0     0 -2.614477493E+02 -2.344016171E+00 -8.145986598E+01  3.010334364E+02  1.250000000E+02  0.00000E+00  9.000E+00
      25     1     1     2     0     0  2.785665889E+02  2.021068445E+01 -2.612243467E+01  3.071077951E+02  1.250000000E+02  0.00000E+00  9.000E+00
      21     1     1     2   502   512 -1.711883958E+01 -1.786666828E+01 -5.108819748E+02  5.114808547E+02  0.000000000E+00  0.00000E+00  9.000E+00
#rwgt            1           1   2.7254981503854119E-002           3      253797           0
</event>
<event>
      5   9999  3.19816E-02  5.41332E+01 -1.00000E+00  1.37136E-01
      21    -1     0     0   511   501  0.000000000E+00  0.000000000E+00  4.412948444E+01  4.412948444E+01  0.000000000E+00  0.00000E+00  9.000E+00
      21    -1     0     0   501   502  0.000000000E+00  0.000000000E+00 -8.409751273E+02  8.409751273E+02  0.000000000E+00  0.00000E+00  9.000E+00
      25     1     1     2     0     0  3.100096237E+01  6.672413408E+01 -5.564855033E+02  5.750776340E+02  1.250000000E+02  0.00000E+00  9.000E+00
      25     1     1     2     0     0 -4.936082588E+01 -1.579954541E+01 -1.327174034E+02  1.895389826E+02  1.250000000E+02  0.00000E+00  9.000E+00
      21     1     1     2   511   502  1.835986352E+01 -5.092458867E+01 -1.076427362E+02  1.204879951E+02  1.907348633E-06  0.00000E+00  9.000E+00
#rwgt            1           1   2.5003475512039627E-002           3      253885           0
</event>
<event>
      5   9999  3.20184E-02  4.18755E+01 -1.00000E+00  1.43617E-01
      21    -1     0     0   502   501  0.000000000E+00  0.000000000E+00  5.962914490E+02  5.962914490E+02  0.000000000E+00  0.00000E+00  9.000E+00
      21    -1     0     0   512   502  0.000000000E+00  0.000000000E+00 -1.341880278E+03  1.341880278E+03  0.000000000E+00  0.00000E+00  9.000E+00
      25     1     1     2     0     0 -8.049151952E+02 -1.767865432E+02 -6.788823058E+02  1.075010762E+03  1.250000000E+02  0.00000E+00  9.000E+00
      25     1     1     2     0     0  7.793798422E+02  1.435976191E+02 -2.299095329E+01  8.026249426E+02  1.250000000E+02  0.00000E+00  9.000E+00
      21     1     1     2   512   501  2.553535297E+01  3.318892404E+01 -4.371556946E+01  6.053602187E+01  8.259061849E-07  0.00000E+00  9.000E+00
#rwgt            1           1   3.2343966702773314E-002           3      253925           0
</event>
<event>
      5   9999  3.19816E-02  5.90266E+01 -1.00000E+00  1.35084E-01
      21    -1     0     0   502   501  0.000000000E+00  0.000000000E+00  2.814226329E+02  2.814226329E+02  0.000000000E+00  0.00000E+00  9.000E+00
      21    -1     0     0   501   511  0.000000000E+00  0.000000000E+00 -6.987294304E+02  6.987294304E+02  0.000000000E+00  0.00000E+00  9.000E+00
      25     1     1     2     0     0 -1.781257034E+02 -2.738034907E+02 -6.110924282E+01  3.550443033E+02  1.250000000E+02  0.00000E+00  9.000E+00
      25     1     1     2     0     0  2.368470320E+02  2.797990624E+02 -1.579835282E+02  4.182915575E+02  1.250000000E+02  0.00000E+00  9.000E+00
      21     1     1     2   502   511 -5.872132863E+01 -5.995571747E+00 -1.982140265E+02  2.068162025E+02  2.697398305E-06  0.00000E+00  9.000E+00
#rwgt            1           1   2.8309009044827832E-002           3      254187           0
</event>
<event>
      5   9999  3.19816E-02  1.57390E+01 -1.00000E+00  1.75438E-01
      21    -1     0     0   502   501  0.000000000E+00  0.000000000E+00  6.001882981E+02  6.001882981E+02  0.000000000E+00  0.00000E+00  9.000E+00
      21    -1     0     0   501   512  0.000000000E+00  0.000000000E+00 -2.876488036E+03  2.876488036E+03  0.000000000E+00  0.00000E+00  9.000E+00
      25     1     1     2     0     0  1.219041133E+03  3.072226333E+02 -8.936591606E+02  1.547481413E+03  1.250000000E+02  0.00000E+00  9.000E+00
      25     1     1     2     0     0 -1.230386869E+03 -3.181308842E+02 -1.220980062E+03  1.766770052E+03  1.250000000E+02  0.00000E+00  9.000E+00
      21     1     1     2   502   512  1.134573606E+01  1.090825091E+01 -1.616605155E+02  1.624248686E+02  1.907348633E-06  0.00000E+00  9.000E+00
#rwgt            1           1   4.2857218003783622E-002           3      254291           0
</event>
<event>
      5   9999  3.19816E-02  7.54633E+01 -1.00000E+00  1.29589E-01
      21    -1     0     0   511   501  0.000000000E+00  0.000000000E+00  5.996428636E+02  5.996428636E+02  0.000000000E+00  0.00000E+00  9.000E+00
      21    -1     0     0   501   502  0.000000000E+00  0.000000000E+00 -1.213219053E+03  1.213219053E+03  0.000000000E+00  0.00000E+00  9.000E+00
      25     1     1     2     0     0  6.585156787E+01  7.363115033E+01 -9.670735145E+02  9.801092581E+02  1.250000000E+02  0.00000E+00  9.000E+00
      25     1     1     2     0     0 -9.548387652E+01 -1.430330915E+02 -1.893411038E+02  2.846940279E+02  1.250000000E+02  0.00000E+00  9.000E+00
      21     1     1     2   511   502  2.963230864E+01  6.940194114E+01  5.428384287E+02  5.480586308E+02  1.078959322E-05  0.00000E+00  9.000E+00
#rwgt            1           1   2.6087318333728703E-002           3      254603           0
</event>
<event>
      5   9999  3.19816E-02  6.04747E+01 -1.00000E+00  1.34521E-01
      21    -1     0     0   502   501  0.000000000E+00  0.000000000E+00  2.696843412E+02  2.696843412E+02  0.000000000E+00  0.00000E+00  9.000E+00
      21    -1     0     0   512   502  0.000000000E+00  0.000000000E+00 -2.495267018E+02  2.495267018E+02  0.000000000E+00  0.00000E+00  9.000E+00
      25     1     1     2     0     0 -8.255228437E+01 -1.354768538E+02  4.150697223E+01  2.061957476E+02  1.250000000E+02  0.00000E+00  9.000E+00
      25     1     1     2     0     0  1.018486015E+02  1.927903656E+02 -1.030338138E+01  2.515401009E+02  1.250000000E+02  0.00000E+00  9.000E+00
      21     1     1     2   512   501 -1.929631716E+01 -5.731351178E+01 -1.104595148E+01  6.147519445E+01  9.830249847E-07  0.00000E+00  9.000E+00
#rwgt            1           1   2.7508574170490730E-002           3      254675           0
</event>
<event>
      5   9999  3.19816E-02  3.71067E+01 -1.00000E+00  1.46892E-01
      21    -1     0     0   502   501  0.000000000E+00  0.000000000E+00  6.851551626E+02  6.851551626E+02  0.000000000E+00  0.00000E+00  9.000E+00
       2    -1     0     0   501     0  0.000000000E+00  0.000000000E+00 -8.059202073E+02  8.059202073E+02  0.000000000E+00  0.00000E+00  9.000E+00
      25     1     1     2     0     0  4.528673623E+01  1.312194491E+02  5.666457733E+02  5.966421580E+02  1.250000000E+02  0.00000E+00  9.000E+00
      25     1     1     2     0     0 -2.339553050E+01 -1.012580770E+02  3.892129176E+01  1.671538691E+02  1.250000000E+02  0.00000E+00  9.000E+00
       2     1     1     2   502     0 -2.189120573E+01 -2.996137211E+01 -7.263321098E+02  7.272793428E+02  1.078959322E-05  0.00000E+00  9.000E+00
#rwgt            1           1   2.8960263866142488E-002           3      254788           0
</event>
<event>
      5   9999  3.19816E-02  5.54066E+01 -1.00000E+00  1.36578E-01
       2    -1     0     0   502     0  0.000000000E+00  0.000000000E+00  1.136561373E+03  1.136561373E+03  0.000000000E+00  0.00000E+00  9.000E+00
      21    -1     0     0   501   502  0.000000000E+00  0.000000000E+00 -5.290394665E+02  5.290394665E+02  0.000000000E+00  0.00000E+00  9.000E+00
      25     1     1     2     0     0 -6.223931589E+02 -5.265848696E+01  1.328548753E+02  6.507085203E+02  1.250000000E+02  0.00000E+00  9.000E+00
      25     1     1     2     0     0  5.894940920E+02  9.724041338E+01  7.914256229E+01  6.155059119E+02  1.250000000E+02  0.00000E+00  9.000E+00
       2     1     1     2   501     0  3.289906699E+01 -4.458192642E+01  3.955244685E+02  3.993864068E+02  5.394796609E-06  0.00000E+00  9.000E+00
#rwgt            1           1   3.0732191753253976E-002           3      254869           0
</event>
<event>
      5   9999  3.19816E-02  1.11462E+02 -1.00000E+00  1.21745E-01
      21    -1     0     0   502   501  0.000000000E+00  0.000000000E+00  4.972333092E+02  4.972333092E+02  0.000000000E+00  0.00000E+00  9.000E+00
      21    -1     0     0   501   511  0.000000000E+00  0.000000000E+00 -1.918023270E+03  1.918023270E+03  0.000000000E+00  0.00000E+00  9.000E+00
      25     1     1     2     0     0 -3.304101730E+02  7.205504446E+02 -9.596379201E+02  1.250957139E+03  1.250000000E+02  0.00000E+00  9.000E+00
      25     1     1     2     0     0  3.880840415E+02 -8.159314720E+02 -2.845834101E+02  9.554925994E+02  1.250000000E+02  0.00000E+00  9.000E+00
      21     1     1     2   502   511 -5.767386851E+01  9.538102739E+01 -1.765686304E+02  2.088068408E+02  1.907348633E-06  0.00000E+00  9.000E+00
#rwgt            1           1   3.2030123684988851E-002           3      254995           0
</event>
<event>
      5   9999  3.19816E-02  5.49638E+01 -1.00000E+00  1.36770E-01
      21    -1     0     0   502   501  0.000000000E+00  0.000000000E+00  5.291234536E+01  5.291234536E+01  0.000000000E+00  0.00000E+00  9.000E+00
      21    -1     0     0   512   502  0.000000000E+00  0.000000000E+00 -1.315376524E+03  1.315376524E+03  0.000000000E+00  0.00000E+00  9.000E+00
      25     1     1     2     0     0  3.935907288E+00 -1.891020885E+02 -3.867919759E+02  4.483392954E+02  1.250000000E+02  0.00000E+00  9.000E+00
      25     1     1     2     0     0 -3.495764863E+01  1.437295357E+02 -4.388332277E+02  4.796663615E+02  1.250000000E+02  0.00000E+00  9.000E+00
      21     1     1     2   512   501  3.102174135E+01  4.537255278E+01 -4.368389753E+02  4.402832127E+02  0.000000000E+00  0.00000E+00  9.000E+00
#rwgt            1           1   2.6080690242326874E-002           3      255144           0
</event>
<event>
      5   9999  3.19816E-02  2.15605E+01 -1.00000E+00  1.63721E-01
      21    -1     0     0   502   501  0.000000000E+00  0.000000000E+00  1.345839020E+02  1.345839020E+02  0.000000000E+00  0.00000E+00  9.000E+00
      21    -1     0     0   511   502  0.000000000E+00  0.000000000E+00 -8.948787211E+02  8.948787211E+02  0.000000000E+00  0.00000E+00  9.000E+00
      25     1     1     2     0     0 -7.125665818E+01  2.021517564E+02 -2.926370008E+02  3.836720711E+02  1.250000000E+02  0.00000E+00  9.000E+00
      25     1     1     2     0     0  7.963542450E+01 -2.220175795E+02 -1.120114180E+02  2.894912161E+02  1.250000000E+02  0.00000E+00  9.000E+00
      21     1     1     2   511   501 -8.378766318E+00  1.986582310E+01 -3.556464003E+02  3.562993359E+02  6.607249480E-06  0.00000E+00  9.000E+00
#rwgt            1           1   2.7686341956526209E-002           3      255227           0
</event>
<event>
      5   9999  3.19816E-02  2.58618E+02 -1.00000E+00  1.07730E-01
      21    -1     0     0   502   512  0.000000000E+00  0.000000000E+00  3.229672434E+02  3.229672434E+02  0.000000000E+00  0.00000E+00  9.000E+00
      21    -1     0     0   501   502  0.000000000E+00  0.000000000E+00 -7.788961420E+02  7.788961420E+02  0.000000000E+00  0.00000E+00  9.000E+00
      25     1     1     2     0     0 -3.703785983E+02 -9.046763481E+01 -1.627620796E+02  4.329909855E+02  1.250000000E+02  0.00000E+00  9.000E+00
      25     1     1     2     0     0  1.338591276E+02  1.950718571E+02 -3.102423194E+02  4.096908496E+02  1.250000000E+02  0.00000E+00  9.000E+00
      21     1     1     2   501   512  2.365194706E+02 -1.046042223E+02  1.707550038E+01  2.591815503E+02  2.900487199E-06  0.00000E+00  9.000E+00
#rwgt            2          11   3.6918651526984488E-003           3      255912           0
</event>
<event>
      5   9999  3.19816E-02  3.79196E+02 -1.00000E+00  1.02388E-01
      21    -1     0     0   502   501  0.000000000E+00  0.000000000E+00  5.394127576E+02  5.394127576E+02  0.000000000E+00  0.00000E+00  9.000E+00
       2    -1     0     0   501     0  0.000000000E+00  0.000000000E+00 -2.150405016E+03  2.150405016E+03  0.000000000E+00  0.00000E+00  9.000E+00
      25     1     1     2     0     0  1.441854815E+02 -5.357579183E+02  3.299196806E+02  6.574937230E+02  1.250000000E+02  0.00000E+00  9.000E+00
      25     1     1     2     0     0 -1.573188762E+00  1.844018472E+02 -7.656588109E+02  7.974113937E+02  1.250000000E+02  0.00000E+00  9.000E+00
       2     1     1     2   502     0 -1.426122928E+02  3.513560711E+02 -1.175253128E+03  1.234912657E+03  2.157918644E-05  0.00000E+00  9.000E+00
#rwgt            2          13   1.8125439030601690E-003           3      256037           0
</event>
<event>
      5   9999  3.19816E-02  4.69588E+01 -1.00000E+00  1.40649E-01
      21    -1     0     0   511   501  0.000000000E+00  0.000000000E+00  1.215073709E+03  1.215073709E+03  0.000000000E+00  0.00000E+00  9.000E+00
      21    -1     0     0   501   502  0.000000000E+00  0.000000000E+00 -2.376380017E+03  2.376380017E+03  0.000000000E+00  0.00000E+00  9.000E+00
      25     1     1     2     0     0  1.039030146E+03  1.324422202E+03 -7.211498760E+02  1.835581640E+03  1.250000000E+02  0.00000E+00  9.000E+00
      25     1     1     2     0     0 -1.040763148E+03 -1.277495429E+03 -4.336295114E+02  1.708461897E+03  1.250000000E+02  0.00000E+00  9.000E+00
      21     1     1     2   511   502  1.733002077E+00 -4.692677265E+01 -6.526920989E+00  4.741018862E+01  8.085167388E-07  0.00000E+00  9.000E+00
#rwgt            1           1   2.8074000271835983E-002           3      256056           0
</event>
<event>
      5   9999  3.19816E-02  1.27407E+01 -1.00000E+00  1.84334E-01
       2    -1     0     0   502     0  0.000000000E+00  0.000000000E+00  3.254340016E+03  3.254340016E+03  0.000000000E+00  0.00000E+00  9.000E+00
      21    -1     0     0   501   502  0.000000000E+00  0.000000000E+00 -1.013534317E+03  1.013534317E+03  0.000000000E+00  0.00000E+00  9.000E+00
      25     1     1     2     0     0  1.913978951E+02 -2.146162223E+02 -9.628086653E+02  1.012580270E+03  1.250000000E+02  0.00000E+00  9.000E+00
      25     1     1     2     0     0 -2.024141648E+02  2.210167945E+02  9.950818411E+02  1.046724791E+03  1.250000000E+02  0.00000E+00  9.000E+00
       2     1     1     2   501     0  1.101626963E+01 -6.400572190E+00  2.208532522E+03  2.208569272E+03  3.051757812E-05  0.00000E+00  9.000E+00
#rwgt            1           1   3.3492016079265836E-002           3      256200           0
</event>
<event>
      5   9999  3.19816E-02  3.21378E+01 -1.00000E+00  1.50992E-01
      21    -1     0     0   502   501  0.000000000E+00  0.000000000E+00  3.461171822E+02  3.461171822E+02  0.000000000E+00  0.00000E+00  9.000E+00
      21    -1     0     0   501   511  0.000000000E+00  0.000000000E+00 -1.119210863E+03  1.119210863E+03  0.000000000E+00  0.00000E+00  9.000E+00
      25     1     1     2     0     0 -1.279199521E+02  6.397844531E+01  2.800410841E+02  3.383855263E+02  1.250000000E+02  0.00000E+00  9.000E+00
      25     1     1     2     0     0  1.127353913E+02 -3.565412771E+01 -1.655380421E+02  2.387641695E+02  1.250000000E+02  0.00000E+00  9.000E+00
      21     1     1     2   502   511  1.518456078E+01 -2.832431760E+01 -8.875967230E+02  8.881783495E+02  0.000000000E+00  0.00000E+00  9.000E+00
#rwgt            1           1   2.6564637178870160E-002           3      256517           0
</event>
<event>
      5   9999  3.19816E-02  8.81473E+00 -1.00000E+00  2.02312E-01
      21    -1     0     0   502   501  0.000000000E+00  0.000000000E+00  1.807546932E+02  1.807546932E+02  0.000000000E+00  0.00000E+00  9.000E+00
      21    -1     0     0   501   512  0.000000000E+00  0.000000000E+00 -3.472035557E+02  3.472035557E+02  0.000000000E+00  0.00000E+00  9.000E+00
      25     1     1     2     0     0  1.323297003E+02 -6.400099418E+01  8.235594755E+01  2.097969946E+02  1.250000000E+02  0.00000E+00  9.000E+00
      25     1     1     2     0     0 -1.238892913E+02  6.145953440E+01 -2.216934963E+02  2.896529599E+02  1.250000000E+02  0.00000E+00  9.000E+00
      21     1     1     2   502   512 -8.440409057E+00  2.541459782E+00 -2.711131375E+01  2.850829451E+01  0.000000000E+00  0.00000E+00  9.000E+00
#rwgt            1           1   2.8641513208570692E-002           3      256615           0
</event>
<event>
      5   9999  3.19816E-02  9.88804E+01 -1.00000E+00  1.24048E-01
       2    -1     0     0   502     0  0.000000000E+00  0.000000000E+00  7.186550940E+02  7.186550940E+02  0.000000000E+00  0.00000E+00  9.000E+00
      21    -1     0     0   501   502  0.000000000E+00  0.000000000E+00 -9.204584675E+01  9.204584675E+01  0.000000000E+00  0.00000E+00  9.000E+00
      25     1     1     2     0     0  3.598056348E+00 -1.782177128E+02  2.398845532E+02  3.239507648E+02  1.250000000E+02  0.00000E+00  9.000E+00
      25     1     1     2     0     0 -3.862483630E+01  8.574905159E+01  1.055814346E+02  1.887252425E+02  1.250000000E+02  0.00000E+00  9.000E+00
       2     1     1     2   501     0  3.502677996E+01  9.246866121E+01  2.811432594E+02  2.980249334E+02  0.000000000E+00  0.00000E+00  9.000E+00
#rwgt            1           1   3.0476954330746320E-002           3      256793           0
</event>
<event>
      5   9999  3.19816E-02  9.35917E+01 -1.00000E+00  1.25136E-01
      21    -1     0     0   502   501  0.000000000E+00  0.000000000E+00  3.648353616E+02  3.648353616E+02  0.000000000E+00  0.00000E+00  9.000E+00
      21    -1     0     0   501   511  0.000000000E+00  0.000000000E+00 -6.194214861E+02  6.194214861E+02  0.000000000E+00  0.00000E+00  9.000E+00
      25     1     1     2     0     0  2.428796361E+02  2.579770970E+02 -1.453245701E+02  4.028485210E+02  1.250000000E+02  0.00000E+00  9.000E+00
      25     1     1     2     0     0 -3.323464728E+02 -2.304982910E+02  1.767450423E+01  4.236992191E+02  1.250000000E+02  0.00000E+00  9.000E+00
      21     1     1     2   502   511  8.946683675E+01 -2.747880606E+01 -1.269360586E+02  1.577091077E+02  2.336015456E-06  0.00000E+00  9.000E+00
#rwgt            1           1   2.9452321967436697E-002           3      256861           0
</event>
<event>
      5   9999  3.19816E-02  1.00980E+01 -1.00000E+00  1.95269E-01
      21    -1     0     0   502   501  0.000000000E+00  0.000000000E+00  1.710315510E+02  1.710315510E+02  0.000000000E+00  0.00000E+00  9.000E+00
      21    -1     0     0   501   512  0.000000000E+00  0.000000000E+00 -3.959227471E+02  3.959227471E+02  0.000000000E+00  0.00000E+00  9.000E+00
      25     1     1     2     0     0  1.008534909E+02 -1.919026585E+02 -1.007827221E+02  2.697780829E+02  1.250000000E+02  0.00000E+00  9.000E+00
      25     1     1     2     0     0 -1.052184061E+02  1.827968189E+02 -8.929767892E+01  2.609303843E+02  1.250000000E+02  0.00000E+00  9.000E+00
      21     1     1     2   502   512  4.364915172E+00  9.105839559E+00 -3.481079512E+01  3.624583087E+01  6.743495762E-07  0.00000E+00  9.000E+00
#rwgt            1           1   2.9893273321730231E-002           3      256936           0
</event>
<event>
      5   9999  3.19816E-02  2.64905E+01 -1.00000E+00  1.56890E-01
       2    -1     0     0   502     0  0.000000000E+00  0.000000000E+00  2.301333090E+03  2.301333090E+03  0.000000000E+00  0.00000E+00  9.000E+00
      21    -1     0     0   501   502  0.000000000E+00  0.000000000E+00 -7.313682541E+01  7.313682541E+01  0.000000000E+00  0.00000E+00  9.000E+00
      25     1     1     2     0     0  1.163768868E+02 -9.546855472E+00  5.086907621E+02  5.366805509E+02  1.250000000E+02  0.00000E+00  9.000E+00
      25     1     1     2     0     0 -9.586765140E+01  2.631340147E+01  4.898024290E+01  1.670540807E+02  1.250000000E+02  0.00000E+00  9.000E+00
       2     1     1     2   501     0 -2.050923540E+01 -1.676654599E+01  1.670525259E+03  1.670735284E+03  3.051757812E-05  0.00000E+00  9.000E+00
#rwgt            1           1   2.8161302058068126E-002           3      257163           0
</event>
<event>
      5   9999  3.19816E-02  1.17234E+02 -1.00000E+00  1.20800E-01
       1    -1     0     0   502     0  0.000000000E+00  0.000000000E+00  7.124976321E+02  7.124976321E+02  0.000000000E+00  0.00000E+00  9.000E+00
      21    -1     0     0   501   502  0.000000000E+00  0.000000000E+00 -6.289739487E+02  6.289739487E+02  0.000000000E+00  0.00000E+00  9.000E+00
      25     1     1     2     0     0 -2.308002559E+02 -3.912567685E+01  1.003609581E+02  2.837197537E+02  1.250000000E+02  0.00000E+00  9.000E+00
      25     1     1     2     0     0  1.289127208E+02  9.711452446E+01 -5.107920437E+02  5.500756606E+02  1.250000000E+02  0.00000E+00  9.000E+00
       1     1     1     2   501     0  1.018875351E+02 -5.798884761E+01  4.939547690E+02  5.076761665E+02  5.394796609E-06  0.00000E+00  9.000E+00
#rwgt            1           1   2.8884469335505088E-002           3      257272           0
</event>
<event>
      5   9999  3.19816E-02  6.90396E+01 -1.00000E+00  1.31525E-01
      21    -1     0     0   502   501  0.000000000E+00  0.000000000E+00  8.663458473E+02  8.663458473E+02  0.000000000E+00  0.00000E+00  9.000E+00
      21    -1     0     0   511   502  0.000000000E+00  0.000000000E+00 -6.702810205E+01  6.702810205E+01  0.000000000E+00  0.00000E+00  9.000E+00
      25     1     1     2     0     0  2.753794202E+01  1.426244603E+02  3.337834873E+02  3.848850365E+02  1.250000000E+02  0.00000E+00  9.000E+00
      25     1     1     2     0     0 -9.623226349E+01 -1.495205807E+02  3.875194600E+02  4.443122601E+02  1.250000000E+02  0.00000E+00  9.000E+00
      21     1     1     2   511   501  6.869432147E+01  6.896120342E+00  7.801479789E+01  1.041766527E+02  1.907348633E-06  0.00000E+00  9.000E+00
#rwgt            1           1   2.8019518483983184E-002           3      257361           0
</event>
<event>
      5   9999  3.19816E-02  9.93511E+01 -1.00000E+00  1.23955E-01
      21    -1     0     0   502   512  0.000000000E+00  0.000000000E+00  1.203338324E+03  1.203338324E+03  0.000000000E+00  0.00000E+00  9.000E+00
      21    -1     0     0   501   502  0.000000000E+00  0.000000000E+00 -4.288721340E+02  4.288721340E+02  0.000000000E+00  0.00000E+00  9.000E+00
      25     1     1     2     0     0  4.925353402E+02 -3.599870333E+02  1.115781882E+02  6.326582154E+02  1.250000000E+02  0.00000E+00  9.000E+00
      25     1     1     2     0     0 -4.020554670E+02  3.189500620E+02  2.679001089E+02  5.922610986E+02  1.250000000E+02  0.00000E+00  9.000E+00
      21     1     1     2   501   512 -9.047987325E+01  4.103697125E+01  3.949878924E+02  4.072911436E+02  7.629394531E-06  0.00000E+00  9.000E+00
#rwgt            1           1   2.8212460591583208E-002           3      257411           0
</event>
<event>
      5   9999  3.19816E-02  2.79432E+01 -1.00000E+00  1.55214E-01
      21    -1     0     0   502   511  0.000000000E+00  0.000000000E+00  3.973230578E+02  3.973230578E+02  0.000000000E+00  0.00000E+00  9.000E+00
      21    -1     0     0   501   502  0.000000000E+00  0.000000000E+00 -3.547003799E+02  3.547003799E+02  0.000000000E+00  0.00000E+00  9.000E+00
      25     1     1     2     0     0 -2.766708950E+02 -1.085674686E+02  5.473477413E+01  3.270391030E+02  1.250000000E+02  0.00000E+00  9.000E+00
      25     1     1     2     0     0  3.027482686E+02  1.186071209E+02 -7.485184349E+01  3.563031879E+02  1.250000000E+02  0.00000E+00  9.000E+00
      21     1     1     2   501   511 -2.607737352E+01 -1.003965221E+01  6.273974734E+01  6.868114678E+01  9.536743164E-07  0.00000E+00  9.000E+00
#rwgt            1           1   3.3934175230845201E-002           3      257513           0
</event>
<event>
      5   9999  3.19816E-02  2.57337E+02 -1.00000E+00  1.07803E-01
       5    -1     0     0   502     0  0.000000000E+00  0.000000000E+00  5.621108735E+02  5.621108735E+02  0.000000000E+00  0.00000E+00  9.000E+00
      21    -1     0     0   501   502  0.000000000E+00  0.000000000E+00 -5.324507172E+02  5.324507172E+02  0.000000000E+00  0.00000E+00  9.000E+00
      25     1     1     2     0     0  1.050875533E+02  2.524481213E+02 -1.166093824E+02  3.224844118E+02  1.250000000E+02  0.00000E+00  9.000E+00
      25     1     1     2     0     0  4.569698326E+01 -4.609818351E+02  7.848419201E+00  4.798740088E+02  1.250000000E+02  0.00000E+00  9.000E+00
       5     1     1     2   501     0 -1.507845365E+02  2.085337139E+02  1.384211196E+02  2.922031701E+02  1.907348633E-06  0.00000E+00  9.000E+00
#rwgt            1           1   2.7967871824256352E-002           3      257685           0
</event>
<event>
      5   9999  3.19816E-02  9.56232E+01 -1.00000E+00  1.24708E-01
      21    -1     0     0   502   501  0.000000000E+00  0.000000000E+00  2.097948638E+02  2.097948638E+02  0.000000000E+00  0.00000E+00  9.000E+00
      21    -1     0     0   501   511  0.000000000E+00  0.000000000E+00 -3.366482813E+02  3.366482813E+02  0.000000000E+00  0.00000E+00  9.000E+00
      25     1     1     2     0     0 -1.694503966E+02  3.391859222E+01  6.985250993E+01  2.244287881E+02  1.250000000E+02  0.00000E+00  9.000E+00
      25     1     1     2     0     0  9.444753153E+01  2.539717133E+01 -1.118205640E+02  1.941499190E+02  1.250000000E+02  0.00000E+00  9.000E+00
      21     1     1     2   502   511  7.500286506E+01 -5.931576354E+01 -8.488536340E+01  1.278644379E+02  2.697398305E-06  0.00000E+00  9.000E+00
#rwgt            1           1   2.6252103318822956E-002           3      257720           0
</event>
<event>
      5   9999  3.19816E-02  4.09958E+01 -1.00000E+00  1.44181E-01
      21    -1     0     0   512   501  0.000000000E+00  0.000000000E+00  6.808077618E+02  6.808077618E+02  0.000000000E+00  0.00000E+00  9.000E+00
      21    -1     0     0   501   502  0.000000000E+00  0.000000000E+00 -2.355932896E+02  2.355932896E+02  0.000000000E+00  0.00000E+00  9.000E+00
      25     1     1     2     0     0  6.455618752E+01 -2.057949975E+02  5.148837171E+02  5.720570989E+02  1.250000000E+02  0.00000E+00  9.000E+00
      25     1     1     2     0     0 -2.454280424E+01  2.147159392E+02 -1.219939586E+02  2.778719305E+02  1.250000000E+02  0.00000E+00  9.000E+00
      21     1     1     2   512   502 -4.001338327E+01 -8.920941732E+00  5.232471371E+01  6.647202199E+01  0.000000000E+00  0.00000E+00  9.000E+00
#rwgt            1           1   2.3136105578277066E-002           3      257781           0
</event>
<event>
      5   9999  3.19816E-02  1.09648E+01 -1.00000E+00  1.91244E-01
      21    -1     0     0   502   501  0.000000000E+00  0.000000000E+00  3.157903159E+02  3.157903159E+02  0.000000000E+00  0.00000E+00  9.000E+00
      21    -1     0     0   511   502  0.000000000E+00  0.000000000E+00 -1.011210634E+02  1.011210634E+02  0.000000000E+00  0.00000E+00  9.000E+00
      25     1     1     2     0     0 -2.897760790E+00 -6.102746283E+01  1.504707863E+02  2.049370776E+02  1.250000000E+02  0.00000E+00  9.000E+00
      25     1     1     2     0     0  5.521850734E+00  7.167362452E+01  9.937873617E+01  1.751249054E+02  1.250000000E+02  0.00000E+00  9.000E+00
      21     1     1     2   511   501 -2.624089944E+00 -1.064616169E+01 -3.518027004E+01  3.684939629E+01  4.768371582E-07  0.00000E+00  9.000E+00
#rwgt            1           1   3.0330539789583465E-002           3      257943           0
</event>
<event>
      5   9999  3.19816E-02  3.98518E+01 -1.00000E+00  1.44940E-01
       2    -1     0     0   502     0  0.000000000E+00  0.000000000E+00  5.105574750E+02  5.105574750E+02  0.000000000E+00  0.00000E+00  9.000E+00
      21    -1     0     0   501   502  0.000000000E+00  0.000000000E+00 -9.598741683E+02  9.598741683E+02  0.000000000E+00  0.00000E+00  9.000E+00
      25     1     1     2     0     0  9.303075170E+01 -1.163570165E+01 -9.051605374E+02  9.185481527E+02  1.250000000E+02  0.00000E+00  9.000E+00
      25     1     1     2     0     0 -1.326902904E+02  7.725758950E+00  1.310289529E+02  2.246330052E+02  1.250000000E+02  0.00000E+00  9.000E+00
       2     1     1     2   501     0  3.965953868E+01  3.909942697E+00  3.248148912E+02  3.272504854E+02  5.394796609E-06  0.00000E+00  9.000E+00
#rwgt            1           1   3.4414769941961784E-002           3      258079           0
</event>
<event>
      5   9999  3.19816E-02  4.07171E+01 -1.00000E+00  1.44363E-01
      21    -1     0     0   502   511  0.000000000E+00  0.000000000E+00  3.874991616E+02  3.874991616E+02  0.000000000E+00  0.00000E+00  9.000E+00
      21    -1     0     0   501   502  0.000000000E+00  0.000000000E+00 -1.262735175E+02  1.262735175E+02  0.000000000E+00  0.00000E+00  9.000E+00
      25     1     1     2     0     0  8.744969687E+01 -1.261127309E+02  4.958915031E+01  2.040489015E+02  1.250000000E+02  0.00000E+00  9.000E+00
      25     1     1     2     0     0 -5.233584122E+01  1.054997326E+02  1.201790085E+02  2.096120892E+02  1.250000000E+02  0.00000E+00  9.000E+00
      21     1     1     2   501   511 -3.511385565E+01  2.061299827E+01  9.145748520E+01  1.001116884E+02  1.348699152E-06  0.00000E+00  9.000E+00
#rwgt            1           1   2.9821884953507592E-002           3      258199           0
</event>
<event>
      5   9999  3.19816E-02  1.12028E+02 -1.00000E+00  1.21649E-01
      21    -1     0     0   502   501  0.000000000E+00  0.000000000E+00  6.588836584E+02  6.588836584E+02  0.000000000E+00  0.00000E+00  9.000E+00
       1    -1     0     0   501     0  0.000000000E+00  0.000000000E+00 -1.262054513E+02  1.262054513E+02  0.000000000E+00  0.00000E+00  9.000E+00
      25     1     1     2     0     0 -1.165182788E+02 -5.225333734E+01  2.828540614E+01  1.809198296E+02  1.250000000E+02  0.00000E+00  9.000E+00
      25     1     1     2     0     0  6.552033481E+01  1.520001316E+02  4.021961997E+02  4.525303717E+02  1.250000000E+02  0.00000E+00  9.000E+00
       1     1     1     2   502     0  5.099794396E+01 -9.974679421E+01  1.021966012E+02  1.516389084E+02  2.697398305E-06  0.00000E+00  9.000E+00
#rwgt            1           1   3.0028648531316898E-002           3      258376           0
</event>
<event>
      5   9999  3.19816E-02  4.33587E+01 -1.00000E+00  1.42701E-01
      21    -1     0     0   502   501  0.000000000E+00  0.000000000E+00  3.885664923E+03  3.885664923E+03  0.000000000E+00  0.00000E+00  9.000E+00
       3    -1     0     0   501     0  0.000000000E+00  0.000000000E+00 -1.093728630E+02  1.093728630E+02  0.000000000E+00  0.00000E+00  9.000E+00
      25     1     1     2     0     0  1.203490357E+02 -2.985584626E+02  1.464353432E+03  1.504518867E+03  1.250000000E+02  0.00000E+00  9.000E+00
      25     1     1     2     0     0 -1.441896817E+02  2.623424631E+02  2.384242483E+03  2.406211015E+03  1.250000000E+02  0.00000E+00  9.000E+00
       3     1     1     2   502     0  2.384064600E+01  3.621599948E+01 -7.230385582E+01  8.430790346E+01  4.046097457E-06  0.00000E+00  9.000E+00
#rwgt            1           1   5.5241154091675779E-003           3      258405           0
</event>
<event>
      5   9999  3.19816E-02  1.09805E+02 -1.00000E+00  1.22028E-01
      21    -1     0     0   502   501  0.000000000E+00  0.000000000E+00  3.331090717E+02  3.331090717E+02  0.000000000E+00  0.00000E+00  9.000E+00
      21    -1     0     0   511   502  0.000000000E+00  0.000000000E+00 -8.797054891E+02  8.797054891E+02  0.000000000E+00  0.00000E+00  9.000E+00
      25     1     1     2     0     0  2.942571806E+02 -9.788362744E+01  1.437967654E+02  3.639656613E+02  1.250000000E+02  0.00000E+00  9.000E+00
      25     1     1     2     0     0 -3.332751743E+02 -4.754897784E+00 -3.851773280E+02  5.244821493E+02  1.250000000E+02  0.00000E+00  9.000E+00
      21     1     1     2   511   501  3.901799375E+01  1.026385252E+02 -3.052158548E+02  3.243667503E+02  3.814697266E-06  0.00000E+00  9.000E+00
#rwgt            2          11   2.4529490521697579E-003           3      258614           0
</event>
<event>
      5   9999  3.19816E-02  4.84581E+02 -1.00000E+00  9.92400E-02
      21    -1     0     0   502   501  0.000000000E+00  0.000000000E+00  3.467341742E+02  3.467341742E+02  0.000000000E+00  0.00000E+00  9.000E+00
      21    -1     0     0   512   502  0.000000000E+00  0.000000000E+00 -1.798057444E+03  1.798057444E+03  0.000000000E+00  0.00000E+00  9.000E+00
      25     1     1     2     0     0  1.021885940E+02 -2.497877559E+02  7.483044761E+01  3.066937033E+02  1.250000000E+02  0.00000E+00  9.000E+00
      25     1     1     2     0     0  3.748611543E+02  3.348891087E+02 -5.986031255E+02  7.915947840E+02  1.250000000E+02  0.00000E+00  9.000E+00
      21     1     1     2   512   501 -4.770497483E+02 -8.510135282E+01 -9.275505917E+02  1.046503131E+03  1.078959322E-05  0.00000E+00  9.000E+00
#rwgt            2          11   1.3341917399517229E-003           3      258784           0
</event>
<event>
      5   9999  3.19816E-02  5.11032E+01 -1.00000E+00  1.38537E-01
      21    -1     0     0   502   501  0.000000000E+00  0.000000000E+00  1.766919251E+02  1.766919251E+02  0.000000000E+00  0.00000E+00  9.000E+00
      -1    -1     0     0     0   502  0.000000000E+00  0.000000000E+00 -1.240042873E+03  1.240042873E+03  0.000000000E+00  0.00000E+00  9.000E+00
      25     1     1     2     0     0 -1.828420535E+02 -1.207151944E+02 -2.377123155E+02  3.466057120E+02  1.250000000E+02  0.00000E+00  9.000E+00
      25     1     1     2     0     0  1.965293664E+02  1.699513052E+02 -4.978371922E+01  2.925929881E+02  1.250000000E+02  0.00000E+00  9.000E+00
      -1     1     1     2     0   501 -1.368731287E+01 -4.923611083E+01 -7.758549130E+02  7.775360977E+02  1.078959322E-05  0.00000E+00  9.000E+00
#rwgt            1           1   2.8318040149086919E-002           3      258804           0
</event>
<event>
      5   9999  3.19816E-02  7.54062E+01 -1.00000E+00  1.29605E-01
      21    -1     0     0   511   501  0.000000000E+00  0.000000000E+00  7.497159166E+02  7.497159166E+02  0.000000000E+00  0.00000E+00  9.000E+00
      21    -1     0     0   501   502  0.000000000E+00  0.000000000E+00 -3.544513746E+02  3.544513746E+02  0.000000000E+00  0.00000E+00  9.000E+00
      25     1     1     2     0     0  3.117025313E+02  2.047172266E+02  4.126662863E+02  5.700754991E+02  1.250000000E+02  0.00000E+00  9.000E+00
      25     1     1     2     0     0 -2.365105589E+02 -1.990368475E+02 -1.622327593E+02  3.708063906E+02  1.250000000E+02  0.00000E+00  9.000E+00
      21     1     1     2   511   502 -7.519197243E+01 -5.680379129E+00  1.448310150E+02  1.632854015E+02  3.814697266E-06  0.00000E+00  9.000E+00
#rwgt            1           1   2.6882689191219597E-002           3      258909           0
</event>
<event>
      5   9999  3.19816E-02  2.77463E+01 -1.00000E+00  1.55433E-01
      21    -1     0     0   502   501  0.000000000E+00  0.000000000E+00  1.039600777E+03  1.039600777E+03  0.000000000E+00  0.00000E+00  9.000E+00
      21    -1     0     0   501   512  0.000000000E+00  0.000000000E+00 -7.379272490E+01  7.379272490E+01  0.000000000E+00  0.00000E+00  9.000E+00
      25     1     1     2     0     0 -1.421949908E+01  4.088346427E+01  4.449117237E+01  1.395640220E+02  1.250000000E+02  0.00000E+00  9.000E+00
      25     1     1     2     0     0  6.596512201E+00 -1.420490407E+01  9.346107815E+02  9.430628856E+02  1.250000000E+02  0.00000E+00  9.000E+00
      21     1     1     2   502   512  7.622986876E+00 -2.667856020E+01 -1.329390178E+01  3.076659435E+01  4.768371582E-07  0.00000E+00  9.000E+00
#rwgt            1           1   3.0473026868643210E-002           3      259032           0
</event>
<event>
      5   9999  3.19816E-02  3.00316E+01 -1.00000E+00  1.53008E-01
      21    -1     0     0   502   501  0.000000000E+00  0.000000000E+00  9.493408139E+01  9.493408139E+01  0.000000000E+00  0.00000E+00  9.000E+00
      21    -1     0     0   501   511  0.000000000E+00  0.000000000E+00 -1.782500315E+03  1.782500315E+03  0.000000000E+00  0.00000E+00  9.000E+00
      25     1     1     2     0     0  2.186206065E+02 -3.323385180E+01 -1.298890826E+03  1.323496066E+03  1.250000000E+02  0.00000E+00  9.000E+00
      25     1     1     2     0     0 -2.175637855E+02  3.220844093E+00 -1.105719104E+02  2.742180191E+02  1.250000000E+02  0.00000E+00  9.000E+00
      21     1     1     2   502   511 -1.056820981E+00  3.001300770E+01 -2.781034966E+02  2.797203109E+02  3.814697266E-06  0.00000E+00  9.000E+00
#rwgt            1           1   2.9024935021023306E-002           3      259108           0
</event>
<event>
      5   9999  3.19816E-02  3.18556E+01 -1.00000E+00  1.51251E-01
       1    -1     0     0   502     0  0.000000000E+00  0.000000000E+00  4.614401740E+02  4.614401740E+02  0.000000000E+00  0.00000E+00  9.000E+00
      21    -1     0     0   501   502  0.000000000E+00  0.000000000E+00 -1.221813347E+03  1.221813347E+03  0.000000000E+00  0.00000E+00  9.000E+00
      25     1     1     2     0     0 -9.072363780E+01 -2.695456610E+02 -1.014687046E+03  1.061178799E+03  1.250000000E+02  0.00000E+00  9.000E+00
      25     1     1     2     0     0  6.449823871E+01  2.514622922E+02 -6.974805700E+01  2.964508369E+02  1.250000000E+02  0.00000E+00  9.000E+00
       1     1     1     2   501     0  2.622539909E+01  1.808336873E+01  3.240619303E+02  3.256238850E+02  3.814697266E-06  0.00000E+00  9.000E+00
#rwgt            2          17   3.6266150149871703E-004           3      259245           0
</event>
<event>
      5   9999  3.19816E-02  2.56549E+02 -1.00000E+00  1.07848E-01
      21    -1     0     0   502   501  0.000000000E+00  0.000000000E+00  8.776908145E+01  8.776908145E+01  0.000000000E+00  0.00000E+00  9.000E+00
       2    -1     0     0   501     0  0.000000000E+00  0.000000000E+00 -1.624068111E+03  1.624068111E+03  0.000000000E+00  0.00000E+00  9.000E+00
      25     1     1     2     0     0 -1.086161272E+02 -2.027561644E+02 -4.032989996E+02  4.808145260E+02  1.250000000E+02  0.00000E+00  9.000E+00
      25     1     1     2     0     0  3.139628498E+01 -4.189588001E+01 -1.048444150E+02  1.713427642E+02  1.250000000E+02  0.00000E+00  9.000E+00
       2     1     1     2   502     0  7.721984227E+01  2.446520444E+02 -1.028155615E+03  1.059679902E+03  1.525878906E-05  0.00000E+00  9.000E+00
#rwgt            2          13   3.9364201556371737E-003           3      259399           0
</event>
<event>
      5   9999  3.19816E-02  2.45830E+01 -1.00000E+00  1.59300E-01
      21    -1     0     0   502   501  0.000000000E+00  0.000000000E+00  2.177278282E+02  2.177278282E+02  0.000000000E+00  0.00000E+00  9.000E+00
      21    -1     0     0   501   511  0.000000000E+00  0.000000000E+00 -2.390211373E+02  2.390211373E+02  0.000000000E+00  0.00000E+00  9.000E+00
      25     1     1     2     0     0  7.396154554E+01 -9.032069282E+00  1.592077898E+02  2.156942484E+02  1.250000000E+02  0.00000E+00  9.000E+00
      25     1     1     2     0     0 -5.043003689E+01  1.919159687E+00 -1.463093845E+02  1.989429763E+02  1.250000000E+02  0.00000E+00  9.000E+00
      21     1     1     2   502   511 -2.353150864E+01  7.112909595E+00 -3.419171435E+01  4.211174079E+01  4.768371582E-07  0.00000E+00  9.000E+00
#rwgt            1           1   2.7023151577999709E-002           3      259448           0
</event>
<event>
      5   9999  3.19816E-02  5.04686E+01 -1.00000E+00  1.38845E-01
      21    -1     0     0   502   501  0.000000000E+00  0.000000000E+00  1.609662585E+02  1.609662585E+02  0.000000000E+00  0.00000E+00  9.000E+00
      21    -1     0     0   512   502  0.000000000E+00  0.000000000E+00 -6.169152813E+02  6.169152813E+02  0.000000000E+00  0.00000E+00  9.000E+00
      25     1     1     2     0     0  1.078842744E+02 -1.998965383E+02 -1.716954904E+02  3.109694264E+02  1.250000000E+02  0.00000E+00  9.000E+00
      25     1     1     2     0     0 -5.742328717E+01  1.990171944E+02 -7.742861033E+01  2.540186357E+02  1.250000000E+02  0.00000E+00  9.000E+00
      21     1     1     2   512   501 -5.046098728E+01  8.793438625E-01 -2.068249220E+02  2.128934777E+02  0.000000000E+00  0.00000E+00  9.000E+00
#rwgt            1           1   2.6415177690696314E-002           3      259615           0
</event>
<event>
      5   9999  3.19816E-02  5.47220E+01 -1.00000E+00  1.36876E-01
      21    -1     0     0   502   511  0.000000000E+00  0.000000000E+00  6.635113525E+02  6.635113525E+02  0.000000000E+00  0.00000E+00  9.000E+00
      21    -1     0     0   501   502  0.000000000E+00  0.000000000E+00 -5.995198777E+02  5.995198777E+02  0.000000000E+00  0.00000E+00  9.000E+00
      25     1     1     2     0     0  5.284732343E+01  3.411496395E+02 -4.454681790E+02  5.772718723E+02  1.250000000E+02  0.00000E+00  9.000E+00
      25     1     1     2     0     0  1.856847037E+00 -3.397545251E+02  3.027567112E+02  4.719356009E+02  1.250000000E+02  0.00000E+00  9.000E+00
      21     1     1     2   501   511 -5.470417046E+01 -1.395114414E+00  2.067029425E+02  2.138237570E+02  2.697398305E-06  0.00000E+00  9.000E+00
#rwgt            1           1   2.2173898810409421E-002           3      259706           0
</event>
<event>
      5   9999  3.19816E-02  1.77302E+02 -1.00000E+00  1.13586E-01
      21    -1     0     0   502   512  0.000000000E+00  0.000000000E+00  2.359908156E+02  2.359908156E+02  0.000000000E+00  0.00000E+00  9.000E+00
      21    -1     0     0   501   502  0.000000000E+00  0.000000000E+00 -1.368955114E+03  1.368955114E+03  0.000000000E+00  0.00000E+00  9.000E+00
      25     1     1     2     0     0 -5.249272742E+02 -3.517913332E+01 -4.649329490E+02  7.131436473E+02  1.250000000E+02  0.00000E+00  9.000E+00
      25     1     1     2     0     0  3.611345330E+02 -3.270248212E+01 -5.760545555E+02  6.920631865E+02  1.250000000E+02  0.00000E+00  9.000E+00
      21     1     1     2   501   512  1.637927412E+02  6.788161544E+01 -9.197679407E+01  1.997390959E+02  3.015782986E-06  0.00000E+00  9.000E+00
#rwgt            1           1   1.5468151818729918E-002           3      259820           0
</event>
<event>
      5   9999  3.19816E-02  5.08320E+01 -1.00000E+00  1.38668E-01
      21    -1     0     0   502   501  0.000000000E+00  0.000000000E+00  3.023626375E+03  3.023626375E+03  0.000000000E+00  0.00000E+00  9.000E+00
      21    -1     0     0   511   502  0.000000000E+00  0.000000000E+00 -7.575837539E+02  7.575837539E+02  0.000000000E+00  0.00000E+00  9.000E+00
      25     1     1     2     0     0  1.279850273E+03  1.969272517E+02  4.022589691E+02  1.361702736E+03  1.250000000E+02  0.00000E+00  9.000E+00
      25     1     1     2     0     0 -1.259485259E+03 -1.503530288E+02  1.943977249E+03  2.324560539E+03  1.250000000E+02  0.00000E+00  9.000E+00
      21     1     1     2   511   501 -2.036501412E+01 -4.657422292E+01 -8.019359729E+01  9.494685401E+01  1.348699152E-06  0.00000E+00  9.000E+00
#rwgt            1           1   4.4249793442591383E-002           3      259882           0
</event>
<event>
      5   9999  3.19816E-02  5.59017E+01 -1.00000E+00  1.36366E-01
      21    -1     0     0   502   501  0.000000000E+00  0.000000000E+00  1.804188276E+02  1.804188276E+02  0.000000000E+00  0.00000E+00  9.000E+00
       1    -1     0     0   501     0  0.000000000E+00  0.000000000E+00 -1.766914610E+03  1.766914610E+03  0.000000000E+00  0.00000E+00  9.000E+00
      25     1     1     2     0     0  1.628864859E+02 -1.518099735E+02 -8.773540610E+01  2.700014386E+02  1.250000000E+02  0.00000E+00  9.000E+00
      25     1     1     2     0     0 -1.526465471E+02  2.067658333E+02 -1.414711881E+02  3.188921059E+02  1.250000000E+02  0.00000E+00  9.000E+00
       1     1     1     2   502     0 -1.023993873E+01 -5.495585974E+01 -1.357289188E+03  1.358439893E+03  1.525878906E-05  0.00000E+00  9.000E+00
#rwgt            1           1   3.0431132677511644E-002           3      260062           0
</event>
<event>
      5   9999  3.19816E-02  2.78073E+01 -1.00000E+00  1.55365E-01
      21    -1     0     0   502   511  0.000000000E+00  0.000000000E+00  8.895741707E+01  8.895741707E+01  0.000000000E+00  0.00000E+00  9.000E+00
      21    -1     0     0   501   502  0.000000000E+00  0.000000000E+00 -5.644487015E+02  5.644487015E+02  0.000000000E+00  0.00000E+00  9.000E+00
      25     1     1     2     0     0  2.000179844E+01  4.070565053E+01 -4.694567722E+02  4.879258989E+02  1.250000000E+02  0.00000E+00  9.000E+00
      25     1     1     2     0     0  4.176377868E+00 -5.444106817E+01  2.386872545E+00  1.364256911E+02  1.250000000E+02  0.00000E+00  9.000E+00
      21     1     1     2   501   511 -2.417817631E+01  1.373541764E+01 -8.421384873E+00  2.905452857E+01  3.576278687E-07  0.00000E+00  9.000E+00
#rwgt            1           1   3.3864005532846721E-002           3      260194           0
</event>
<event>
      5   9999  3.19816E-02  2.16783E+02 -1.00000E+00  1.10389E-01
      21    -1     0     0   502   512  0.000000000E+00  0.000000000E+00  1.245985232E+03  1.245985232E+03  0.000000000E+00  0.00000E+00  9.000E+00
      21    -1     0     0   501   502  0.000000000E+00  0.000000000E+00 -4.477520163E+02  4.477520163E+02  0.000000000E+00  0.00000E+00  9.000E+00
      25     1     1     2     0     0 -7.338938131E+01  1.168170832E+02 -3.920773947E+02  4.340298557E+02  1.250000000E+02  0.00000E+00  9.000E+00
      25     1     1     2     0     0 -1.299164757E+02 -4.157423767E+01  6.915450009E+02  7.158674432E+02  1.250000000E+02  0.00000E+00  9.000E+00
      21     1     1     2   501   512  2.033058570E+02 -7.524284550E+01  4.987656096E+02  5.438399494E+02  0.000000000E+00  0.00000E+00  9.000E+00
#rwgt            1           1   2.4680422583087148E-002           3      260282           0
</event>
<event>
      5   9999  3.19816E-02  2.11574E+01 -1.00000E+00  1.64378E-01
      21    -1     0     0   511   501  0.000000000E+00  0.000000000E+00  5.514746728E+02  5.514746728E+02  0.000000000E+00  0.00000E+00  9.000E+00
      21    -1     0     0   501   502  0.000000000E+00  0.000000000E+00 -9.987193701E+01  9.987193701E+01  0.000000000E+00  0.00000E+00  9.000E+00
      25     1     1     2     0     0 -1.540665251E+02  2.038361695E+01  6.685417763E+01  2.103484420E+02  1.250000000E+02  0.00000E+00  9.000E+00
      25     1     1     2     0     0  1.354137798E+02 -3.036908879E+01  2.978912552E+02  3.516011565E+02  1.250000000E+02  0.00000E+00  9.000E+00
      21     1     1     2   511   502  1.865274532E+01  9.985471840E+00  8.685730286E+01  8.939701122E+01  1.348699152E-06  0.00000E+00  9.000E+00
#rwgt            1           1   2.6539339496931422E-002           3      260344           0
</event>
<event>
      5   9999  4.23364E-02  1.00401E+02 -1.00000E+00  1.23750E-01
      21    -1     0     0   502   501  0.000000000E+00  0.000000000E+00  1.258285808E+03  1.258285808E+03  0.000000000E+00  0.00000E+00  9.000E+00
      21    -1     0     0   501   512  0.000000000E+00  0.000000000E+00 -4.507958830E+02  4.507958830E+02  0.000000000E+00  0.00000E+00  9.000E+00
      25     1     1     2     0     0 -2.640926877E+02 -2.696827923E+02  1.113603233E+03  1.182459689E+03  1.250000000E+02  0.00000E+00  9.000E+00
      25     1     1     2     0     0  2.061059666E+02  1.877203399E+02 -2.965342245E+02  4.257653600E+02  1.250000000E+02  0.00000E+00  9.000E+00
      21     1     1     2   502   512  5.798672106E+01  8.196245244E+01 -9.579082994E+00  1.008566421E+02  1.788139343E-06  0.00000E+00  9.000E+00
#rwgt            1           1   4.3024865901290309E-002           3      260467           0
</event>
<event>
      5   9999  3.19816E-02  2.63500E+02 -1.00000E+00  1.07456E-01
      21    -1     0     0   502   501  0.000000000E+00  0.000000000E+00  4.990522609E+02  4.990522609E+02  0.000000000E+00  0.00000E+00  9.000E+00
      21    -1     0     0   511   502  0.000000000E+00  0.000000000E+00 -1.541238700E+03  1.541238700E+03  0.000000000E+00  0.00000E+00  9.000E+00
      25     1     1     2     0     0  3.384896111E+02  3.327299584E+02 -1.043822685E+03  1.153462283E+03  1.250000000E+02  0.00000E+00  9.000E+00
      25     1     1     2     0     0 -3.047761446E+02 -7.139579565E+01  3.260023422E+02  4.689225790E+02  1.250000000E+02  0.00000E+00  9.000E+00
      21     1     1     2   511   501 -3.371346648E+01 -2.613341628E+02 -3.243660964E+02  4.179060983E+02  5.394796609E-06  0.00000E+00  9.000E+00
#rwgt            1           1   2.3981948033042072E-002           3      260535           0
</event>
<event>
      5   9999  3.19816E-02  3.80486E+01 -1.00000E+00  1.46200E-01
      21    -1     0     0   502   512  0.000000000E+00  0.000000000E+00  1.226446268E+03  1.226446268E+03  0.000000000E+00  0.00000E+00  9.000E+00
      21    -1     0     0   501   502  0.000000000E+00  0.000000000E+00 -5.225622676E+02  5.225622676E+02  0.000000000E+00  0.00000E+00  9.000E+00
      25     1     1     2     0     0  1.563663792E+02  4.044427232E+02  1.008566895E+03  1.104923772E+03  1.250000000E+02  0.00000E+00  9.000E+00
      25     1     1     2     0     0 -1.183261076E+02 -4.052397344E+02 -3.655850014E+02  5.722741505E+02  1.250000000E+02  0.00000E+00  9.000E+00
      21     1     1     2   501   512 -3.804027164E+01  7.970111886E-01  6.090210675E+01  7.181061273E+01  6.743495762E-07  0.00000E+00  9.000E+00
#rwgt            1           1   2.4764213902060007E-002           3      260665           0
</event>
<event>
      5   9999  3.19816E-02  5.85377E+02 -1.00000E+00  9.69451E-02
      21    -1     0     0   502   501  0.000000000E+00  0.000000000E+00  2.707736640E+02  2.707736640E+02  0.000000000E+00  0.00000E+00  9.000E+00
       2    -1     0     0   501     0  0.000000000E+00  0.000000000E+00 -1.836624070E+03  1.836624070E+03  0.000000000E+00  0.00000E+00  9.000E+00
      25     1     1     2     0     0  5.380552687E+02  1.175638194E+02 -5.741832886E+02  8.053795209E+02  1.250000000E+02  0.00000E+00  9.000E+00
      25     1     1     2     0     0 -4.285499901E+01  1.945938030E+02 -1.579997611E+02  2.833588248E+02  1.250000000E+02  0.00000E+00  9.000E+00
       2     1     1     2   502     0 -4.952002697E+02 -3.121576224E+02 -8.336673565E+02  1.018659388E+03  1.078959322E-05  0.00000E+00  9.000E+00
#rwgt            2          13   1.3503261770920051E-003           3      260837           0
</event>
<event>
      5   9999  3.19816E-02  3.25186E+01 -1.00000E+00  1.50647E-01
      21    -1     0     0   502   501  0.000000000E+00  0.000000000E+00  3.446095295E+02  3.446095295E+02  0.000000000E+00  0.00000E+00  9.000E+00
      21    -1     0     0   501   511  0.000000000E+00  0.000000000E+00 -1.283617039E+02  1.283617039E+02  0.000000000E+00  0.00000E+00  9.000E+00
      25     1     1     2     0     0  6.364432224E+01 -1.092882653E+02  1.387062612E+02  2.255192931E+02  1.250000000E+02  0.00000E+00  9.000E+00
      25     1     1     2     0     0 -7.736865136E+01  1.387688437E+02  6.230737522E+01  2.115417434E+02  1.250000000E+02  0.00000E+00  9.000E+00
      21     1     1     2   502   511  1.372432913E+01 -2.948057848E+01  1.523418916E+01  3.591019684E+01  8.596304120E-07  0.00000E+00  9.000E+00
#rwgt            1           1   2.8798683505355752E-002           3      260856           0
</event>
<event>
      5   9999  3.19816E-02  2.73669E+02 -1.00000E+00  1.06905E-01
      21    -1     0     0   502   501  0.000000000E+00  0.000000000E+00  3.911396665E+02  3.911396665E+02  0.000000000E+00  0.00000E+00  9.000E+00
      21    -1     0     0   512   502  0.000000000E+00  0.000000000E+00 -2.197909835E+03  2.197909835E+03  0.000000000E+00  0.00000E+00  9.000E+00
      25     1     1     2     0     0 -5.641615777E+02  5.113751314E+02 -1.284339651E+03  1.498311099E+03  1.250000000E+02  0.00000E+00  9.000E+00
      25     1     1     2     0     0  4.541821596E+02 -2.607774931E+02 -4.484318003E+01  5.402982933E+02  1.250000000E+02  0.00000E+00  9.000E+00
      21     1     1     2   512   501  1.099794181E+02 -2.505976384E+02 -4.775873374E+02  5.504401090E+02  0.000000000E+00  0.00000E+00  9.000E+00
#rwgt            1           1   8.8706877746832103E-003           3      261031           0
</event>
<event>
      5   9999  3.19816E-02  3.36108E+01 -1.00000E+00  1.49689E-01
      21    -1     0     0   502   511  0.000000000E+00  0.000000000E+00  4.379770443E+02  4.379770443E+02  0.000000000E+00  0.00000E+00  9.000E+00
      21    -1     0     0   501   502  0.000000000E+00  0.000000000E+00 -8.412767824E+02  8.412767824E+02  0.000000000E+00  0.00000E+00  9.000E+00
      25     1     1     2     0     0 -2.919875143E+01 -3.202323676E+01 -1.422247670E+02  1.942445344E+02  1.250000000E+02  0.00000E+00  9.000E+00
      25     1     1     2     0     0  2.735511120E+00  1.130168040E+01 -6.664865452E+02  6.782068460E+02  1.250000000E+02  0.00000E+00  9.000E+00
      21     1     1     2   501   511  2.646324031E+01  2.072155636E+01  4.054115741E+02  4.068024464E+02  5.394796609E-06  0.00000E+00  9.000E+00
#rwgt            1           1   2.4607762210397573E-002           3      261075           0
</event>
<event>
      5   9999  3.19816E-02  2.17309E+01 -1.00000E+00  1.63449E-01
      21    -1     0     0   512   501  0.000000000E+00  0.000000000E+00  1.508209505E+03  1.508209505E+03  0.000000000E+00  0.00000E+00  9.000E+00
      21    -1     0     0   501   502  0.000000000E+00  0.000000000E+00 -1.544793195E+02  1.544793195E+02  0.000000000E+00  0.00000E+00  9.000E+00
      25     1     1     2     0     0 -3.275705680E+01 -2.661510895E+01  4.770507416E+02  4.949583809E+02  1.250000000E+02  0.00000E+00  9.000E+00
      25     1     1     2     0     0  2.108328209E+01  8.286026724E+00 -1.176602053E+02  1.731533624E+02  1.250000000E+02  0.00000E+00  9.000E+00
      21     1     1     2   512   502  1.167377471E+01  1.832908223E+01  9.943396493E+02  9.945770812E+02  1.868812365E-05  0.00000E+00  9.000E+00
#rwgt            1           1   2.6283860362765921E-002           3      261157           0
</event>
<event>
      5   9999  3.19816E-02  3.64843E+01 -1.00000E+00  1.47362E-01
       2    -1     0     0   502     0  0.000000000E+00  0.000000000E+00  1.673615077E+03  1.673615077E+03  0.000000000E+00  0.00000E+00  9.000E+00
      21    -1     0     0   501   502  0.000000000E+00  0.000000000E+00 -3.083500207E+02  3.083500207E+02  0.000000000E+00  0.00000E+00  9.000E+00
      25     1     1     2     0     0  3.969140677E+02  2.372426174E+02  5.368978376E+01  4.820087443E+02  1.250000000E+02  0.00000E+00  9.000E+00
      25     1     1     2     0     0 -3.652145672E+02 -2.191803864E+02  4.312942366E+02  6.189195751E+02  1.250000000E+02  0.00000E+00  9.000E+00
       2     1     1     2   501     0 -3.169950054E+01 -1.806223099E+01  8.802810356E+02  8.810367780E+02  1.525878906E-05  0.00000E+00  9.000E+00
#rwgt            1           1   3.0081083187626072E-002           3      261301           0
</event>
<event>
      5   9999  3.19816E-02  1.84650E+02 -1.00000E+00  1.12925E-01
      21    -1     0     0   502   501  0.000000000E+00  0.000000000E+00  1.851400092E+02  1.851400092E+02  0.000000000E+00  0.00000E+00  9.000E+00
       2    -1     0     0   501     0  0.000000000E+00  0.000000000E+00 -3.724485518E+03  3.724485518E+03  0.000000000E+00  0.00000E+00  9.000E+00
      25     1     1     2     0     0 -1.009171565E+02 -9.529010874E+01 -5.457204229E+02  5.768017487E+02  1.250000000E+02  0.00000E+00  9.000E+00
      25     1     1     2     0     0 -8.348121121E+01  1.049235517E+02  1.165152110E+02  2.172069490E+02  1.250000000E+02  0.00000E+00  9.000E+00
       2     1     1     2   502     0  1.843983677E+02 -9.633442912E+00 -3.110140297E+03  3.115616829E+03  4.315837288E-05  0.00000E+00  9.000E+00
#rwgt            1           1   2.7311898215032319E-002           3      261453           0
</event>
<event>
      5   9999  3.19816E-02  2.85233E+01 -1.00000E+00  1.54578E-01
      21    -1     0     0   502   501  0.000000000E+00  0.000000000E+00  4.005844077E+02  4.005844077E+02  0.000000000E+00  0.00000E+00  9.000E+00
      21    -1     0     0   511   502  0.000000000E+00  0.000000000E+00 -2.010175581E+02  2.010175581E+02  0.000000000E+00  0.00000E+00  9.000E+00
      25     1     1     2     0     0 -9.211464414E+01  8.928894678E+00 -7.947442840E+01  1.746597194E+02  1.250000000E+02  0.00000E+00  9.000E+00
      25     1     1     2     0     0  1.178136381E+02 -2.130396830E+01  3.276640337E+02  3.705706834E+02  1.250000000E+02  0.00000E+00  9.000E+00
      21     1     1     2   511   501 -2.569899394E+01  1.237507362E+01 -4.862275573E+01  5.637156297E+01  9.536743164E-07  0.00000E+00  9.000E+00
#rwgt            1           1   2.5034022059334381E-002           3      261532           0
</event>
<event>
      5   9999  3.19816E-02  1.30156E+02 -1.00000E+00  1.18890E-01
      21    -1     0     0   502   501  0.000000000E+00  0.000000000E+00  3.960707192E+02  3.960707192E+02  0.000000000E+00  0.00000E+00  9.000E+00
      21    -1     0     0   501   512  0.000000000E+00  0.000000000E+00 -5.027268754E+02  5.027268754E+02  0.000000000E+00  0.00000E+00  9.000E+00
      25     1     1     2     0     0  2.470888087E+02  2.477814048E+01  1.758728582E+02  3.289727920E+02  1.250000000E+02  0.00000E+00  9.000E+00
      25     1     1     2     0     0 -1.276638747E+02  2.697336828E+01  7.019705680E+01  1.938511137E+02  1.250000000E+02  0.00000E+00  9.000E+00
      21     1     1     2   502   512 -1.194249340E+02 -5.175150876E+01 -3.527260711E+02  3.759736889E+02  0.000000000E+00  0.00000E+00  9.000E+00
#rwgt            1           1   2.4239470842932948E-002           3      261618           0
</event>
<event>
      5   9999  3.19816E-02  2.69459E+01 -1.00000E+00  1.56351E-01
      21    -1     0     0   502   501  0.000000000E+00  0.000000000E+00  1.480579484E+02  1.480579484E+02  0.000000000E+00  0.00000E+00  9.000E+00
      21    -1     0     0   501   511  0.000000000E+00  0.000000000E+00 -2.013434278E+03  2.013434278E+03  0.000000000E+00  0.00000E+00  9.000E+00
      25     1     1     2     0     0  3.508172241E+02  1.630839225E+01 -9.694256607E+02  1.038628808E+03  1.250000000E+02  0.00000E+00  9.000E+00
      25     1     1     2     0     0 -3.604828580E+02 -4.146106326E+01 -2.121260735E+02  4.385081319E+02  1.250000000E+02  0.00000E+00  9.000E+00
      21     1     1     2   502   511  9.665633864E+00  2.515267101E+01 -6.838245954E+02  6.843552869E+02  1.078959322E-05  0.00000E+00  9.000E+00
#rwgt            1           1   3.4773348885303229E-002           3      261662           0
</event>
<event>
      5   9999  3.19816E-02  2.32408E+01 -1.00000E+00  1.61162E-01
      21    -1     0     0   502   501  0.000000000E+00  0.000000000E+00  5.894900620E+02  5.894900620E+02  0.000000000E+00  0.00000E+00  9.000E+00
      21    -1     0     0   501   512  0.000000000E+00  0.000000000E+00 -2.725403153E+02  2.725403153E+02  0.000000000E+00  0.00000E+00  9.000E+00
      25     1     1     2     0     0  7.547662079E+01 -1.498756540E+02  3.800362909E+02  4.338340862E+02  1.250000000E+02  0.00000E+00  9.000E+00
      25     1     1     2     0     0 -8.384787758E+01  1.281948118E+02  1.281130868E+02  2.355893448E+02  1.250000000E+02  0.00000E+00  9.000E+00
      21     1     1     2   502   512  8.371256798E+00  2.168084216E+01 -1.911996311E+02  1.926069464E+02  3.814697266E-06  0.00000E+00  9.000E+00
#rwgt            1           1   2.5926102978541910E-002           3      261824           0
</event>
<event>
      5   9999  3.19816E-02  1.96701E+01 -1.00000E+00  1.66967E-01
      21    -1     0     0   502   501  0.000000000E+00  0.000000000E+00  5.083979880E+01  5.083979880E+01  0.000000000E+00  0.00000E+00  9.000E+00
      21    -1     0     0   501   511  0.000000000E+00  0.000000000E+00 -1.119678216E+03  1.119678216E+03  0.000000000E+00  0.00000E+00  9.000E+00
      25     1     1     2     0     0 -3.504367989E-01 -1.818998451E+02 -5.082716076E+02  5.541233649E+02  1.250000000E+02  0.00000E+00  9.000E+00
      25     1     1     2     0     0  1.997815893E+01  1.806093699E+02 -4.193311418E+02  4.737958187E+02  1.250000000E+02  0.00000E+00  9.000E+00
      21     1     1     2   502   511 -1.962772213E+01  1.290475220E+00 -1.412356679E+02  1.425988313E+02  0.000000000E+00  0.00000E+00  9.000E+00
#rwgt            1           1   2.8917840312653053E-002           3      261922           0
</event>
<event>
      5   9999  3.19816E-02  6.96822E+01 -1.00000E+00  1.31321E-01
      21    -1     0     0   502   501  0.000000000E+00  0.000000000E+00  1.073004869E+03  1.073004869E+03  0.000000000E+00  0.00000E+00  9.000E+00
      21    -1     0     0   501   512  0.000000000E+00  0.000000000E+00 -5.560882904E+02  5.560882904E+02  0.000000000E+00  0.00000E+00  9.000E+00
      25     1     1     2     0     0 -1.791479971E+02 -3.268043054E+01  9.969050702E+02  1.021081160E+03  1.250000000E+02  0.00000E+00  9.000E+00
      25     1     1     2     0     0  2.300920379E+02  8.022316182E+01 -4.602841866E+02  5.355974552E+02  1.250000000E+02  0.00000E+00  9.000E+00
      21     1     1     2   502   512 -5.094404079E+01 -4.754273128E+01 -1.970430529E+01  7.241454437E+01  1.390207266E-06  0.00000E+00  9.000E+00
#rwgt            2          11   7.9554908412381442E-003           3      262177           0
</event>
<event>
      5   9999  3.19816E-02  2.02686E+01 -1.00000E+00  1.65892E-01
      21    -1     0     0   502   501  0.000000000E+00  0.000000000E+00  5.226796935E+02  5.226796935E+02  0.000000000E+00  0.00000E+00  9.000E+00
      21    -1     0     0   511   502  0.000000000E+00  0.000000000E+00 -1.067091272E+02  1.067091272E+02  0.000000000E+00  0.00000E+00  9.000E+00
      25     1     1     2     0     0 -2.079253244E+01 -1.964917207E+02  2.110902293E+02  3.150006518E+02  1.250000000E+02  0.00000E+00  9.000E+00
      25     1     1     2     0     0  1.761185999E+01  1.764742039E+02  1.954797478E+02  2.920456369E+02  1.250000000E+02  0.00000E+00  9.000E+00
      21     1     1     2   511   501  3.180672445E+00  2.001751687E+01  9.400589197E+00  2.234253200E+01  2.064765462E-07  0.00000E+00  9.000E+00
#rwgt            1           1   3.5128023715656737E-002           3      262212           0
</event>
<event>
      5   9999  3.19816E-02  1.46709E+02 -1.00000E+00  1.16777E-01
      21    -1     0     0   512   501  0.000000000E+00  0.000000000E+00  1.098250857E+03  1.098250857E+03  0.000000000E+00  0.00000E+00  9.000E+00
      21    -1     0     0   501   502  0.000000000E+00  0.000000000E+00 -7.777637756E+02  7.777637756E+02  0.000000000E+00  0.00000E+00  9.000E+00
      25     1     1     2     0     0  7.463778074E+02  3.766604738E+02  3.054548072E+01  8.458788154E+02  1.250000000E+02  0.00000E+00  9.000E+00
      25     1     1     2     0     0 -6.007355167E+02 -3.943175173E+02  2.801070886E+01  7.299171633E+02  1.250000000E+02  0.00000E+00  9.000E+00
      21     1     1     2   512   502 -1.456422908E+02  1.765704352E+01  2.619308923E+02  3.002186543E+02  0.000000000E+00  0.00000E+00  9.000E+00
#rwgt            1           1   3.2687353259814887E-002           3      262396           0
</event>
<event>
      5   9999  3.19816E-02  1.86297E+02 -1.00000E+00  1.12782E-01
      21    -1     0     0   511   501  0.000000000E+00  0.000000000E+00  6.207206834E+02  6.207206834E+02  0.000000000E+00  0.00000E+00  9.000E+00
      21    -1     0     0   501   502  0.000000000E+00  0.000000000E+00 -2.465425092E+02  2.465425092E+02  0.000000000E+00  0.00000E+00  9.000E+00
      25     1     1     2     0     0  2.412636025E+02  2.471651526E+02  1.625597079E+02  4.016832050E+02  1.250000000E+02  0.00000E+00  9.000E+00
      25     1     1     2     0     0 -7.417907173E+01 -1.647675057E+02  6.689853640E+01  2.296764676E+02  1.250000000E+02  0.00000E+00  9.000E+00
      21     1     1     2   511   502 -1.670845308E+02 -8.239764694E+01  1.447199299E+02  2.359035200E+02  1.907348633E-06  0.00000E+00  9.000E+00
#rwgt            1           1   2.8962876640020303E-002           3      262475           0
</event>
<event>
      5   9999  3.19816E-02  6.01362E+01 -1.00000E+00  1.34651E-01
      21    -1     0     0   502   512  0.000000000E+00  0.000000000E+00  2.166922032E+02  2.166922032E+02  0.000000000E+00  0.00000E+00  9.000E+00
      21    -1     0     0   501   502  0.000000000E+00  0.000000000E+00 -8.153801695E+02  8.153801695E+02  0.000000000E+00  0.00000E+00  9.000E+00
      25     1     1     2     0     0  6.180849559E-01  2.332513697E+02 -5.949261266E+02  6.511287735E+02  1.250000000E+02  0.00000E+00  9.000E+00
      25     1     1     2     0     0  4.762053900E+00 -1.733563122E+02 -1.235482906E+02  2.469094333E+02  1.250000000E+02  0.00000E+00  9.000E+00
      21     1     1     2   501   512 -5.380138855E+00 -5.989505754E+01  1.197864509E+02  1.340341659E+02  3.568322551E-06  0.00000E+00  9.000E+00
#rwgt            1           1   2.8964446931293429E-002           3      262530           0
</event>
<event>
      5   9999  3.19816E-02  7.84234E+01 -1.00000E+00  1.28769E-01
      21    -1     0     0   502   511  0.000000000E+00  0.000000000E+00  6.907893866E+02  6.907893866E+02  0.000000000E+00  0.00000E+00  9.000E+00
      21    -1     0     0   501   502  0.000000000E+00  0.000000000E+00 -7.996715971E+01  7.996715971E+01  0.000000000E+00  0.00000E+00  9.000E+00
      25     1     1     2     0     0  8.553500732E+01 -6.131879393E-01  6.440252296E+01  1.645882694E+02  1.250000000E+02  0.00000E+00  9.000E+00
      25     1     1     2     0     0 -1.049578578E+02 -7.536695876E+01  4.269586867E+02  4.632656371E+02  1.250000000E+02  0.00000E+00  9.000E+00
      21     1     1     2   501   511  1.942285043E+01  7.598014670E+01  1.194610172E+02  1.429026398E+02  2.336015456E-06  0.00000E+00  9.000E+00
#rwgt            1           1   2.6314497501493131E-002           3      262626           0
</event>
<event>
      5   9999  3.19816E-02  1.20148E+02 -1.00000E+00  1.20346E-01
      21    -1     0     0   512   501  0.000000000E+00  0.000000000E+00  4.780505575E+02  4.780505575E+02  0.000000000E+00  0.00000E+00  9.000E+00
      21    -1     0     0   501   502  0.000000000E+00  0.000000000E+00 -8.413694205E+02  8.413694205E+02  0.000000000E+00  0.00000E+00  9.000E+00
      25     1     1     2     0     0 -2.060787063E+02 -7.347207716E+01  2.598101059E+02  3.619293722E+02  1.250000000E+02  0.00000E+00  9.000E+00
      25     1     1     2     0     0  3.066307325E+02  7.708952076E+00 -7.268536485E+02  7.987634571E+02  1.250000000E+02  0.00000E+00  9.000E+00
      21     1     1     2   512   502 -1.005520262E+02  6.576312509E+01  1.037246796E+02  1.587271487E+02  1.348699152E-06  0.00000E+00  9.000E+00
#rwgt            2          11   4.1027100089728588E-003           3      262891           0
</event>
<event>
      5   9999  3.19816E-02  6.28349E+01 -1.00000E+00  1.33641E-01
      21    -1     0     0   502   501  0.000000000E+00  0.000000000E+00  1.176320769E+03  1.176320769E+03  0.000000000E+00  0.00000E+00  9.000E+00
      21    -1     0     0   501   511  0.000000000E+00  0.000000000E+00 -1.891850859E+02  1.891850859E+02  0.000000000E+00  0.00000E+00  9.000E+00
      25     1     1     2     0     0 -1.406076770E+02 -3.943299025E+02  6.574646698E+02  7.893993811E+02  1.250000000E+02  0.00000E+00  9.000E+00
      25     1     1     2     0     0  1.735989228E+02  3.408527681E+02  3.163417925E+02  5.118733488E+02  1.250000000E+02  0.00000E+00  9.000E+00
      21     1     1     2   502   511 -3.299124585E+01  5.347713437E+01  1.332922059E+01  6.423312482E+01  8.760057960E-07  0.00000E+00  9.000E+00
#rwgt            1           1   2.9662371312146683E-002           3      262911           0
</event>
<event>
      5   9999  3.19816E-02  1.54218E+02 -1.00000E+00  1.15918E-01
       4    -1     0     0   502     0  0.000000000E+00  0.000000000E+00  8.742481681E+02  8.742481681E+02  0.000000000E+00  0.00000E+00  9.000E+00
      21    -1     0     0   501   502  0.000000000E+00  0.000000000E+00 -1.251663368E+03  1.251663368E+03  0.000000000E+00  0.00000E+00  9.000E+00
      25     1     1     2     0     0  4.707847358E+02 -1.295708350E+02 -2.084483527E+02  5.454379749E+02  1.250000000E+02  0.00000E+00  9.000E+00
      25     1     1     2     0     0 -3.661332567E+02  2.428459145E+02 -8.052400440E+02  9.257776343E+02  1.250000000E+02  0.00000E+00  9.000E+00
       4     1     1     2   501     0 -1.046514791E+02 -1.132750796E+02  6.362731967E+02  6.546959268E+02  0.000000000E+00  0.00000E+00  9.000E+00
#rwgt            1           1   3.1808054907650811E-002           3      263019           0
</event>
<event>
      5   9999  3.19816E-02  5.16095E+01 -1.00000E+00  1.38295E-01
      21    -1     0     0   511   501  0.000000000E+00  0.000000000E+00  3.954890231E+02  3.954890231E+02  0.000000000E+00  0.00000E+00  9.000E+00
      21    -1     0     0   501   502  0.000000000E+00  0.000000000E+00 -1.406277511E+02  1.406277511E+02  0.000000000E+00  0.00000E+00  9.000E+00
      25     1     1     2     0     0  9.521559551E+01  8.121719292E+01  1.707749846E+01  1.777044822E+02  1.250000000E+02  0.00000E+00  9.000E+00
      25     1     1     2     0     0 -1.356161418E+02 -1.133315721E+02  1.882388416E+02  2.868704318E+02  1.250000000E+02  0.00000E+00  9.000E+00
      21     1     1     2   511   502  4.040054625E+01  3.211437916E+01  4.954493188E+01  7.154186020E+01  0.000000000E+00  0.00000E+00  9.000E+00
#rwgt            1           1   2.6832164387297443E-002           3      263119           0
</event>
<event>
      5   9999  3.19816E-02  3.98389E+01 -1.00000E+00  1.44949E-01
      21    -1     0     0   502   501  0.000000000E+00  0.000000000E+00  2.449098135E+03  2.449098135E+03  0.000000000E+00  0.00000E+00  9.000E+00
      -4    -1     0     0     0   502  0.000000000E+00  0.000000000E+00 -4.869923687E+02  4.869923687E+02  0.000000000E+00  0.00000E+00  9.000E+00
      25     1     1     2     0     0 -1.753114271E+02  4.452813442E+02  2.804706286E+02  5.685933040E+02  1.250000000E+02  0.00000E+00  9.000E+00
      25     1     1     2     0     0  2.028519926E+02 -4.164950255E+02  1.994855701E+03  2.051753227E+03  1.250000000E+02  0.00000E+00  9.000E+00
      -4     1     1     2     0   501 -2.754056554E+01 -2.878631863E+01 -3.132205633E+02  3.157439725E+02  3.814697266E-06  0.00000E+00  9.000E+00
#rwgt            1           1   2.5668954261110759E-002           3      263199           0
</event>
<event>
      5   9999  3.19816E-02  5.57663E+01 -1.00000E+00  1.36424E-01
      21    -1     0     0   502   501  0.000000000E+00  0.000000000E+00  5.834248454E+02  5.834248454E+02  0.000000000E+00  0.00000E+00  9.000E+00
      21    -1     0     0   501   511  0.000000000E+00  0.000000000E+00 -3.080403376E+02  3.080403376E+02  0.000000000E+00  0.00000E+00  9.000E+00
      25     1     1     2     0     0 -2.646432209E+02  8.426600413E+01 -1.936786199E+01  3.051834004E+02  1.250000000E+02  0.00000E+00  9.000E+00
      25     1     1     2     0     0  2.686200251E+02 -2.864172500E+01  3.810523674E+02  4.835317704E+02  1.250000000E+02  0.00000E+00  9.000E+00
      21     1     1     2   502   511 -3.976804228E+00 -5.562427913E+01 -8.629999767E+01  1.027500122E+02  1.348699152E-06  0.00000E+00  9.000E+00
#rwgt            1           1   2.8970540456685841E-002           3      263372           0
</event>
<event>
      5   9999  3.19816E-02  1.07186E+02 -1.00000E+00  1.22487E-01
       2    -1     0     0   502     0  0.000000000E+00  0.000000000E+00  2.929273596E+03  2.929273596E+03  0.000000000E+00  0.00000E+00  9.000E+00
      21    -1     0     0   501   502  0.000000000E+00  0.000000000E+00 -2.538733896E+02  2.538733896E+02  0.000000000E+00  0.00000E+00  9.000E+00
      25     1     1     2     0     0  2.344234806E+02  4.214380765E+02  5.892161707E+02  7.715990646E+02  1.250000000E+02  0.00000E+00  9.000E+00
      25     1     1     2     0     0 -1.345156762E+02 -3.826148226E+02  1.180678163E+02  4.405151290E+02  1.250000000E+02  0.00000E+00  9.000E+00
       2     1     1     2   501     0 -9.990780441E+01 -3.882325393E+01  1.968116220E+03  1.971032792E+03  0.000000000E+00  0.00000E+00  9.000E+00
#rwgt            1           1   2.8174051807414772E-002           3      263486           0
</event>
<event>
      5   9999  3.19816E-02  4.99483E+01 -1.00000E+00  1.39101E-01
      21    -1     0     0   502   511  0.000000000E+00  0.000000000E+00  6.549804305E+02  6.549804305E+02  0.000000000E+00  0.00000E+00  9.000E+00
      21    -1     0     0   501   502  0.000000000E+00  0.000000000E+00 -1.560833564E+02  1.560833564E+02  0.000000000E+00  0.00000E+00  9.000E+00
      25     1     1     2     0     0  1.559135408E+02  1.519273904E+02  6.368155089E+01  2.589812814E+02  1.250000000E+02  0.00000E+00  9.000E+00
      25     1     1     2     0     0 -1.676000987E+02 -2.004892586E+02  3.675330069E+02  4.679650062E+02  1.250000000E+02  0.00000E+00  9.000E+00
      21     1     1     2   501   511  1.168655786E+01  4.856186818E+01  6.768251629E+01  8.411749929E+01  1.651812370E-06  0.00000E+00  9.000E+00
#rwgt            1           1   2.8936171793060440E-002           3      263555           0
</event>
<event>
      5   9999  3.19816E-02  5.87194E+01 -1.00000E+00  1.35206E-01
      21    -1     0     0   512   501  0.000000000E+00  0.000000000E+00  7.172594107E+02  7.172594107E+02  0.000000000E+00  0.00000E+00  9.000E+00
      21    -1     0     0   501   502  0.000000000E+00  0.000000000E+00 -1.192782731E+02  1.192782731E+02  0.000000000E+00  0.00000E+00  9.000E+00
      25     1     1     2     0     0 -5.381051731E+01 -1.516009344E+02  8.293754547E+01  2.199592042E+02  1.250000000E+02  0.00000E+00  9.000E+00
      25     1     1     2     0     0  8.961620587E+01  1.981403981E+02  2.873064556E+02  3.813930795E+02  1.250000000E+02  0.00000E+00  9.000E+00
      21     1     1     2   512   502 -3.580568856E+01 -4.653946369E+01  2.277371365E+02  2.351854000E+02  3.814697266E-06  0.00000E+00  9.000E+00
#rwgt            1           1   2.3876708033749874E-002           3      263626           0
</event>
<event>
      5   9999  3.19816E-02  3.90288E+01 -1.00000E+00  1.45505E-01
      21    -1     0     0   502   501  0.000000000E+00  0.000000000E+00  7.182845449E+02  7.182845449E+02  0.000000000E+00  0.00000E+00  9.000E+00
      21    -1     0     0   501   511  0.000000000E+00  0.000000000E+00 -4.498527532E+02  4.498527532E+02  0.000000000E+00  0.00000E+00  9.000E+00
      25     1     1     2     0     0  2.561490810E+02  3.780909084E+01  4.751658931E+02  5.553823052E+02  1.250000000E+02  0.00000E+00  9.000E+00
      25     1     1     2     0     0 -2.231836217E+02 -1.691594322E+01  1.204512700E+02  2.832500425E+02  1.250000000E+02  0.00000E+00  9.000E+00
      21     1     1     2   502   511 -3.296545928E+01 -2.089314762E+01 -3.271853714E+02  3.295049504E+02  3.814697266E-06  0.00000E+00  9.000E+00
#rwgt            1           1   2.7429921008859468E-002           3      263675           0
</event>
<event>
      5   9999  3.19816E-02  1.75265E+01 -1.00000E+00  1.71243E-01
      21    -1     0     0   502   512  0.000000000E+00  0.000000000E+00  2.103478892E+02  2.103478892E+02  0.000000000E+00  0.00000E+00  9.000E+00
      21    -1     0     0   501   502  0.000000000E+00  0.000000000E+00 -6.173274526E+02  6.173274526E+02  0.000000000E+00  0.00000E+00  9.000E+00
      25     1     1     2     0     0 -6.788043435E+00  8.121444666E+00 -5.821139877E+02  5.954777327E+02  1.250000000E+02  0.00000E+00  9.000E+00
      25     1     1     2     0     0  2.396071815E+01 -4.617375146E+00  1.725796905E+02  2.144858637E+02  1.250000000E+02  0.00000E+00  9.000E+00
      21     1     1     2   501   512 -1.717267471E+01 -3.504069520E+00  2.554733875E+00  1.771174540E+01  2.190014490E-07  0.00000E+00  9.000E+00
#rwgt            1           1   2.6904698156130783E-002           3      263743           0
</event>
<event>
      5   9999  3.19816E-02  8.36967E+01 -1.00000E+00  1.27407E-01
      21    -1     0     0   502   511  0.000000000E+00  0.000000000E+00  4.707702927E+02  4.707702927E+02  0.000000000E+00  0.00000E+00  9.000E+00
      21    -1     0     0   501   502  0.000000000E+00  0.000000000E+00 -3.413554820E+02  3.413554820E+02  0.000000000E+00  0.00000E+00  9.000E+00
      25     1     1     2     0     0  2.586611214E+02 -1.249985487E+02  2.694027004E+02  4.131985333E+02  1.250000000E+02  0.00000E+00  9.000E+00
      25     1     1     2     0     0 -1.760490774E+02  1.384293903E+02 -1.725506958E+02  3.091192591E+02  1.250000000E+02  0.00000E+00  9.000E+00
      21     1     1     2   501   511 -8.261204409E+01 -1.343084162E+01  3.256280600E+01  8.980798222E+01  1.066240300E-06  0.00000E+00  9.000E+00
#rwgt            1           1   2.8288348234760324E-002           3      263937           0
</event>
<event>
      5   9999  3.19816E-02  1.65854E+02 -1.00000E+00  1.14690E-01
      21    -1     0     0   502   501  0.000000000E+00  0.000000000E+00  1.267586243E+03  1.267586243E+03  0.000000000E+00  0.00000E+00  9.000E+00
       2    -1     0     0   501     0  0.000000000E+00  0.000000000E+00 -4.348171521E+02  4.348171521E+02  0.000000000E+00  0.00000E+00  9.000E+00
      25     1     1     2     0     0 -2.172621686E+02 -3.221714787E+02  4.892199396E+02  6.371486960E+02  1.250000000E+02  0.00000E+00  9.000E+00
      25     1     1     2     0     0  2.844658018E+02  1.705423831E+02  6.365446881E+02  7.285737003E+02  1.250000000E+02  0.00000E+00  9.000E+00
       2     1     1     2   502     0 -6.720363319E+01  1.516290956E+02 -2.929955363E+02  3.366809992E+02  3.814697266E-06  0.00000E+00  9.000E+00
#rwgt            1           1   2.5165930169658134E-002           3      264033           0
</event>
<event>
      5   9999  3.19816E-02  4.26384E+01 -1.00000E+00  1.43140E-01
      21    -1     0     0   502   501  0.000000000E+00  0.000000000E+00  1.229154227E+03  1.229154227E+03  0.000000000E+00  0.00000E+00  9.000E+00
      21    -1     0     0   511   502  0.000000000E+00  0.000000000E+00 -6.094956175E+01  6.094956175E+01  0.000000000E+00  0.00000E+00  9.000E+00
      25     1     1     2     0     0 -1.711328018E+02 -6.907620596E+01  9.305451511E+02  9.568684530E+02  1.250000000E+02  0.00000E+00  9.000E+00
      25     1     1     2     0     0  1.290771636E+02  6.205056511E+01  1.825208679E+02  2.635337815E+02  1.250000000E+02  0.00000E+00  9.000E+00
      21     1     1     2   511   501  4.205563824E+01  7.025640844E+00  5.513864582E+01  6.970155379E+01  6.743495762E-07  0.00000E+00  9.000E+00
#rwgt            1           1   2.7675513509183899E-002           3      264095           0
</event>
<event>
      5   9999  3.19816E-02  1.43236E+02 -1.00000E+00  1.17193E-01
       1    -1     0     0   502     0  0.000000000E+00  0.000000000E+00  3.382532134E+03  3.382532134E+03  0.000000000E+00  0.00000E+00  9.000E+00
      21    -1     0     0   501   502  0.000000000E+00  0.000000000E+00 -2.129339128E+02  2.129339128E+02  0.000000000E+00  0.00000E+00  9.000E+00
      25     1     1     2     0     0  1.166982090E+01  5.168287538E+01  1.218420282E+02  1.824219947E+02  1.250000000E+02  0.00000E+00  9.000E+00
      25     1     1     2     0     0  1.049203022E+02  3.152289152E+01 -1.428862404E+02  2.191881388E+02  1.250000000E+02  0.00000E+00  9.000E+00
       1     1     1     2   501     0 -1.165901231E+02 -8.320576690E+01  3.190642433E+03  3.193855913E+03  0.000000000E+00  0.00000E+00  9.000E+00
#rwgt            1           1   2.8653137167679459E-002           3      264221           0
</event>
<event>
      5   9999  3.19816E-02  6.25598E+01 -1.00000E+00  1.33741E-01
      21    -1     0     0   502   511  0.000000000E+00  0.000000000E+00  9.153161187E+02  9.153161187E+02  0.000000000E+00  0.00000E+00  9.000E+00
      21    -1     0     0   501   502  0.000000000E+00  0.000000000E+00 -8.567717912E+02  8.567717912E+02  0.000000000E+00  0.00000E+00  9.000E+00
      25     1     1     2     0     0  3.841167284E+02 -1.654394197E+02  7.124142868E+02  8.355088142E+02  1.250000000E+02  0.00000E+00  9.000E+00
      25     1     1     2     0     0 -3.986813460E+02  2.262801735E+02 -7.087975358E+02  8.533278850E+02  1.250000000E+02  0.00000E+00  9.000E+00
      21     1     1     2   501   511  1.456461759E+01 -6.084075379E+01  5.492757658E+01  8.325121066E+01  9.536743164E-07  0.00000E+00  9.000E+00
#rwgt            1           1   3.0456805325696584E-002           3      264288           0
</event>
<event>
      5   9999  3.19816E-02  1.76844E+02 -1.00000E+00  1.13629E-01
      21    -1     0     0   502   501  0.000000000E+00  0.000000000E+00  9.634746219E+01  9.634746219E+01  0.000000000E+00  0.00000E+00  9.000E+00
       2    -1     0     0   501     0  0.000000000E+00  0.000000000E+00 -1.315616238E+03  1.315616238E+03  0.000000000E+00  0.00000E+00  9.000E+00
      25     1     1     2     0     0  6.014639197E+01  8.323009003E+01 -7.793080760E+02  7.959214243E+02  1.250000000E+02  0.00000E+00  9.000E+00
      25     1     1     2     0     0 -8.145304008E+01  9.232604497E+01 -4.178274345E+01  1.803593468E+02  1.250000000E+02  0.00000E+00  9.000E+00
       2     1     1     2   502     0  2.130664812E+01 -1.755561350E+02 -3.981779565E+02  4.356829292E+02  5.394796609E-06  0.00000E+00  9.000E+00
#rwgt            1           1   2.7419158568812517E-002           3      264454           0
</event>
<event>
      5   9999  3.19816E-02  2.41739E+02 -1.00000E+00  1.08731E-01
      21    -1     0     0   502   501  0.000000000E+00  0.000000000E+00  6.513070025E+02  6.513070025E+02  0.000000000E+00  0.00000E+00  9.000E+00
      21    -1     0     0   501   511  0.000000000E+00  0.000000000E+00 -1.239740103E+03  1.239740103E+03  0.000000000E+00  0.00000E+00  9.000E+00
      25     1     1     2     0     0 -1.118126674E+02 -5.802307656E+02 -8.186331596E+01  6.095050586E+02  1.250000000E+02  0.00000E+00  9.000E+00
      25     1     1     2     0     0  8.288021903E+00  3.617804412E+02  2.698241846E+02  4.683843182E+02  1.250000000E+02  0.00000E+00  9.000E+00
      21     1     1     2   502   511  1.035246455E+02  2.184503245E+02 -7.763939688E+02  8.131577284E+02  1.525878906E-05  0.00000E+00  9.000E+00
#rwgt            1           1   2.4029519786869132E-002           3      264500           0
</event>
<event>
      5   9999  3.19816E-02  5.25223E+01 -1.00000E+00  1.37867E-01
      21    -1     0     0   502   501  0.000000000E+00  0.000000000E+00  1.465515541E+02  1.465515541E+02  0.000000000E+00  0.00000E+00  9.000E+00
       1    -1     0     0   501     0  0.000000000E+00  0.000000000E+00 -2.481699868E+03  2.481699868E+03  0.000000000E+00  0.00000E+00  9.000E+00
      25     1     1     2     0     0  2.013097826E+02 -4.731733264E+02 -7.079102538E+02  8.838441904E+02  1.250000000E+02  0.00000E+00  9.000E+00
      25     1     1     2     0     0 -2.529298321E+02  4.634797026E+02 -1.238596161E+03  1.352232371E+03  1.250000000E+02  0.00000E+00  9.000E+00
       1     1     1     2   502     0  5.162004948E+01  9.693623742E+00 -3.886418994E+02  3.921748613E+02  5.394796609E-06  0.00000E+00  9.000E+00
#rwgt            1           1   2.6600029730307582E-002           3      264603           0
</event>
<event>
      5   9999  3.19816E-02  9.68123E+01 -1.00000E+00  1.24464E-01
      21    -1     0     0   502   501  0.000000000E+00  0.000000000E+00  2.219878756E+02  2.219878756E+02  0.000000000E+00  0.00000E+00  9.000E+00
      21    -1     0     0   511   502  0.000000000E+00  0.000000000E+00 -3.472845221E+03  3.472845221E+03  0.000000000E+00  0.00000E+00  9.000E+00
      25     1     1     2     0     0  5.579844211E+02  5.818671651E+02 -1.061140047E+03  1.338491394E+03  1.250000000E+02  0.00000E+00  9.000E+00
      25     1     1     2     0     0 -4.765300064E+02 -5.295431214E+02 -1.563536607E+03  1.722721245E+03  1.250000000E+02  0.00000E+00  9.000E+00
      21     1     1     2   511   501 -8.145441466E+01 -5.232404364E+01 -6.261806909E+02  6.336204581E+02  1.078959322E-05  0.00000E+00  9.000E+00
#rwgt            1           1   1.8952757342350971E-002           3      264693           0
</event>
<event>
      5   9999  3.19816E-02  8.90642E+01 -1.00000E+00  1.26133E-01
      21    -1     0     0   512   501  0.000000000E+00  0.000000000E+00  1.480888277E+02  1.480888277E+02  0.000000000E+00  0.00000E+00  9.000E+00
      21    -1     0     0   501   502  0.000000000E+00  0.000000000E+00 -7.253187693E+02  7.253187693E+02  0.000000000E+00  0.00000E+00  9.000E+00
      25     1     1     2     0     0 -3.666028754E+01 -2.124875264E+02 -2.492608217E+02  3.524923868E+02  1.250000000E+02  0.00000E+00  9.000E+00
      25     1     1     2     0     0 -2.390959230E+01  2.777846907E+02 -2.983571023E+02  4.270573305E+02  1.250000000E+02  0.00000E+00  9.000E+00
      21     1     1     2   512   502  6.056987984E+01 -6.529716428E+01 -2.961201754E+01  9.385787974E+01  8.920806376E-07  0.00000E+00  9.000E+00
#rwgt            2          11   3.3028639586208642E-003           3      264884           0
</event>
<event>
      5   9999  3.19816E-02  6.48310E+01 -1.00000E+00  1.32930E-01
      21    -1     0     0   511   501  0.000000000E+00  0.000000000E+00  2.314962730E+02  2.314962730E+02  0.000000000E+00  0.00000E+00  9.000E+00
      21    -1     0     0   501   502  0.000000000E+00  0.000000000E+00 -3.848777025E+02  3.848777025E+02  0.000000000E+00  0.00000E+00  9.000E+00
      25     1     1     2     0     0  2.151679961E+02  5.642752932E+01 -1.317363549E+02  2.871598854E+02  1.250000000E+02  0.00000E+00  9.000E+00
      25     1     1     2     0     0 -2.081897908E+02  8.026833900E+00 -6.464546689E+01  2.514188844E+02  1.250000000E+02  0.00000E+00  9.000E+00
      21     1     1     2   511   502 -6.978205286E+00 -6.445436322E+01  4.300039232E+01  7.779520568E+01  1.066240300E-06  0.00000E+00  9.000E+00
#rwgt            1           1   2.8202112904543650E-002           3      264904           0
</event>
<event>
      5   9999  3.19816E-02  1.28601E+01 -1.00000E+00  1.83922E-01
      21    -1     0     0   512   501  0.000000000E+00  0.000000000E+00  6.865486222E+02  6.865486222E+02  0.000000000E+00  0.00000E+00  9.000E+00
      21    -1     0     0   501   502  0.000000000E+00  0.000000000E+00 -1.850754296E+02  1.850754296E+02  0.000000000E+00  0.00000E+00  9.000E+00
      25     1     1     2     0     0 -1.831037406E+02  2.718185867E+02  1.912434684E+02  3.995139398E+02  1.250000000E+02  0.00000E+00  9.000E+00
      25     1     1     2     0     0  1.703622687E+02 -2.700758124E+02  2.968442329E+02  4.535479530E+02  1.250000000E+02  0.00000E+00  9.000E+00
      21     1     1     2   512   502  1.274147188E+01 -1.742774356E+00  1.338549132E+01  1.856215898E+01  2.920019320E-07  0.00000E+00  9.000E+00
#rwgt            1           1   2.9604523592072683E-002           3      264974           0
</event>
<event>
      5   9999  3.19816E-02  1.19408E+02 -1.00000E+00  1.20459E-01
       2    -1     0     0   502     0  0.000000000E+00  0.000000000E+00  1.736389961E+03  1.736389961E+03  0.000000000E+00  0.00000E+00  9.000E+00
      21    -1     0     0   501   502  0.000000000E+00  0.000000000E+00 -1.816936012E+02  1.816936012E+02  0.000000000E+00  0.00000E+00  9.000E+00
      25     1     1     2     0     0  4.240518126E+02  1.407772956E+02  4.555074794E+02  6.501924719E+02  1.250000000E+02  0.00000E+00  9.000E+00
      25     1     1     2     0     0 -4.078739103E+02 -2.590845276E+02  7.689831397E+02  9.167584133E+02  1.250000000E+02  0.00000E+00  9.000E+00
       2     1     1     2   501     0 -1.617790227E+01  1.183072320E+02  3.302057407E+02  3.511326770E+02  3.814697266E-06  0.00000E+00  9.000E+00
#rwgt            2          18   7.4473023762657476E-004           3      265291           0
</event>
<event>
      5   9999  3.19816E-02  9.12586E+01 -1.00000E+00  1.25641E-01
      21    -1     0     0   502   511  0.000000000E+00  0.000000000E+00  2.062742965E+02  2.062742965E+02  0.000000000E+00  0.00000E+00  9.000E+00
      21    -1     0     0   501   502  0.000000000E+00  0.000000000E+00 -4.816851973E+02  4.816851973E+02  0.000000000E+00  0.00000E+00  9.000E+00
      25     1     1     2     0     0  7.053432824E+01 -2.804613961E+01  6.882447953E+01  1.616276164E+02  1.250000000E+02  0.00000E+00  9.000E+00
      25     1     1     2     0     0 -1.021528158E+02 -5.755996094E+01 -3.887074739E+02  4.248138971E+02  1.250000000E+02  0.00000E+00  9.000E+00
      21     1     1     2   501   511  3.161848760E+01  8.560610056E+01  4.447209355E+01  1.015179803E+02  1.651812370E-06  0.00000E+00  9.000E+00
#rwgt            1           1   2.7441038276381089E-002           3      265310           0
</event>
<event>
      5   9999  3.19816E-02  2.38927E+01 -1.00000E+00  1.60239E-01
      21    -1     0     0   512   501  0.000000000E+00  0.000000000E+00  6.685339408E+02  6.685339408E+02  0.000000000E+00  0.00000E+00  9.000E+00
      21    -1     0     0   501   502  0.000000000E+00  0.000000000E+00 -3.332409467E+02  3.332409467E+02  0.000000000E+00  0.00000E+00  9.000E+00
      25     1     1     2     0     0 -3.201228372E+01  2.081681187E+02 -2.472833866E+02  3.480414131E+02  1.250000000E+02  0.00000E+00  9.000E+00
      25     1     1     2     0     0  3.718323003E+01 -2.314945226E+02  5.640556415E+02  6.235030660E+02  1.250000000E+02  0.00000E+00  9.000E+00
      21     1     1     2   512   502 -5.170946309E+00  2.332640387E+01  1.852073919E+01  3.023040826E+01  6.743495762E-07  0.00000E+00  9.000E+00
#rwgt            1           1   2.8292801195377276E-002           3      265377           0
</event>
<event>
      5   9999  3.19816E-02  4.84391E+01 -1.00000E+00  1.39866E-01
      21    -1     0     0   502   501  0.000000000E+00  0.000000000E+00  5.390715110E+02  5.390715110E+02  0.000000000E+00  0.00000E+00  9.000E+00
      21    -1     0     0   511   502  0.000000000E+00  0.000000000E+00 -5.038997862E+02  5.038997862E+02  0.000000000E+00  0.00000E+00  9.000E+00
      25     1     1     2     0     0  2.150463658E+02  8.570747103E+01  4.360417767E+02  5.092623499E+02  1.250000000E+02  0.00000E+00  9.000E+00
      25     1     1     2     0     0 -2.518450542E+02 -5.420818849E+01 -3.904013292E+02  4.841514813E+02  1.250000000E+02  0.00000E+00  9.000E+00
      21     1     1     2   511   501  3.679868840E+01 -3.149928254E+01 -1.046872269E+01  4.955746587E+01  3.153981341E-07  0.00000E+00  9.000E+00
#rwgt            1           1   3.1956775753167979E-002           3      265490           0
</event>
<event>
      5   9999  3.19816E-02  5.67132E+02 -1.00000E+00  9.73221E-02
      21    -1     0     0   502   501  0.000000000E+00  0.000000000E+00  2.918013984E+02  2.918013984E+02  0.000000000E+00  0.00000E+00  9.000E+00
       2    -1     0     0   501     0  0.000000000E+00  0.000000000E+00 -1.553602636E+03  1.553602636E+03  0.000000000E+00  0.00000E+00  9.000E+00
      25     1     1     2     0     0  8.507750244E+01  3.139423048E+02 -2.920995535E+02  4.546923150E+02  1.250000000E+02  0.00000E+00  9.000E+00
      25     1     1     2     0     0 -2.425927796E+02  2.308769210E+02 -6.444010424E+02  7.369078049E+02  1.250000000E+02  0.00000E+00  9.000E+00
       2     1     1     2   502     0  1.575152772E+02 -5.448192258E+02 -3.253006419E+02  6.538039148E+02  9.344061824E-06  0.00000E+00  9.000E+00
#rwgt            2          13   8.8188471446586808E-004           3      265590           0
</event>
<event>
      5   9999  3.19816E-02  1.59966E+01 -1.00000E+00  1.74792E-01
      21    -1     0     0   502   511  0.000000000E+00  0.000000000E+00  1.942891156E+03  1.942891156E+03  0.000000000E+00  0.00000E+00  9.000E+00
      21    -1     0     0   501   502  0.000000000E+00  0.000000000E+00 -6.669953496E+02  6.669953496E+02  0.000000000E+00  0.00000E+00  9.000E+00
      25     1     1     2     0     0  1.012515511E+02 -1.880130410E+02 -5.017480986E+02  5.594434150E+02  1.250000000E+02  0.00000E+00  9.000E+00
      25     1     1     2     0     0 -1.139513177E+02  1.782865013E+02 -2.563854696E+01  2.470896890E+02  1.250000000E+02  0.00000E+00  9.000E+00
      21     1     1     2   501   511  1.269976658E+01  9.726539689E+00  1.803282452E+03  1.803353402E+03  0.000000000E+00  0.00000E+00  9.000E+00
#rwgt            1           1   2.6624663638250085E-002           3      265609           0
</event>
<event>
      5   9999  3.19816E-02  9.28449E+01 -1.00000E+00  1.25296E-01
      21    -1     0     0   502   512  0.000000000E+00  0.000000000E+00  7.636933486E+02  7.636933486E+02  0.000000000E+00  0.00000E+00  9.000E+00
      21    -1     0     0   501   502  0.000000000E+00  0.000000000E+00 -4.145215961E+02  4.145215961E+02  0.000000000E+00  0.00000E+00  9.000E+00
      25     1     1     2     0     0 -2.649573423E+01  2.995839787E+02 -2.864309025E+02  4.337283091E+02  1.250000000E+02  0.00000E+00  9.000E+00
      25     1     1     2     0     0  6.693924825E+01 -2.160107148E+02  5.831903435E+02  6.378694762E+02  1.250000000E+02  0.00000E+00  9.000E+00
      21     1     1     2   501   512 -4.044351402E+01 -8.357326387E+01  5.241231153E+01  1.066171593E+02  1.507891493E-06  0.00000E+00  9.000E+00
#rwgt            1           1   2.5137577661142177E-002           3      265766           0
</event>
<event>
      5   9999  3.19816E-02  1.67237E+02 -1.00000E+00  1.14552E-01
      21    -1     0     0   502   501  0.000000000E+00  0.000000000E+00  1.529727367E+02  1.529727367E+02  0.000000000E+00  0.00000E+00  9.000E+00
      21    -1     0     0   501   511  0.000000000E+00  0.000000000E+00 -2.022866991E+03  2.022866991E+03  0.000000000E+00  0.00000E+00  9.000E+00
      25     1     1     2     0     0 -2.283674493E+01 -3.368171638E+02 -3.842335293E+02  5.265241911E+02  1.250000000E+02  0.00000E+00  9.000E+00
      25     1     1     2     0     0 -1.344413380E+02  3.936672461E+02 -5.602248331E+02  7.088901449E+02  1.250000000E+02  0.00000E+00  9.000E+00
      21     1     1     2   502   511  1.572780829E+02 -5.685008230E+01 -9.254358924E+02  9.404253921E+02  1.078959322E-05  0.00000E+00  9.000E+00
#rwgt            1           1   3.0073085888856040E-002           3      265849           0
</event>
<event>
      5   9999  3.19816E-02  1.69281E+01 -1.00000E+00  1.72575E-01
      21    -1     0     0   502   501  0.000000000E+00  0.000000000E+00  1.792552622E+02  1.792552622E+02  0.000000000E+00  0.00000E+00  9.000E+00
      21    -1     0     0   501   512  0.000000000E+00  0.000000000E+00 -7.364351541E+02  7.364351541E+02  0.000000000E+00  0.00000E+00  9.000E+00
      25     1     1     2     0     0  1.241383684E+02  8.827467638E+01  7.160586780E+01  2.096548433E+02  1.250000000E+02  0.00000E+00  9.000E+00
      25     1     1     2     0     0 -1.152185171E+02 -7.388726435E+01 -1.848621534E+02  2.617893242E+02  1.250000000E+02  0.00000E+00  9.000E+00
      21     1     1     2   502   512 -8.919851363E+00 -1.438741203E+01 -4.439236062E+02  4.442462488E+02  7.629394531E-06  0.00000E+00  9.000E+00
#rwgt            1           1   3.1627441536255088E-002           3      265913           0
</event>
<event>
      5   9999  3.19816E-02  1.32340E+02 -1.00000E+00  1.18591E-01
      21    -1     0     0   502   511  0.000000000E+00  0.000000000E+00  1.791816195E+02  1.791816195E+02  0.000000000E+00  0.00000E+00  9.000E+00
      21    -1     0     0   501   502  0.000000000E+00  0.000000000E+00 -1.340571070E+03  1.340571070E+03  0.000000000E+00  0.00000E+00  9.000E+00
      25     1     1     2     0     0 -9.764651242E+01  4.336885186E+01  4.870017412E+01  1.715004538E+02  1.250000000E+02  0.00000E+00  9.000E+00
      25     1     1     2     0     0  2.082315012E+02 -1.160664006E+02 -1.182909610E+03  1.213149584E+03  1.250000000E+02  0.00000E+00  9.000E+00
      21     1     1     2   501   511 -1.105849888E+02  7.269754871E+01 -2.718001458E+01  1.351026518E+02  5.840038640E-07  0.00000E+00  9.000E+00
#rwgt            1           1   2.7632559710753967E-002           3      266060           0
</event>
<event>
      5   9999  3.19816E-02  2.02630E+01 -1.00000E+00  1.65902E-01
      21    -1     0     0   502   512  0.000000000E+00  0.000000000E+00  1.473907474E+02  1.473907474E+02  0.000000000E+00  0.00000E+00  9.000E+00
      21    -1     0     0   501   502  0.000000000E+00  0.000000000E+00 -1.542351079E+03  1.542351079E+03  0.000000000E+00  0.00000E+00  9.000E+00
      25     1     1     2     0     0  3.520579735E+02  1.126263593E+02 -2.237558052E+02  4.498012604E+02  1.250000000E+02  0.00000E+00  9.000E+00
      25     1     1     2     0     0 -3.480486039E+02 -9.276395457E+01 -1.145028252E+03  1.206837885E+03  1.250000000E+02  0.00000E+00  9.000E+00
      21     1     1     2   501   512 -4.009369598E+00 -1.986240473E+01 -2.617627464E+01  3.310268147E+01  4.768371582E-07  0.00000E+00  9.000E+00
#rwgt            1           1   1.9382510337268608E-002           3      266144           0
</event>
<event>
      5   9999  3.19816E-02  2.47614E+01 -1.00000E+00  1.59063E-01
      21    -1     0     0   502   501  0.000000000E+00  0.000000000E+00  1.348395560E+03  1.348395560E+03  0.000000000E+00  0.00000E+00  9.000E+00
      21    -1     0     0   501   511  0.000000000E+00  0.000000000E+00 -6.673007875E+02  6.673007875E+02  0.000000000E+00  0.00000E+00  9.000E+00
      25     1     1     2     0     0 -3.857763178E+02 -6.372507650E+02  8.739919609E+02  1.155161830E+03  1.250000000E+02  0.00000E+00  9.000E+00
      25     1     1     2     0     0  4.103157800E+02  6.405588482E+02 -1.157982139E+02  7.795568637E+02  1.250000000E+02  0.00000E+00  9.000E+00
      21     1     1     2   502   511 -2.453946223E+01 -3.308083194E+00 -7.709897447E+01  8.097765423E+01  1.651812370E-06  0.00000E+00  9.000E+00
#rwgt            1           1   3.1951085731847295E-002           3      266315           0
</event>
<event>
      5   9999  3.19816E-02  4.03041E+01 -1.00000E+00  1.44636E-01
      21    -1     0     0   502   501  0.000000000E+00  0.000000000E+00  1.326775564E+03  1.326775564E+03  0.000000000E+00  0.00000E+00  9.000E+00
      -4    -1     0     0     0   502  0.000000000E+00  0.000000000E+00 -1.116456344E+02  1.116456344E+02  0.000000000E+00  0.00000E+00  9.000E+00
      25     1     1     2     0     0  1.354541901E+02  9.049529147E+00  1.707484420E+02  2.514155167E+02  1.250000000E+02  0.00000E+00  9.000E+00
      25     1     1     2     0     0 -1.015024163E+02  1.266911633E+01  1.103608765E+03  1.115365659E+03  1.250000000E+02  0.00000E+00  9.000E+00
      -4     1     1     2     0   501 -3.395177379E+01 -2.171864548E+01 -5.922727728E+01  7.164002288E+01  9.536743164E-07  0.00000E+00  9.000E+00
#rwgt            1           1   3.4040622126501829E-002           3      266448           0
</event>
<event>
      5   9999  3.19816E-02  5.27142E+01 -1.00000E+00  1.37778E-01
      21    -1     0     0   511   501  0.000000000E+00  0.000000000E+00  2.001654735E+02  2.001654735E+02  0.000000000E+00  0.00000E+00  9.000E+00
      21    -1     0     0   501   502  0.000000000E+00  0.000000000E+00 -2.326854058E+02  2.326854058E+02  0.000000000E+00  0.00000E+00  9.000E+00
      25     1     1     2     0     0  6.614221946E+01  4.233352419E+01  4.184473976E+01  1.534369666E+02  1.250000000E+02  0.00000E+00  9.000E+00
      25     1     1     2     0     0 -3.133792524E+01 -8.192454916E+01 -1.316110187E+02  2.015940415E+02  1.250000000E+02  0.00000E+00  9.000E+00
      21     1     1     2   511   502 -3.480429422E+01  3.959102497E+01  5.724634668E+01  7.781987126E+01  6.743495762E-07  0.00000E+00  9.000E+00
#rwgt            2          11   1.1481295933135128E-003           3      266535           0
</event>
<event>
      5   9999  3.19816E-02  1.17160E+02 -1.00000E+00  1.20812E-01
      21    -1     0     0   512   501  0.000000000E+00  0.000000000E+00  3.827539374E+02  3.827539374E+02  0.000000000E+00  0.00000E+00  9.000E+00
      21    -1     0     0   501   502  0.000000000E+00  0.000000000E+00 -4.173000182E+02  4.173000182E+02  0.000000000E+00  0.00000E+00  9.000E+00
      25     1     1     2     0     0  5.210484691E+01 -1.114733346E+02 -2.834323940E+02  3.333168783E+02  1.250000000E+02  0.00000E+00  9.000E+00
      25     1     1     2     0     0 -1.674931141E+02  1.317700248E+02  7.712982381E+01  2.588267614E+02  1.250000000E+02  0.00000E+00  9.000E+00
      21     1     1     2   512   502  1.153882672E+02 -2.029669020E+01  1.717564894E+02  2.079103159E+02  3.814697266E-06  0.00000E+00  9.000E+00
#rwgt            1           1   2.7270760707027594E-002           3      266555           0
</event>
<event>
      5   9999  3.19816E-02  8.46945E+01 -1.00000E+00  1.27162E-01
      21    -1     0     0   502   501  0.000000000E+00  0.000000000E+00  1.174620131E+03  1.174620131E+03  0.000000000E+00  0.00000E+00  9.000E+00
      21    -1     0     0   511   502  0.000000000E+00  0.000000000E+00 -4.053461875E+02  4.053461875E+02  0.000000000E+00  0.00000E+00  9.000E+00
      25     1     1     2     0     0  3.781986556E+02  1.990890347E+02  9.072987953E+02  1.010686287E+03  1.250000000E+02  0.00000E+00  9.000E+00
      25     1     1     2     0     0 -3.279778155E+02 -2.672874130E+02 -4.498492618E+01  4.434643754E+02  1.250000000E+02  0.00000E+00  9.000E+00
      21     1     1     2   511   501 -5.022084005E+01  6.819837836E+01 -9.303992554E+01  1.258156561E+02  1.907348633E-06  0.00000E+00  9.000E+00
#rwgt            1           1   2.9518138066701397E-002           3      266640           0
</event>
<event>
      5   9999  3.19816E-02  2.81122E+01 -1.00000E+00  1.55027E-01
      21    -1     0     0   502   501  0.000000000E+00  0.000000000E+00  1.528610444E+02  1.528610444E+02  0.000000000E+00  0.00000E+00  9.000E+00
      21    -1     0     0   512   502  0.000000000E+00  0.000000000E+00 -5.547499937E+02  5.547499937E+02  0.000000000E+00  0.00000E+00  9.000E+00
      25     1     1     2     0     0  6.689233325E+01  1.224884733E+02 -3.627916413E+02  4.083145667E+02  1.250000000E+02  0.00000E+00  9.000E+00
      25     1     1     2     0     0 -5.068954810E+01 -9.951537198E+01  7.365508661E+01  1.830923574E+02  1.250000000E+02  0.00000E+00  9.000E+00
      21     1     1     2   512   501 -1.620278515E+01 -2.297310134E+01 -1.127523946E+02  1.162041141E+02  1.348699152E-06  0.00000E+00  9.000E+00
#rwgt            1           1   2.9044180234311157E-002           3      266743           0
</event>
<event>
      5   9999  3.19816E-02  1.11582E+01 -1.00000E+00  1.90412E-01
      21    -1     0     0   511   501  0.000000000E+00  0.000000000E+00  1.557682507E+02  1.557682507E+02  0.000000000E+00  0.00000E+00  9.000E+00
      21    -1     0     0   501   502  0.000000000E+00  0.000000000E+00 -3.670300930E+02  3.670300930E+02  0.000000000E+00  0.00000E+00  9.000E+00
      25     1     1     2     0     0  8.431210952E+01  1.389966032E+02 -1.822907914E+02  2.743784251E+02  1.250000000E+02  0.00000E+00  9.000E+00
      25     1     1     2     0     0 -9.008374178E+01 -1.294470863E+02 -6.438741117E+01  2.112874048E+02  1.250000000E+02  0.00000E+00  9.000E+00
      21     1     1     2   511   502  5.771632257E+00 -9.549516833E+00  3.541636031E+01  3.713251390E+01  6.743495762E-07  0.00000E+00  9.000E+00
#rwgt            1           1   2.5431801915782093E-002           3      266871           0
</event>
<event>
      5   9999  3.19816E-02  4.72979E+01 -1.00000E+00  1.40466E-01
      21    -1     0     0   502   512  0.000000000E+00  0.000000000E+00  2.113259483E+02  2.113259483E+02  0.000000000E+00  0.00000E+00  9.000E+00
      21    -1     0     0   501   502  0.000000000E+00  0.000000000E+00 -1.574786910E+02  1.574786910E+02  0.000000000E+00  0.00000E+00  9.000E+00
      25     1     1     2     0     0  1.623390439E+01  4.540240173E+01 -6.874533984E+01  1.505849909E+02  1.250000000E+02  0.00000E+00  9.000E+00
      25     1     1     2     0     0  2.958518822E+01 -3.366792394E+01  9.695336596E+01  1.644194868E+02  1.250000000E+02  0.00000E+00  9.000E+00
      21     1     1     2   501   512 -4.581909261E+01 -1.173447780E+01  2.563923114E+01  5.380016162E+01  9.536743164E-07  0.00000E+00  9.000E+00
#rwgt            1           1   6.7942002070559906E-002           3      267082           0
</event>
<event>
      5   9999  3.19816E-02  4.04724E+01 -1.00000E+00  1.44525E-01
      21    -1     0     0   502   511  0.000000000E+00  0.000000000E+00  1.622396061E+02  1.622396061E+02  0.000000000E+00  0.00000E+00  9.000E+00
      21    -1     0     0   501   502  0.000000000E+00  0.000000000E+00 -7.312421594E+02  7.312421594E+02  0.000000000E+00  0.00000E+00  9.000E+00
      25     1     1     2     0     0  1.692990707E+02 -1.161109424E+02 -1.659084289E+02  2.920522780E+02  1.250000000E+02  0.00000E+00  9.000E+00
      25     1     1     2     0     0 -1.874044556E+02  7.991409017E+01 -4.676743405E+02  5.252151754E+02  1.250000000E+02  0.00000E+00  9.000E+00
      21     1     1     2   501   511  1.810538489E+01  3.619685225E+01  6.458021605E+01  7.621431217E+01  2.336015456E-06  0.00000E+00  9.000E+00
#rwgt            1           1   2.3040253672803272E-002           3      267142           0
</event>
<event>
      5   9999  3.19816E-02  5.04453E+01 -1.00000E+00  1.38856E-01
      21    -1     0     0   512   501  0.000000000E+00  0.000000000E+00  2.406892581E+03  2.406892581E+03  0.000000000E+00  0.00000E+00  9.000E+00
      21    -1     0     0   501   502  0.000000000E+00  0.000000000E+00 -2.693307701E+02  2.693307701E+02  0.000000000E+00  0.00000E+00  9.000E+00
      25     1     1     2     0     0 -1.566109330E+02  2.227728227E+02 -2.094584633E+01  3.003638516E+02  1.250000000E+02  0.00000E+00  9.000E+00
      25     1     1     2     0     0  1.065110471E+02 -2.286662654E+02  7.446899383E+01  2.912103967E+02  1.250000000E+02  0.00000E+00  9.000E+00
      21     1     1     2   512   502  5.009988596E+01  5.893442758E+00  2.084038664E+03  2.084649103E+03  0.000000000E+00  0.00000E+00  9.000E+00
#rwgt            1           1   2.4685364228074901E-002           3      267237           0
</event>
<event>
      5   9999  3.19816E-02  7.09531E+01 -1.00000E+00  1.30924E-01
      21    -1     0     0   502   501  0.000000000E+00  0.000000000E+00  1.494122778E+02  1.494122778E+02  0.000000000E+00  0.00000E+00  9.000E+00
      21    -1     0     0   501   511  0.000000000E+00  0.000000000E+00 -1.062461708E+03  1.062461708E+03  0.000000000E+00  0.00000E+00  9.000E+00
      25     1     1     2     0     0 -1.635134052E+02 -1.499171566E+02  5.047368316E+00  2.546807089E+02  1.250000000E+02  0.00000E+00  9.000E+00
      25     1     1     2     0     0  1.021633913E+02  1.142729073E+02 -7.241355356E+02  7.506616613E+02  1.250000000E+02  0.00000E+00  9.000E+00
      21     1     1     2   502   511  6.135001390E+01  3.564424934E+01 -1.939612625E+02  2.065316152E+02  0.000000000E+00  0.00000E+00  9.000E+00
#rwgt            1           1   2.7782893149631682E-002           3      267398           0
</event>
<event>
      5   9999  3.19816E-02  9.15400E+01 -1.00000E+00  1.25580E-01
      21    -1     0     0   502   501  0.000000000E+00  0.000000000E+00  3.969669468E+03  3.969669468E+03  0.000000000E+00  0.00000E+00  9.000E+00
      21    -1     0     0   501   512  0.000000000E+00  0.000000000E+00 -2.487553073E+01  2.487553073E+01  0.000000000E+00  0.00000E+00  9.000E+00
      25     1     1     2     0     0  1.532149745E+01  1.690696987E+02  1.199382187E+03  1.217769248E+03  1.250000000E+02  0.00000E+00  9.000E+00
      25     1     1     2     0     0 -3.645413232E+01 -8.000237745E+01  2.602993094E+03  2.607475279E+03  1.250000000E+02  0.00000E+00  9.000E+00
      21     1     1     2   502   512  2.113263487E+01 -8.906732126E+01  1.424186567E+02  1.693004718E+02  7.864199878E-06  0.00000E+00  9.000E+00
#rwgt            1           1   7.1625768532031448E-003           3      267464           0
</event>
<event>
      5   9999  3.19816E-02  4.50472E+02 -1.00000E+00  1.00156E-01
      21    -1     0     0   502   501  0.000000000E+00  0.000000000E+00  1.643123099E+02  1.643123099E+02  0.000000000E+00  0.00000E+00  9.000E+00
       2    -1     0     0   501     0  0.000000000E+00  0.000000000E+00 -3.110521762E+03  3.110521762E+03  0.000000000E+00  0.00000E+00  9.000E+00
      25     1     1     2     0     0  7.069993314E+01 -3.985621097E+02 -3.629648522E+02  5.578698054E+02  1.250000000E+02  0.00000E+00  9.000E+00
      25     1     1     2     0     0 -5.443301766E+01 -5.161653855E+01 -6.651777534E+01  1.602399292E+02  1.250000000E+02  0.00000E+00  9.000E+00
       2     1     1     2   502     0 -1.626691549E+01  4.501786482E+02 -2.516726824E+03  2.556724337E+03  3.051757812E-05  0.00000E+00  9.000E+00
#rwgt            1           1   2.7099662415375238E-002           3      267537           0
</event>
<event>
      5   9999  3.19816E-02  1.87873E+02 -1.00000E+00  1.12646E-01
      21    -1     0     0   511   501  0.000000000E+00  0.000000000E+00  1.143082954E+03  1.143082954E+03  0.000000000E+00  0.00000E+00  9.000E+00
      21    -1     0     0   501   502  0.000000000E+00  0.000000000E+00 -1.295799911E+02  1.295799911E+02  0.000000000E+00  0.00000E+00  9.000E+00
      25     1     1     2     0     0  2.523845726E+01  9.172844207E+01  3.304766733E+02  3.659110799E+02  1.250000000E+02  0.00000E+00  9.000E+00
      25     1     1     2     0     0 -1.903969725E+02 -1.812774023E+02  1.229358922E+02  3.159916729E+02  1.250000000E+02  0.00000E+00  9.000E+00
      21     1     1     2   511   502  1.651585152E+02  8.954896027E+01  5.600903977E+02  5.907601925E+02  7.629394531E-06  0.00000E+00  9.000E+00
#rwgt            2          11   2.2736178249688549E-003           3      267611           0
</event>
<event>
      5   9999  3.19816E-02  3.40901E+01 -1.00000E+00  1.49282E-01
      21    -1     0     0   502   512  0.000000000E+00  0.000000000E+00  5.046080850E+02  5.046080850E+02  0.000000000E+00  0.00000E+00  9.000E+00
      21    -1     0     0   501   502  0.000000000E+00  0.000000000E+00 -2.024523864E+03  2.024523864E+03  0.000000000E+00  0.00000E+00  9.000E+00
      25     1     1     2     0     0  2.682703408E+02 -8.599550560E+02 -4.890656114E+02  1.032618926E+03  1.250000000E+02  0.00000E+00  9.000E+00
      25     1     1     2     0     0 -2.435935061E+02  8.834750664E+02 -1.089201406E+03  1.428933410E+03  1.250000000E+02  0.00000E+00  9.000E+00
      21     1     1     2   501   512 -2.467683469E+01 -2.352001036E+01  5.835123806E+01  6.757961261E+01  0.000000000E+00  0.00000E+00  9.000E+00
#rwgt            1           1   2.8018194799224586E-002           3      267631           0
</event>
<event>
      5   9999  3.19816E-02  3.96954E+01 -1.00000E+00  1.45046E-01
       2    -1     0     0   502     0  0.000000000E+00  0.000000000E+00  1.063128896E+03  1.063128896E+03  0.000000000E+00  0.00000E+00  9.000E+00
      21    -1     0     0   501   502  0.000000000E+00  0.000000000E+00 -3.078970875E+02  3.078970875E+02  0.000000000E+00  0.00000E+00  9.000E+00
      25     1     1     2     0     0  2.131584780E+02 -3.180850745E+02  7.697528716E+01  4.100790731E+02  1.250000000E+02  0.00000E+00  9.000E+00
      25     1     1     2     0     0 -2.362426912E+02  3.503782186E+02  2.050031651E+02  4.860316892E+02  1.250000000E+02  0.00000E+00  9.000E+00
       2     1     1     2   501     0  2.308421322E+01 -3.229314411E+01  4.732533560E+02  4.749152208E+02  7.629394531E-06  0.00000E+00  9.000E+00
#rwgt            1           1   2.7950728553335691E-002           3      267942           0
</event>
<event>
      5   9999  3.19816E-02  5.70242E+01 -1.00000E+00  1.35895E-01
      21    -1     0     0   502   501  0.000000000E+00  0.000000000E+00  3.379996332E+03  3.379996332E+03  0.000000000E+00  0.00000E+00  9.000E+00
      21    -1     0     0   511   502  0.000000000E+00  0.000000000E+00 -2.928671686E+02  2.928671686E+02  0.000000000E+00  0.00000E+00  9.000E+00
      25     1     1     2     0     0 -2.334381149E+02 -1.520339718E+01  3.230728164E+03  3.241597441E+03  1.250000000E+02  0.00000E+00  9.000E+00
      25     1     1     2     0     0  2.772526623E+02 -2.129381307E+01 -3.277220245E+01  3.066292264E+02  1.250000000E+02  0.00000E+00  9.000E+00
      21     1     1     2   511   501 -4.381454743E+01  3.649721026E+01 -1.108267986E+02  1.246368333E+02  4.264961200E-06  0.00000E+00  9.000E+00
#rwgt            1           1   5.3014117221003160E-002           3      268080           0
</event>
<event>
      5   9999  3.19816E-02  1.24204E+02 -1.00000E+00  1.19737E-01
      21    -1     0     0   502   501  0.000000000E+00  0.000000000E+00  1.632106074E+02  1.632106074E+02  0.000000000E+00  0.00000E+00  9.000E+00
      21    -1     0     0   501   512  0.000000000E+00  0.000000000E+00 -1.613743458E+03  1.613743458E+03  0.000000000E+00  0.00000E+00  9.000E+00
      25     1     1     2     0     0 -9.028931657E+01 -3.758632200E+01 -6.420279758E+02  6.613545298E+02  1.250000000E+02  0.00000E+00  9.000E+00
      25     1     1     2     0     0  1.596335981E+02  1.406298189E+02  4.694998003E+01  2.511751027E+02  1.250000000E+02  0.00000E+00  9.000E+00
      21     1     1     2   502   512 -6.934428151E+01 -1.030434969E+02 -8.554548545E+02  8.644244327E+02  1.078959322E-05  0.00000E+00  9.000E+00
#rwgt            1           1   3.0205110853742272E-002           3      268196           0
</event>
<event>
      5   9999  3.19816E-02  2.17623E+01 -1.00000E+00  1.63399E-01
      21    -1     0     0   511   501  0.000000000E+00  0.000000000E+00  4.743370842E+02  4.743370842E+02  0.000000000E+00  0.00000E+00  9.000E+00
      21    -1     0     0   501   502  0.000000000E+00  0.000000000E+00 -1.904027769E+02  1.904027769E+02  0.000000000E+00  0.00000E+00  9.000E+00
      25     1     1     2     0     0  5.938818688E+01  2.187477263E+02  1.456332345E+02  2.970043156E+02  1.250000000E+02  0.00000E+00  9.000E+00
      25     1     1     2     0     0 -7.645592490E+01 -2.322492266E+02  5.296765311E+01  2.796708494E+02  1.250000000E+02  0.00000E+00  9.000E+00
      21     1     1     2   511   502  1.706773802E+01  1.350150025E+01  8.533341963E+01  8.806469608E+01  9.536743164E-07  0.00000E+00  9.000E+00
#rwgt            1           1   2.5932534669192996E-002           3      268254           0
</event>
<event>
      5   9999  3.19816E-02  4.24338E+02 -1.00000E+00  1.00919E-01
      21    -1     0     0   502   501  0.000000000E+00  0.000000000E+00  2.259282731E+03  2.259282731E+03  0.000000000E+00  0.00000E+00  9.000E+00
      21    -1     0     0   501   512  0.000000000E+00  0.000000000E+00 -2.970256889E+02  2.970256889E+02  0.000000000E+00  0.00000E+00  9.000E+00
      25     1     1     2     0     0  3.574672512E+02 -2.102327731E+02  1.906759706E+03  1.955335836E+03  1.250000000E+02  0.00000E+00  9.000E+00
      25     1     1     2     0     0 -1.667829291E+01 -4.260200824E+01  1.106131192E+02  1.730703866E+02  1.250000000E+02  0.00000E+00  9.000E+00
      21     1     1     2   502   512 -3.407889583E+02  2.528347814E+02 -5.511578345E+01  4.279021971E+02  7.599533773E-06  0.00000E+00  9.000E+00
#rwgt            1           1   3.2249037425076073E-002           3      268390           0
</event>
<event>
      5   9999  3.19816E-02  3.25086E+01 -1.00000E+00  1.50656E-01
      21    -1     0     0   502   501  0.000000000E+00  0.000000000E+00  3.810873007E+02  3.810873007E+02  0.000000000E+00  0.00000E+00  9.000E+00
      21    -1     0     0   501   511  0.000000000E+00  0.000000000E+00 -3.166670692E+02  3.166670692E+02  0.000000000E+00  0.00000E+00  9.000E+00
      25     1     1     2     0     0  5.119634752E+01  2.092862522E+02  2.168744052E+02  3.302745963E+02  1.250000000E+02  0.00000E+00  9.000E+00
      25     1     1     2     0     0 -5.951270136E+01 -2.407131224E+02 -8.144599302E+01  2.893838605E+02  1.250000000E+02  0.00000E+00  9.000E+00
      21     1     1     2   502   511  8.316353838E+00  3.142687026E+01 -7.100818074E+01  7.809591313E+01  1.651812370E-06  0.00000E+00  9.000E+00
#rwgt            1           1   2.8182650247128720E-002           3      268448           0
</event>
<event>
      5   9999  3.19816E-02  1.53963E+01 -1.00000E+00  1.76323E-01
      21    -1     0     0   512   501  0.000000000E+00  0.000000000E+00  2.588153432E+02  2.588153432E+02  0.000000000E+00  0.00000E+00  9.000E+00
      21    -1     0     0   501   502  0.000000000E+00  0.000000000E+00 -3.195882095E+02  3.195882095E+02  0.000000000E+00  0.00000E+00  9.000E+00
      25     1     1     2     0     0  4.636917187E+01 -3.828595982E+00 -2.831158067E+02  3.129605698E+02  1.250000000E+02  0.00000E+00  9.000E+00
      25     1     1     2     0     0 -3.248891481E+01  1.049067906E+01  2.000778164E+02  2.383730617E+02  1.250000000E+02  0.00000E+00  9.000E+00
      21     1     1     2   512   502 -1.388025706E+01 -6.662083076E+00  2.226512398E+01  2.706992118E+01  4.129530925E-07  0.00000E+00  9.000E+00
#rwgt            1           1   2.6628096360031755E-002           3      268581           0
</event>
<event>
      5   9999  3.19816E-02  2.11824E+02 -1.00000E+00  1.10747E-01
       2    -1     0     0   502     0  0.000000000E+00  0.000000000E+00  1.949776613E+03  1.949776613E+03  0.000000000E+00  0.00000E+00  9.000E+00
      21    -1     0     0   501   502  0.000000000E+00  0.000000000E+00 -3.068993039E+02  3.068993039E+02  0.000000000E+00  0.00000E+00  9.000E+00
      25     1     1     2     0     0 -3.379169080E+02 -6.371509674E+01  5.880021681E+02  6.925453054E+02  1.250000000E+02  0.00000E+00  9.000E+00
      25     1     1     2     0     0  5.362465942E+02 -1.068113752E+01  6.815228100E+01  5.549272293E+02  1.250000000E+02  0.00000E+00  9.000E+00
       2     1     1     2   501     0 -1.983296862E+02  7.439623426E+01  9.867228602E+02  1.009203382E+03  1.078959322E-05  0.00000E+00  9.000E+00
#rwgt            1           1   2.9099954977735834E-002           3      268743           0
</event>
<event>
      5   9999  3.19816E-02  8.52831E+01 -1.00000E+00  1.27019E-01
      21    -1     0     0   511   501  0.000000000E+00  0.000000000E+00  4.379841845E+02  4.379841845E+02  0.000000000E+00  0.00000E+00  9.000E+00
      21    -1     0     0   501   502  0.000000000E+00  0.000000000E+00 -5.294878924E+02  5.294878924E+02  0.000000000E+00  0.00000E+00  9.000E+00
      25     1     1     2     0     0  1.712471040E+02 -2.995496415E+02 -3.032685801E+02  4.760802349E+02  1.250000000E+02  0.00000E+00  9.000E+00
      25     1     1     2     0     0 -1.072349259E+02  2.431967195E+02  3.585152993E+01  2.958957686E+02  1.250000000E+02  0.00000E+00  9.000E+00
      21     1     1     2   511   502 -6.401217813E+01  5.635292209E+01  1.759133422E+02  1.954960735E+02  0.000000000E+00  0.00000E+00  9.000E+00
#rwgt            1           1   2.4573560349272348E-002           3      268854           0
</event>
<event>
      5   9999  3.19816E-02  1.79227E+01 -1.00000E+00  1.70397E-01
      21    -1     0     0   502   501  0.000000000E+00  0.000000000E+00  5.590759249E+02  5.590759249E+02  0.000000000E+00  0.00000E+00  9.000E+00
      21    -1     0     0   501   512  0.000000000E+00  0.000000000E+00 -2.423269898E+02  2.423269898E+02  0.000000000E+00  0.00000E+00  9.000E+00
      25     1     1     2     0     0  1.483118778E+02 -1.963205684E+01  4.929092055E+02  5.300625582E+02  1.250000000E+02  0.00000E+00  9.000E+00
      25     1     1     2     0     0 -1.305943700E+02  1.692804815E+01 -1.767732161E+02  2.534072182E+02  1.250000000E+02  0.00000E+00  9.000E+00
      21     1     1     2   502   512 -1.771750780E+01  2.704008688E+00  6.129457055E-01  1.793313827E+01  3.233071261E-07  0.00000E+00  9.000E+00
#rwgt            1           1   2.9170834068173928E-002           3      268903           0
</event>
<event>
      5   9999  3.19816E-02  1.58427E+02 -1.00000E+00  1.15461E-01
      21    -1     0     0   511   501  0.000000000E+00  0.000000000E+00  4.337276775E+02  4.337276775E+02  0.000000000E+00  0.00000E+00  9.000E+00
      21    -1     0     0   501   502  0.000000000E+00  0.000000000E+00 -2.584431056E+03  2.584431056E+03  0.000000000E+00  0.00000E+00  9.000E+00
      25     1     1     2     0     0  3.669529633E+02  5.648208856E+02 -2.257477851E+01  6.854281368E+02  1.250000000E+02  0.00000E+00  9.000E+00
      25     1     1     2     0     0 -5.089309404E+02 -4.945257380E+02 -2.009595332E+03  2.134868803E+03  1.250000000E+02  0.00000E+00  9.000E+00
      21     1     1     2   511   502  1.419779771E+02 -7.029514765E+01 -1.185332678E+02  1.978617936E+02  2.336015456E-06  0.00000E+00  9.000E+00
#rwgt            1           1   3.4318013101439102E-002           3      269075           0
</event>
<event>
      5   9999  3.19816E-02  1.05252E+02 -1.00000E+00  1.22836E-01
      21    -1     0     0   502   512  0.000000000E+00  0.000000000E+00  1.763246057E+03  1.763246057E+03  0.000000000E+00  0.00000E+00  9.000E+00
      21    -1     0     0   501   502  0.000000000E+00  0.000000000E+00 -1.135749896E+02  1.135749896E+02  0.000000000E+00  0.00000E+00  9.000E+00
      25     1     1     2     0     0  1.237948164E+00 -1.998774782E+02  1.924855007E+02  3.043488242E+02  1.250000000E+02  0.00000E+00  9.000E+00
      25     1     1     2     0     0  5.095746997E+01  1.084789991E+02  7.911912208E+01  1.903922069E+02  1.250000000E+02  0.00000E+00  9.000E+00
      21     1     1     2   501   512 -5.219541814E+01  9.139847913E+01  1.378066444E+03  1.382080015E+03  2.157918644E-05  0.00000E+00  9.000E+00
#rwgt            1           1   2.9714653588758650E-002           3      269162           0
</event>
<event>
      5   9999  3.19816E-02  2.25175E+02 -1.00000E+00  1.09805E-01
      21    -1     0     0   502   511  0.000000000E+00  0.000000000E+00  1.851249956E+03  1.851249956E+03  0.000000000E+00  0.00000E+00  9.000E+00
      21    -1     0     0   501   502  0.000000000E+00  0.000000000E+00 -6.019969914E+02  6.019969914E+02  0.000000000E+00  0.00000E+00  9.000E+00
      25     1     1     2     0     0 -1.697146410E+02 -6.683814063E+02  2.483370171E+02  7.435274290E+02  1.250000000E+02  0.00000E+00  9.000E+00
      25     1     1     2     0     0 -4.466153625E+01  7.372771214E+02  7.049728568E+01  7.524407444E+02  1.250000000E+02  0.00000E+00  9.000E+00
      21     1     1     2   501   511  2.143761772E+02 -6.889571506E+01  9.304186617E+02  9.572787739E+02  1.868812365E-05  0.00000E+00  9.000E+00
#rwgt            2          11   1.8393652847281229E-003           3      269231           0
</event>
<event>
      5   9999  3.19816E-02  9.25553E+01 -1.00000E+00  1.25358E-01
       2    -1     0     0   502     0  0.000000000E+00  0.000000000E+00  5.800382378E+02  5.800382378E+02  0.000000000E+00  0.00000E+00  9.000E+00
      21    -1     0     0   501   502  0.000000000E+00  0.000000000E+00 -2.386939920E+02  2.386939920E+02  0.000000000E+00  0.00000E+00  9.000E+00
      25     1     1     2     0     0 -1.917607115E+02  1.207708544E+02  2.113582398E+02  3.341482834E+02  1.250000000E+02  0.00000E+00  9.000E+00
      25     1     1     2     0     0  1.428470321E+02 -1.993452956E+02 -5.226348227E+01  2.801790375E+02  1.250000000E+02  0.00000E+00  9.000E+00
       2     1     1     2   501     0  4.891367941E+01  7.857444121E+01  1.822494882E+02  2.044049090E+02  0.000000000E+00  0.00000E+00  9.000E+00
#rwgt            1           1   2.8706651689091180E-002           3      269266           0
</event>
<event>
      5   9999  3.19816E-02  1.77563E+02 -1.00000E+00  1.13562E-01
      21    -1     0     0   502   511  0.000000000E+00  0.000000000E+00  7.466287625E+02  7.466287625E+02  0.000000000E+00  0.00000E+00  9.000E+00
      21    -1     0     0   501   502  0.000000000E+00  0.000000000E+00 -1.229871346E+03  1.229871346E+03  0.000000000E+00  0.00000E+00  9.000E+00
      25     1     1     2     0     0 -3.254814691E+02 -5.501279139E+02 -7.978904480E+02  1.029967512E+03  1.250000000E+02  0.00000E+00  9.000E+00
      25     1     1     2     0     0  4.702472463E+02  4.473108163E+02  1.008121731E+02  6.685862198E+02  1.250000000E+02  0.00000E+00  9.000E+00
      21     1     1     2   501   511 -1.447657772E+02  1.028170976E+02  2.138356911E+02  2.779463772E+02  6.607249480E-06  0.00000E+00  9.000E+00
#rwgt            1           1   3.3918924708726872E-002           3      269418           0
</event>
<event>
      5   9999  3.19816E-02  1.99072E+02 -1.00000E+00  1.11722E-01
      21    -1     0     0   502   501  0.000000000E+00  0.000000000E+00  2.552124119E+03  2.552124119E+03  0.000000000E+00  0.00000E+00  9.000E+00
      21    -1     0     0   501   512  0.000000000E+00  0.000000000E+00 -8.586445607E+02  8.586445607E+02  0.000000000E+00  0.00000E+00  9.000E+00
      25     1     1     2     0     0  3.975054897E+02 -9.229270447E+02  2.066016663E+03  2.300837846E+03  1.250000000E+02  0.00000E+00  9.000E+00
      25     1     1     2     0     0 -2.398999848E+02  8.013122454E+02 -2.850924303E+02  8.924998662E+02  1.250000000E+02  0.00000E+00  9.000E+00
      21     1     1     2   502   512 -1.576055049E+02  1.216147994E+02 -8.744467395E+01  2.174309674E+02  3.015782986E-06  0.00000E+00  9.000E+00
#rwgt            1           1   3.8874198028943659E-002           3      269500           0
</event>
<event>
      5   9999  3.19816E-02  1.81407E+02 -1.00000E+00  1.13213E-01
      -2    -1     0     0     0   501  0.000000000E+00  0.000000000E+00  1.592641946E+02  1.592641946E+02  0.000000000E+00  0.00000E+00  9.000E+00
      21    -1     0     0   501   502  0.000000000E+00  0.000000000E+00 -3.175466579E+03  3.175466579E+03  0.000000000E+00  0.00000E+00  9.000E+00
      25     1     1     2     0     0 -1.040055144E+02  9.317309698E+01 -2.786188027E+03  2.792484037E+03  1.250000000E+02  0.00000E+00  9.000E+00
      25     1     1     2     0     0  7.294146566E+01 -2.719004818E+02 -1.658203219E+02  3.498166785E+02  1.250000000E+02  0.00000E+00  9.000E+00
      -2     1     1     2     0   502  3.106404869E+01  1.787273848E+02 -6.419403555E+01  1.924300585E+02  4.264961200E-06  0.00000E+00  9.000E+00
#rwgt            1           1   5.1704698180442030E-002           3      269584           0
</event>
<event>
      5   9999  3.19816E-02  5.88436E+01 -1.00000E+00  1.35157E-01
      21    -1     0     0   502   501  0.000000000E+00  0.000000000E+00  1.763960044E+02  1.763960044E+02  0.000000000E+00  0.00000E+00  9.000E+00
      21    -1     0     0   511   502  0.000000000E+00  0.000000000E+00 -6.987306194E+02  6.987306194E+02  0.000000000E+00  0.00000E+00  9.000E+00
      25     1     1     2     0     0  1.211818962E+02  3.418504795E+01  1.097400842E+02  2.086182052E+02  1.250000000E+02  0.00000E+00  9.000E+00
      25     1     1     2     0     0 -8.603034265E+01  1.300541003E+01 -4.391815387E+02  4.648395255E+02  1.250000000E+02  0.00000E+00  9.000E+00
      21     1     1     2   511   501 -3.515155357E+01 -4.719045798E+01 -1.928931605E+02  2.016688930E+02  2.697398305E-06  0.00000E+00  9.000E+00
#rwgt            1           1   2.8060057874979890E-002           3      269650           0
</event>
<event>
      5   9999  3.19816E-02  2.52742E+02 -1.00000E+00  1.08069E-01
      21    -1     0     0   502   512  0.000000000E+00  0.000000000E+00  1.085762627E+03  1.085762627E+03  0.000000000E+00  0.00000E+00  9.000E+00
      21    -1     0     0   501   502  0.000000000E+00  0.000000000E+00 -4.197106042E+02  4.197106042E+02  0.000000000E+00  0.00000E+00  9.000E+00
      25     1     1     2     0     0  1.449521977E+02  3.594194941E+02 -1.677655725E+02  4.404132147E+02  1.250000000E+02  0.00000E+00  9.000E+00
      25     1     1     2     0     0  1.032128493E+02 -3.115356894E+02  6.900855455E+02  7.743064240E+02  1.250000000E+02  0.00000E+00  9.000E+00
      21     1     1     2   501   512 -2.481650470E+02 -4.788380474E+01  1.437320495E+02  2.907535922E+02  3.303624740E-06  0.00000E+00  9.000E+00
#rwgt            2          11   4.3388986658241674E-003           3      269714           0
</event>
<event>
      5   9999  3.19816E-02  3.04930E+02 -1.00000E+00  1.05362E-01
      21    -1     0     0   502   501  0.000000000E+00  0.000000000E+00  7.068451992E+02  7.068451992E+02  0.000000000E+00  0.00000E+00  9.000E+00
      21    -1     0     0   501   511  0.000000000E+00  0.000000000E+00 -5.250705425E+02  5.250705425E+02  0.000000000E+00  0.00000E+00  9.000E+00
      25     1     1     2     0     0 -4.049350075E+01  1.341417872E+02 -5.493598311E+01  1.956443327E+02  1.250000000E+02  0.00000E+00  9.000E+00
      25     1     1     2     0     0  6.044592041E+01 -4.384187765E+02  4.660325356E+02  6.547335772E+02  1.250000000E+02  0.00000E+00  9.000E+00
      21     1     1     2   502   511 -1.995241966E+01  3.042769892E+02 -2.293218958E+02  3.815378318E+02  6.031565972E-06  0.00000E+00  9.000E+00
#rwgt            2          11   3.6141699301983320E-003           3      269779           0
</event>
<event>
      5   9999  3.19816E-02  1.09935E+02 -1.00000E+00  1.22006E-01
      21    -1     0     0   502   501  0.000000000E+00  0.000000000E+00  7.747366363E+02  7.747366363E+02  0.000000000E+00  0.00000E+00  9.000E+00
      21    -1     0     0   512   502  0.000000000E+00  0.000000000E+00 -7.816023662E+02  7.816023662E+02  0.000000000E+00  0.00000E+00  9.000E+00
      25     1     1     2     0     0 -6.157472415E+02 -3.682786788E+01  2.487607167E+02  6.767627734E+02  1.250000000E+02  0.00000E+00  9.000E+00
      25     1     1     2     0     0  5.111952597E+02  7.080597519E+01  7.027878617E+01  5.356287776E+02  1.250000000E+02  0.00000E+00  9.000E+00
      21     1     1     2   512   501  1.045519818E+02 -3.397810731E+01 -3.259052328E+02  3.439474516E+02  0.000000000E+00  0.00000E+00  9.000E+00
#rwgt            1           1   2.3423717762178352E-002           3      269799           0
</event>
<event>
      5   9999  3.19816E-02  1.02531E+03 -1.00000E+00  9.07314E-02
      21    -1     0     0   511   501  0.000000000E+00  0.000000000E+00  1.370781022E+03  1.370781022E+03  0.000000000E+00  0.00000E+00  9.000E+00
      21    -1     0     0   501   502  0.000000000E+00  0.000000000E+00 -1.418249779E+03  1.418249779E+03  0.000000000E+00  0.00000E+00  9.000E+00
      25     1     1     2     0     0 -4.851219452E+01 -4.881454915E+01 -4.231756851E+02  4.465858861E+02  1.250000000E+02  0.00000E+00  9.000E+00
      25     1     1     2     0     0 -1.063852076E+02  1.062356687E+03 -2.981212095E+02  1.115536104E+03  1.250000000E+02  0.00000E+00  9.000E+00
      21     1     1     2   511   502  1.548974021E+02 -1.013542138E+03  6.738281379E+02  1.226908811E+03  2.412626389E-05  0.00000E+00  9.000E+00
#rwgt            2          11   1.1260759249754437E-003           3      270080           0
</event>
<event>
      5   9999  4.09117E-02  2.52222E+01 -1.00000E+00  1.58464E-01
      21    -1     0     0   502   512  0.000000000E+00  0.000000000E+00  2.409864957E+01  2.409864957E+01  0.000000000E+00  0.00000E+00  9.000E+00
      21    -1     0     0   501   502  0.000000000E+00  0.000000000E+00 -1.726280368E+03  1.726280368E+03  0.000000000E+00  0.00000E+00  9.000E+00
      25     1     1     2     0     0  1.218685874E+01 -2.999927795E+01 -2.403816054E+02  2.728677197E+02  1.250000000E+02  0.00000E+00  9.000E+00
      25     1     1     2     0     0 -3.211847561E+00  6.427909378E+00 -1.435938180E+03  1.441386517E+03  1.250000000E+02  0.00000E+00  9.000E+00
      21     1     1     2   501   512 -8.975011178E+00  2.357136857E+01 -2.586193343E+01  3.612478156E+01  1.348699152E-06  0.00000E+00  9.000E+00
#rwgt            1           1  0.12953945308821571                3      270100           0
</event>
<event>
      5   9999  3.19816E-02  1.96785E+01 -1.00000E+00  1.66952E-01
      21    -1     0     0   502   501  0.000000000E+00  0.000000000E+00  1.520821189E+02  1.520821189E+02  0.000000000E+00  0.00000E+00  9.000E+00
      21    -1     0     0   501   511  0.000000000E+00  0.000000000E+00 -9.897422005E+02  9.897422005E+02  0.000000000E+00  0.00000E+00  9.000E+00
      25     1     1     2     0     0  1.374246831E+02 -6.846522970E+01 -4.262979729E+01  2.025224206E+02  1.250000000E+02  0.00000E+00  9.000E+00
      25     1     1     2     0     0 -1.195355182E+02  7.666414390E+01 -5.225978933E+01  1.962707738E+02  1.250000000E+02  0.00000E+00  9.000E+00
      21     1     1     2   502   511 -1.788916492E+01 -8.198914196E+00 -7.427704950E+02  7.430311250E+02  1.078959322E-05  0.00000E+00  9.000E+00
#rwgt            1           1   2.9716476899975485E-002           3      270259           0
</event>
<event>
      5   9999  3.19816E-02  8.96586E+01 -1.00000E+00  1.25998E-01
      21    -1     0     0   502   501  0.000000000E+00  0.000000000E+00  1.332690498E+03  1.332690498E+03  0.000000000E+00  0.00000E+00  9.000E+00
      21    -1     0     0   512   502  0.000000000E+00  0.000000000E+00 -1.491223894E+02  1.491223894E+02  0.000000000E+00  0.00000E+00  9.000E+00
      25     1     1     2     0     0  1.864246706E+02 -6.456380952E+01  1.445656219E+02  2.746759224E+02  1.250000000E+02  0.00000E+00  9.000E+00
      25     1     1     2     0     0 -1.982665531E+02  1.534369476E+02  1.074716318E+03  1.110627159E+03  1.250000000E+02  0.00000E+00  9.000E+00
      21     1     1     2   512   501  1.184188247E+01 -8.887313807E+01 -3.571383128E+01  9.650980569E+01  4.768371582E-07  0.00000E+00  9.000E+00
#rwgt            1           1   1.4186454518110901E-002           3      270444           0
</event>
<event>
      5   9999  3.19816E-02  2.58792E+01 -1.00000E+00  1.57635E-01
      21    -1     0     0   502   501  0.000000000E+00  0.000000000E+00  3.624209851E+02  3.624209851E+02  0.000000000E+00  0.00000E+00  9.000E+00
       2    -1     0     0   501     0  0.000000000E+00  0.000000000E+00 -1.203948697E+03  1.203948697E+03  0.000000000E+00  0.00000E+00  9.000E+00
      25     1     1     2     0     0  1.173545679E+02 -8.480788045E+01  8.703875620E+01  2.101552195E+02  1.250000000E+02  0.00000E+00  9.000E+00
      25     1     1     2     0     0 -1.421617207E+02  7.743658493E+01  1.647271652E+02  2.626145816E+02  1.250000000E+02  0.00000E+00  9.000E+00
       2     1     1     2   502     0  2.480715274E+01  7.371295526E+00 -1.093293634E+03  1.093599881E+03  1.525878906E-05  0.00000E+00  9.000E+00
#rwgt            1           1   2.6963208327809442E-002           3      270502           0
</event>
<event>
      5   9999  3.19816E-02  3.40866E+02 -1.00000E+00  1.03821E-01
      21    -1     0     0   502   501  0.000000000E+00  0.000000000E+00  3.950068906E+02  3.950068906E+02  0.000000000E+00  0.00000E+00  9.000E+00
      21    -1     0     0   501   511  0.000000000E+00  0.000000000E+00 -1.114868111E+03  1.114868111E+03  0.000000000E+00  0.00000E+00  9.000E+00
      25     1     1     2     0     0  4.670527577E+02  7.038725182E+01 -2.811668698E+02  5.637130940E+02  1.250000000E+02  0.00000E+00  9.000E+00
      25     1     1     2     0     0 -3.035893040E+02 -3.695015597E+02 -2.190131138E+02  5.406381527E+02  1.250000000E+02  0.00000E+00  9.000E+00
      21     1     1     2   502   511 -1.634634536E+02  2.991143078E+02 -2.196812365E+02  4.055237545E+02  1.078959322E-05  0.00000E+00  9.000E+00
#rwgt            1           1   2.9653150487312974E-002           3      270629           0
</event>
<event>
      5   9999  3.19816E-02  4.38643E+02 -1.00000E+00  1.00495E-01
      21    -1     0     0   502   512  0.000000000E+00  0.000000000E+00  5.207656675E+02  5.207656675E+02  0.000000000E+00  0.00000E+00  9.000E+00
      21    -1     0     0   501   502  0.000000000E+00  0.000000000E+00 -2.246829438E+03  2.246829438E+03  0.000000000E+00  0.00000E+00  9.000E+00
      25     1     1     2     0     0 -6.859507953E+02  3.277255394E+02 -1.107523899E+03  1.349135542E+03  1.250000000E+02  0.00000E+00  9.000E+00
      25     1     1     2     0     0  3.768831046E+02 -6.389892031E+02 -6.276014137E+02  9.797227214E+02  1.250000000E+02  0.00000E+00  9.000E+00
      21     1     1     2   501   512  3.090676908E+02  3.112636637E+02  9.061541858E+00  4.387368430E+02  6.422936341E-06  0.00000E+00  9.000E+00
#rwgt            2          11   3.4191707088789096E-003           3      270878           0
</event>
<event>
      5   9999  3.19816E-02  3.92148E+02 -1.00000E+00  1.01945E-01
      21    -1     0     0   502   501  0.000000000E+00  0.000000000E+00  8.572184323E+02  8.572184323E+02  0.000000000E+00  0.00000E+00  9.000E+00
      21    -1     0     0   511   502  0.000000000E+00  0.000000000E+00 -4.137884072E+02  4.137884072E+02  0.000000000E+00  0.00000E+00  9.000E+00
      25     1     1     2     0     0 -1.650339574E+02  6.347082455E+01  5.047651176E+02  5.492518335E+02  1.250000000E+02  0.00000E+00  9.000E+00
      25     1     1     2     0     0 -2.059569564E+02  6.359667133E+01 -1.852524869E+02  3.104936205E+02  1.250000000E+02  0.00000E+00  9.000E+00
      21     1     1     2   511   501  3.709909138E+02 -1.270674959E+02  1.239173944E+02  4.112613856E+02  4.473129043E-06  0.00000E+00  9.000E+00
#rwgt            1           1   2.9286624020574484E-002           3      270913           0
</event>
<event>
      5   9999  3.19816E-02  3.52007E+01 -1.00000E+00  1.48369E-01
       1    -1     0     0   502     0  0.000000000E+00  0.000000000E+00  2.597844383E+03  2.597844383E+03  0.000000000E+00  0.00000E+00  9.000E+00
      21    -1     0     0   501   502  0.000000000E+00  0.000000000E+00 -8.669971957E+02  8.669971957E+02  0.000000000E+00  0.00000E+00  9.000E+00
      25     1     1     2     0     0  8.887985975E+02 -3.612529938E+02 -1.726887712E+02  9.828087729E+02  1.250000000E+02  0.00000E+00  9.000E+00
      25     1     1     2     0     0 -8.572836126E+02  3.769341208E+02  4.830679789E+02  1.061128737E+03  1.250000000E+02  0.00000E+00  9.000E+00
       1     1     1     2   501     0 -3.151498488E+01 -1.568112696E+01  1.420467980E+03  1.420904069E+03  2.157918644E-05  0.00000E+00  9.000E+00
#rwgt            1           1   3.5407453937525243E-002           3      270989           0
</event>
<event>
      5   9999  3.19816E-02  8.44577E+02 -1.00000E+00  9.27875E-02
      21    -1     0     0   502   501  0.000000000E+00  0.000000000E+00  1.015854629E+03  1.015854629E+03  0.000000000E+00  0.00000E+00  9.000E+00
      21    -1     0     0   511   502  0.000000000E+00  0.000000000E+00 -1.917627542E+03  1.917627542E+03  0.000000000E+00  0.00000E+00  9.000E+00
      25     1     1     2     0     0  1.054721132E+03 -1.792272436E+02  3.345178476E+02  1.127868016E+03  1.250000000E+02  0.00000E+00  9.000E+00
      25     1     1     2     0     0 -2.364080702E+02  3.882102525E+02 -4.460809514E+02  6.490063105E+02  1.250000000E+02  0.00000E+00  9.000E+00
      21     1     1     2   511   501 -8.183130614E+02 -2.089830089E+02 -7.902098090E+02  1.156607845E+03  1.078959322E-05  0.00000E+00  9.000E+00
#rwgt            2          11   9.4732617984358075E-004           3      271235           0
</event>
<event>
      5   9999  3.19816E-02  1.78969E+02 -1.00000E+00  1.13433E-01
      21    -1     0     0   512   501  0.000000000E+00  0.000000000E+00  5.116125906E+02  5.116125906E+02  0.000000000E+00  0.00000E+00  9.000E+00
      21    -1     0     0   501   502  0.000000000E+00  0.000000000E+00 -5.054360622E+02  5.054360622E+02  0.000000000E+00  0.00000E+00  9.000E+00
      25     1     1     2     0     0 -3.827277312E+02  1.555326355E+00 -7.750857104E+00  4.027008953E+02  1.250000000E+02  0.00000E+00  9.000E+00
      25     1     1     2     0     0  2.715677000E+02  1.387065790E+02 -1.586160141E+02  3.657493276E+02  1.250000000E+02  0.00000E+00  9.000E+00
      21     1     1     2   512   502  1.111600311E+02 -1.402619053E+02  1.725433996E+02  2.485984299E+02  3.814697266E-06  0.00000E+00  9.000E+00
#rwgt            1           1   2.7582343536118908E-002           3      271255           0
</event>
<event>
      5   9999  3.19816E-02  2.02975E+02 -1.00000E+00  1.11415E-01
      21    -1     0     0   502   501  0.000000000E+00  0.000000000E+00  5.317409304E+02  5.317409304E+02  0.000000000E+00  0.00000E+00  9.000E+00
      21    -1     0     0   501   511  0.000000000E+00  0.000000000E+00 -4.671382244E+02  4.671382244E+02  0.000000000E+00  0.00000E+00  9.000E+00
      25     1     1     2     0     0  2.684560056E+02 -1.692637300E+02 -7.767752043E+01  3.498251484E+02  1.250000000E+02  0.00000E+00  9.000E+00
      25     1     1     2     0     0 -1.425053744E+02  1.009361986E+01  3.247220097E+02  3.761370049E+02  1.250000000E+02  0.00000E+00  9.000E+00
      21     1     1     2   502   511 -1.259506312E+02  1.591701101E+02 -1.824417832E+02  2.729170015E+02  3.814697266E-06  0.00000E+00  9.000E+00
#rwgt            1           1   2.8425340214446627E-002           3      271314           0
</event>
<event>
      5   9999  3.19816E-02  1.76777E+01 -1.00000E+00  1.70917E-01
      21    -1     0     0   512   501  0.000000000E+00  0.000000000E+00  1.466790370E+02  1.466790370E+02  0.000000000E+00  0.00000E+00  9.000E+00
      21    -1     0     0   501   502  0.000000000E+00  0.000000000E+00 -6.117584148E+02  6.117584148E+02  0.000000000E+00  0.00000E+00  9.000E+00
      25     1     1     2     0     0 -2.067815078E+02  7.966132715E+01 -8.747722354E+01  2.690386285E+02  1.250000000E+02  0.00000E+00  9.000E+00
      25     1     1     2     0     0  2.034213944E+02 -6.230592300E+01 -3.942588492E+02  4.651100213E+02  1.250000000E+02  0.00000E+00  9.000E+00
      21     1     1     2   512   502  3.360113348E+00 -1.735540415E+01  1.665669491E+01  2.428880195E+01  0.000000000E+00  0.00000E+00  9.000E+00
#rwgt            1           1   2.9278891290781719E-002           3      271357           0
</event>
<event>
      5   9999  3.19816E-02  3.74257E+01 -1.00000E+00  1.46655E-01
      21    -1     0     0   502   501  0.000000000E+00  0.000000000E+00  1.561301450E+03  1.561301450E+03  0.000000000E+00  0.00000E+00  9.000E+00
      21    -1     0     0   511   502  0.000000000E+00  0.000000000E+00 -4.798978805E+02  4.798978805E+02  0.000000000E+00  0.00000E+00  9.000E+00
      25     1     1     2     0     0  5.165467448E+02  1.141151584E+02  8.971558185E+02  1.048978728E+03  1.250000000E+02  0.00000E+00  9.000E+00
      25     1     1     2     0     0 -5.383901747E+02 -8.372520180E+01  4.538366748E+02  7.200462603E+02  1.250000000E+02  0.00000E+00  9.000E+00
      21     1     1     2   511   501  2.184342991E+01 -3.038995664E+01 -2.695889237E+02  2.721743424E+02  6.607249480E-06  0.00000E+00  9.000E+00
#rwgt            1           1   2.9140463390980895E-002           3      271537           0
</event>
<event>
      5   9999  3.19816E-02  2.30532E+01 -1.00000E+00  1.61434E-01
      21    -1     0     0   502   512  0.000000000E+00  0.000000000E+00  7.742771980E+02  7.742771980E+02  0.000000000E+00  0.00000E+00  9.000E+00
      21    -1     0     0   501   502  0.000000000E+00  0.000000000E+00 -6.111825680E+01  6.111825680E+01  0.000000000E+00  0.00000E+00  9.000E+00
      25     1     1     2     0     0  8.412917119E+01  7.490605357E+01  1.592493941E+02  2.316765068E+02  1.250000000E+02  0.00000E+00  9.000E+00
      25     1     1     2     0     0 -1.051609120E+02 -8.434610932E+01  3.229447578E+02  3.716065126E+02  1.250000000E+02  0.00000E+00  9.000E+00
      21     1     1     2   501   512  2.103174080E+01  9.440055751E+00  2.309647893E+02  2.321124354E+02  0.000000000E+00  0.00000E+00  9.000E+00
#rwgt            1           1   2.3538896023037770E-002           3      271720           0
</event>
<event>
      5   9999  3.19816E-02  8.99357E+01 -1.00000E+00  1.25936E-01
      21    -1     0     0   511   501  0.000000000E+00  0.000000000E+00  2.561683094E+02  2.561683094E+02  0.000000000E+00  0.00000E+00  9.000E+00
      21    -1     0     0   501   502  0.000000000E+00  0.000000000E+00 -2.295221682E+03  2.295221682E+03  0.000000000E+00  0.00000E+00  9.000E+00
      25     1     1     2     0     0  2.420203726E+02  2.527346284E+02  5.529755328E+01  3.756746897E+02  1.250000000E+02  0.00000E+00  9.000E+00
      25     1     1     2     0     0 -3.255469159E+02 -2.860775604E+02 -1.977355306E+03  2.028146980E+03  1.250000000E+02  0.00000E+00  9.000E+00
      21     1     1     2   511   502  8.352654332E+01  3.334293202E+01 -1.169956197E+02  1.475683217E+02  2.336015456E-06  0.00000E+00  9.000E+00
#rwgt            1           1   3.4390213092893800E-002           3      271869           0
</event>
<event>
      5   9999  3.19816E-02  5.91077E+01 -1.00000E+00  1.35052E-01
      21    -1     0     0   502   512  0.000000000E+00  0.000000000E+00  1.295731069E+03  1.295731069E+03  0.000000000E+00  0.00000E+00  9.000E+00
      21    -1     0     0   501   502  0.000000000E+00  0.000000000E+00 -7.974455726E+01  7.974455726E+01  0.000000000E+00  0.00000E+00  9.000E+00
      25     1     1     2     0     0  2.468882928E+02  5.282309022E+01  3.343022408E+02  4.371808507E+02  1.250000000E+02  0.00000E+00  9.000E+00
      25     1     1     2     0     0 -2.191426687E+02 -6.320780311E-01  6.073435982E+02  6.576588440E+02  1.250000000E+02  0.00000E+00  9.000E+00
      21     1     1     2   501   512 -2.774562415E+01 -5.219101219E+01  2.743406731E+02  2.806359320E+02  0.000000000E+00  0.00000E+00  9.000E+00
#rwgt            1           1   2.7487139117922988E-002           3      271998           0
</event>
<event>
      5   9999  3.19816E-02  1.48963E+02 -1.00000E+00  1.16513E-01
      21    -1     0     0   511   501  0.000000000E+00  0.000000000E+00  7.889009308E+02  7.889009308E+02  0.000000000E+00  0.00000E+00  9.000E+00
      21    -1     0     0   501   502  0.000000000E+00  0.000000000E+00 -4.255388492E+02  4.255388492E+02  0.000000000E+00  0.00000E+00  9.000E+00
      25     1     1     2     0     0 -3.079107048E+02 -1.735894784E+02  2.753869167E+02  4.651937908E+02  1.250000000E+02  0.00000E+00  9.000E+00
      25     1     1     2     0     0  1.589521156E+02  1.747551188E+02 -2.586749042E+02  3.719446635E+02  1.250000000E+02  0.00000E+00  9.000E+00
      21     1     1     2   511   502  1.489585892E+02 -1.165640481E+00  3.466500691E+02  3.773013258E+02  5.394796609E-06  0.00000E+00  9.000E+00
#rwgt            1           1   2.4618189158605280E-002           3      272094           0
</event>
<event>
      5   9999  3.19816E-02  5.99697E+01 -1.00000E+00  1.34715E-01
      21    -1     0     0   502   501  0.000000000E+00  0.000000000E+00  3.884464217E+02  3.884464217E+02  0.000000000E+00  0.00000E+00  9.000E+00
      21    -1     0     0   512   502  0.000000000E+00  0.000000000E+00 -9.222319024E+02  9.222319024E+02  0.000000000E+00  0.00000E+00  9.000E+00
      25     1     1     2     0     0 -1.335409386E+01  4.133563626E+02  1.324017087E+02  4.518816513E+02  1.250000000E+02  0.00000E+00  9.000E+00
      25     1     1     2     0     0 -2.241481346E+01 -4.614910930E+02 -5.585519285E+02  7.355825648E+02  1.250000000E+02  0.00000E+00  9.000E+00
      21     1     1     2   512   501  3.576890732E+01  4.813473041E+01 -1.076352609E+02  1.232141079E+02  1.348699152E-06  0.00000E+00  9.000E+00
#rwgt            1           1   2.8622149244683051E-002           3      272213           0
</event>
<event>
      5   9999  3.19816E-02  9.62833E+00 -1.00000E+00  1.97678E-01
      21    -1     0     0   502   501  0.000000000E+00  0.000000000E+00  1.914841623E+02  1.914841623E+02  0.000000000E+00  0.00000E+00  9.000E+00
      21    -1     0     0   511   502  0.000000000E+00  0.000000000E+00 -9.991199038E+02  9.991199038E+02  0.000000000E+00  0.00000E+00  9.000E+00
      25     1     1     2     0     0 -3.159725950E+02 -1.913186191E+02 -1.644270998E+02  4.232053473E+02  1.250000000E+02  0.00000E+00  9.000E+00
      25     1     1     2     0     0  3.091464633E+02  1.981089585E+02 -5.461756319E+02  6.698891820E+02  1.250000000E+02  0.00000E+00  9.000E+00
      21     1     1     2   511   501  6.826131716E+00 -6.790339461E+00 -9.703300978E+01  9.750953682E+01  1.348699152E-06  0.00000E+00  9.000E+00
#rwgt            1           1   2.7269580409061692E-002           3      272309           0
</event>
<event>
      5   9999  3.19816E-02  4.32845E+01 -1.00000E+00  1.42746E-01
      21    -1     0     0   512   501  0.000000000E+00  0.000000000E+00  8.907045715E+02  8.907045715E+02  0.000000000E+00  0.00000E+00  9.000E+00
      21    -1     0     0   501   502  0.000000000E+00  0.000000000E+00 -1.852067652E+02  1.852067652E+02  0.000000000E+00  0.00000E+00  9.000E+00
      25     1     1     2     0     0  6.288183984E+01 -3.129155013E+02  5.356622072E+02  6.359475112E+02  1.250000000E+02  0.00000E+00  9.000E+00
      25     1     1     2     0     0 -5.471896616E+01  2.704077205E+02  4.297085198E+01  3.059182811E+02  1.250000000E+02  0.00000E+00  9.000E+00
      21     1     1     2   512   502 -8.162873686E+00  4.250778080E+01  1.268647470E+02  1.340455444E+02  0.000000000E+00  0.00000E+00  9.000E+00
#rwgt            1           1   2.8170799634379275E-002           3      272509           0
</event>
<event>
      5   9999  3.19816E-02  4.52993E+02 -1.00000E+00  1.00086E-01
      21    -1     0     0   502   511  0.000000000E+00  0.000000000E+00  5.964687701E+02  5.964687701E+02  0.000000000E+00  0.00000E+00  9.000E+00
      21    -1     0     0   501   502  0.000000000E+00  0.000000000E+00 -5.136471826E+02  5.136471826E+02  0.000000000E+00  0.00000E+00  9.000E+00
      25     1     1     2     0     0 -2.229209735E+01  2.074278869E+02 -1.981065409E+02  3.136789241E+02  1.250000000E+02  0.00000E+00  9.000E+00
      25     1     1     2     0     0  1.017838469E+02  2.385361884E+02  1.514526706E+02  3.253035138E+02  1.250000000E+02  0.00000E+00  9.000E+00
      21     1     1     2   501   511 -7.949174952E+01 -4.459640753E+02  1.294754577E+02  4.711335149E+02  1.907348633E-06  0.00000E+00  9.000E+00
#rwgt            2          11   3.6508668528904527E-003           3      272603           0
</event>
<event>
      5   9999  3.19816E-02  5.32935E+01 -1.00000E+00  1.37513E-01
      21    -1     0     0   502   512  0.000000000E+00  0.000000000E+00  9.492308619E+01  9.492308619E+01  0.000000000E+00  0.00000E+00  9.000E+00
      21    -1     0     0   501   502  0.000000000E+00  0.000000000E+00 -3.671363394E+02  3.671363394E+02  0.000000000E+00  0.00000E+00  9.000E+00
      25     1     1     2     0     0  2.394890129E+01 -1.062187382E+02 -1.087060129E+02  1.982371495E+02  1.250000000E+02  0.00000E+00  9.000E+00
      25     1     1     2     0     0  2.347435684E+01  8.190340341E+01 -1.378977361E+02  2.046948914E+02  1.250000000E+02  0.00000E+00  9.000E+00
      21     1     1     2   501   512 -4.742325813E+01  2.431533475E+01 -2.560950412E+01  5.912738467E+01  1.011524364E-06  0.00000E+00  9.000E+00
#rwgt            1           1   7.6184699419359042E-002           3      272638           0
</event>
<event>
      5   9999  3.19816E-02  7.22043E+01 -1.00000E+00  1.30542E-01
      21    -1     0     0   511   501  0.000000000E+00  0.000000000E+00  7.618943796E+01  7.618943796E+01  0.000000000E+00  0.00000E+00  9.000E+00
      21    -1     0     0   501   502  0.000000000E+00  0.000000000E+00 -7.026899776E+02  7.026899776E+02  0.000000000E+00  0.00000E+00  9.000E+00
      25     1     1     2     0     0  9.630739100E+01 -1.037302478E+00 -7.288262471E+01  1.738190627E+02  1.250000000E+02  0.00000E+00  9.000E+00
      25     1     1     2     0     0 -5.991671267E+01  6.340060738E+01 -4.724198681E+02  4.964022374E+02  1.250000000E+02  0.00000E+00  9.000E+00
      21     1     1     2   511   502 -3.639067833E+01 -6.236330490E+01 -8.119804681E+01  1.086581155E+02  9.536743164E-07  0.00000E+00  9.000E+00
#rwgt            1           1   1.8170700307751999E-002           3      272708           0
</event>
<event>
      5   9999  3.19816E-02  9.04254E+01 -1.00000E+00  1.25826E-01
      21    -1     0     0   502   501  0.000000000E+00  0.000000000E+00  6.767208940E+02  6.767208940E+02  0.000000000E+00  0.00000E+00  9.000E+00
       2    -1     0     0   501     0  0.000000000E+00  0.000000000E+00 -9.424464748E+02  9.424464748E+02  0.000000000E+00  0.00000E+00  9.000E+00
      25     1     1     2     0     0  1.596058473E+02 -5.549509064E+02  1.224101323E+02  6.033686895E+02  1.250000000E+02  0.00000E+00  9.000E+00
      25     1     1     2     0     0 -1.702514596E+02  6.447474594E+02 -6.652211991E+01  6.817147778E+02  1.250000000E+02  0.00000E+00  9.000E+00
       2     1     1     2   502     0  1.064561223E+01 -8.979655296E+01 -3.216135931E+02  3.340839015E+02  7.629394531E-06  0.00000E+00  9.000E+00
#rwgt            1           1   3.0816658663466775E-002           3      272760           0
</event>
<event>
      5   9999  3.19816E-02  8.66370E+00 -1.00000E+00  2.03246E-01
      21    -1     0     0   511   501  0.000000000E+00  0.000000000E+00  3.011254538E+02  3.011254538E+02  0.000000000E+00  0.00000E+00  9.000E+00
      21    -1     0     0   501   502  0.000000000E+00  0.000000000E+00 -7.272142480E+02  7.272142480E+02  0.000000000E+00  0.00000E+00  9.000E+00
      25     1     1     2     0     0 -3.688957622E+02  5.342425708E+01 -8.930923305E+01  4.031617216E+02  1.250000000E+02  0.00000E+00  9.000E+00
      25     1     1     2     0     0  3.772260828E+02 -5.104404262E+01 -3.971767629E+02  5.641625589E+02  1.250000000E+02  0.00000E+00  9.000E+00
      21     1     1     2   511   502 -8.330320626E+00 -2.380214464E+00  6.039720174E+01  6.101542133E+01  0.000000000E+00  0.00000E+00  9.000E+00
#rwgt            2          11   1.2558400943493803E-003           3      272896           0
</event>
<event>
      5   9999  3.19816E-02  3.01335E+01 -1.00000E+00  1.52906E-01
      21    -1     0     0   502   501  0.000000000E+00  0.000000000E+00  1.763511714E+02  1.763511714E+02  0.000000000E+00  0.00000E+00  9.000E+00
      -4    -1     0     0     0   502  0.000000000E+00  0.000000000E+00 -1.673217013E+02  1.673217013E+02  0.000000000E+00  0.00000E+00  9.000E+00
      25     1     1     2     0     0  6.892520773E+01  3.644977422E+01 -4.131545143E+01  1.530073097E+02  1.250000000E+02  0.00000E+00  9.000E+00
      25     1     1     2     0     0 -7.006746781E+01 -6.337936880E+00  6.461920560E+01  1.573221574E+02  1.250000000E+02  0.00000E+00  9.000E+00
      -4     1     1     2     0   501  1.142260079E+00 -3.011183734E+01 -1.427428405E+01  3.334340551E+01  5.591411304E-07  0.00000E+00  9.000E+00
#rwgt            1           1   6.5892137702892636E-002           3      272931           0
</event>
<event>
      5   9999  3.19816E-02  7.01084E+01 -1.00000E+00  1.31187E-01
      21    -1     0     0   502   501  0.000000000E+00  0.000000000E+00  2.392816696E+02  2.392816696E+02  0.000000000E+00  0.00000E+00  9.000E+00
      21    -1     0     0   511   502  0.000000000E+00  0.000000000E+00 -9.330958185E+02  9.330958185E+02  0.000000000E+00  0.00000E+00  9.000E+00
      25     1     1     2     0     0  2.402980678E+02  3.107054320E+02 -2.026869737E+02  4.593343403E+02  1.250000000E+02  0.00000E+00  9.000E+00
      25     1     1     2     0     0 -1.952630815E+02 -3.644365392E+02 -3.518053586E+02  5.570760024E+02  1.250000000E+02  0.00000E+00  9.000E+00
      21     1     1     2   511   501 -4.503498633E+01  5.373110714E+01 -1.393218166E+02  1.559671454E+02  0.000000000E+00  0.00000E+00  9.000E+00
#rwgt            2          11   3.2136108067645254E-003           3      273015           0
</event>
<event>
      5   9999  3.19816E-02  1.46295E+02 -1.00000E+00  1.16826E-01
      21    -1     0     0   502   501  0.000000000E+00  0.000000000E+00  1.265825160E+03  1.265825160E+03  0.000000000E+00  0.00000E+00  9.000E+00
      -4    -1     0     0     0   502  0.000000000E+00  0.000000000E+00 -1.430320292E+02  1.430320292E+02  0.000000000E+00  0.00000E+00  9.000E+00
      25     1     1     2     0     0  1.521920842E+02  6.984135754E+01  5.489025783E+02  5.873323473E+02  1.250000000E+02  0.00000E+00  9.000E+00
      25     1     1     2     0     0 -1.479671549E+02 -2.160750631E+02  6.058675343E+02  6.717761390E+02  1.250000000E+02  0.00000E+00  9.000E+00
      -4     1     1     2     0   501 -4.224929232E+00  1.462337055E+02 -3.197698179E+01  1.497487029E+02  2.185142372E-06  0.00000E+00  9.000E+00
#rwgt            2           7   7.8844402815611276E-005           3      273050           0
</event>
<event>
      5   9999  3.19816E-02  2.43991E+01 -1.00000E+00  1.59546E-01
      21    -1     0     0   502   501  0.000000000E+00  0.000000000E+00  2.877730561E+03  2.877730561E+03  0.000000000E+00  0.00000E+00  9.000E+00
      21    -1     0     0   511   502  0.000000000E+00  0.000000000E+00 -6.421661623E+01  6.421661623E+01  0.000000000E+00  0.00000E+00  9.000E+00
      25     1     1     2     0     0  3.405432138E+02 -1.846927954E+02  1.536764931E+03  1.589764940E+03  1.250000000E+02  0.00000E+00  9.000E+00
      25     1     1     2     0     0 -3.183359294E+02  1.745856242E+02  1.270126604E+03  1.326900333E+03  1.250000000E+02  0.00000E+00  9.000E+00
      21     1     1     2   511   501 -2.220728443E+01  1.010717126E+01  6.622409732E+00  2.528190466E+01  4.380028980E-07  0.00000E+00  9.000E+00
#rwgt            1           1   4.8260332971560897E-002           3      273099           0
</event>
<event>
      5   9999  3.19816E-02  3.03196E+01 -1.00000E+00  1.52721E-01
      21    -1     0     0   502   501  0.000000000E+00  0.000000000E+00  1.691962117E+02  1.691962117E+02  0.000000000E+00  0.00000E+00  9.000E+00
      21    -1     0     0   512   502  0.000000000E+00  0.000000000E+00 -3.791033783E+02  3.791033783E+02  0.000000000E+00  0.00000E+00  9.000E+00
      25     1     1     2     0     0  1.948216835E+01 -1.646443213E+02 -1.097387101E+00  2.076379341E+02  1.250000000E+02  0.00000E+00  9.000E+00
      25     1     1     2     0     0 -4.797126621E+01  1.750197440E+02 -1.291269991E+02  2.554054327E+02  1.250000000E+02  0.00000E+00  9.000E+00
      21     1     1     2   512   501  2.848909786E+01 -1.037542266E+01 -7.968278036E+01  8.525622310E+01  1.348699152E-06  0.00000E+00  9.000E+00
#rwgt            1           1   2.6670414364640533E-002           3      273261           0
</event>
<event>
      5   9999  3.19816E-02  8.44722E+01 -1.00000E+00  1.27216E-01
      21    -1     0     0   511   501  0.000000000E+00  0.000000000E+00  1.128452339E+02  1.128452339E+02  0.000000000E+00  0.00000E+00  9.000E+00
      21    -1     0     0   501   502  0.000000000E+00  0.000000000E+00 -1.085453751E+03  1.085453751E+03  0.000000000E+00  0.00000E+00  9.000E+00
      25     1     1     2     0     0 -1.730734712E+01 -1.609045949E+02 -6.840240615E+02  7.139353960E+02  1.250000000E+02  0.00000E+00  9.000E+00
      25     1     1     2     0     0  1.033607205E+01  2.450886286E+02 -2.900056936E+02  3.998794476E+02  1.250000000E+02  0.00000E+00  9.000E+00
      21     1     1     2   511   502  6.971275069E+00 -8.418403370E+01  1.421238225E+00  8.448414126E+01  9.967083638E-07  0.00000E+00  9.000E+00
#rwgt            1           1   2.8462139928934458E-002           3      273389           0
</event>
<event>
      5   9999  3.19816E-02  6.21772E+01 -1.00000E+00  1.33881E-01
      21    -1     0     0   502   501  0.000000000E+00  0.000000000E+00  3.348940800E+02  3.348940800E+02  0.000000000E+00  0.00000E+00  9.000E+00
      21    -1     0     0   501   512  0.000000000E+00  0.000000000E+00 -5.869249395E+02  5.869249395E+02  0.000000000E+00  0.00000E+00  9.000E+00
      25     1     1     2     0     0  1.848098195E+02  1.499003619E+02 -2.985801954E+02  4.017460902E+02  1.250000000E+02  0.00000E+00  9.000E+00
      25     1     1     2     0     0 -2.211154823E+02 -2.003770915E+02  1.818781637E+02  3.711437750E+02  1.250000000E+02  0.00000E+00  9.000E+00
      21     1     1     2   502   512  3.630566282E+01  5.047672952E+01 -1.353288278E+02  1.489291543E+02  1.907348633E-06  0.00000E+00  9.000E+00
#rwgt            1           1   2.8965800060400806E-002           3      273452           0
</event>
<event>
      5   9999  3.19816E-02  7.71939E+01 -1.00000E+00  1.29105E-01
      21    -1     0     0   502   511  0.000000000E+00  0.000000000E+00  2.259475611E+03  2.259475611E+03  0.000000000E+00  0.00000E+00  9.000E+00
      21    -1     0     0   501   502  0.000000000E+00  0.000000000E+00 -1.466120972E+02  1.466120972E+02  0.000000000E+00  0.00000E+00  9.000E+00
      25     1     1     2     0     0 -2.758352511E+02 -2.107364530E+02  1.988297053E+02  4.191099976E+02  1.250000000E+02  0.00000E+00  9.000E+00
      25     1     1     2     0     0  3.360735112E+02  2.590091151E+02  1.430673127E+03  1.497491811E+03  1.250000000E+02  0.00000E+00  9.000E+00
      21     1     1     2   501   511 -6.023826005E+01 -4.827266213E+01  4.833606820E+02  4.894859005E+02  5.394796609E-06  0.00000E+00  9.000E+00
#rwgt            1           1   3.1565923940180519E-002           3      273596           0
</event>
<event>
      5   9999  3.19816E-02  8.39695E+01 -1.00000E+00  1.27340E-01
      21    -1     0     0   502   501  0.000000000E+00  0.000000000E+00  1.998308727E+03  1.998308727E+03  0.000000000E+00  0.00000E+00  9.000E+00
       2    -1     0     0   501     0  0.000000000E+00  0.000000000E+00 -1.540284316E+02  1.540284316E+02  0.000000000E+00  0.00000E+00  9.000E+00
      25     1     1     2     0     0 -4.173888043E+01 -5.691932766E+01  1.695582057E+02  2.221641940E+02  1.250000000E+02  0.00000E+00  9.000E+00
      25     1     1     2     0     0 -3.685653440E+01  2.736185934E+01  1.785894731E+03  1.790852330E+03  1.250000000E+02  0.00000E+00  9.000E+00
       2     1     1     2   502     0  7.859541483E+01  2.955746832E+01 -1.111726413E+02  1.393206350E+02  2.336015456E-06  0.00000E+00  9.000E+00
#rwgt            2          13   1.9070093298950857E-003           3      273724           0
</event>
<event>
      5   9999  3.19816E-02  4.83967E+01 -1.00000E+00  1.39888E-01
      21    -1     0     0   511   501  0.000000000E+00  0.000000000E+00  1.506482228E+02  1.506482228E+02  0.000000000E+00  0.00000E+00  9.000E+00
      21    -1     0     0   501   502  0.000000000E+00  0.000000000E+00 -3.617949680E+02  3.617949680E+02  0.000000000E+00  0.00000E+00  9.000E+00
      25     1     1     2     0     0 -1.159337315E+02  3.529694702E+01 -1.669135494E+02  2.411879714E+02  1.250000000E+02  0.00000E+00  9.000E+00
      25     1     1     2     0     0  1.250168108E+02 -8.283370108E+01 -8.009133467E+01  2.110219109E+02  1.250000000E+02  0.00000E+00  9.000E+00
      21     1     1     2   511   502 -9.083079254E+00  4.753675406E+01  3.585813892E+01  6.023330841E+01  4.768371582E-07  0.00000E+00  9.000E+00
#rwgt            1           1   2.7179422601885047E-002           3      273743           0
</event>
<event>
      5   9999  3.19816E-02  3.42135E+01 -1.00000E+00  1.49178E-01
      21    -1     0     0   512   501  0.000000000E+00  0.000000000E+00  6.652089202E+02  6.652089202E+02  0.000000000E+00  0.00000E+00  9.000E+00
      21    -1     0     0   501   502  0.000000000E+00  0.000000000E+00 -1.546355181E+02  1.546355181E+02  0.000000000E+00  0.00000E+00  9.000E+00
      25     1     1     2     0     0 -8.954991536E+01 -6.985143242E+01 -8.372095938E+01  1.885009522E+02  1.250000000E+02  0.00000E+00  9.000E+00
      25     1     1     2     0     0  5.903295229E+01  8.532010562E+01  3.650939062E+02  3.996035162E+02  1.250000000E+02  0.00000E+00  9.000E+00
      21     1     1     2   512   502  3.051696307E+01 -1.546867320E+01  2.292004553E+02  2.317399698E+02  0.000000000E+00  0.00000E+00  9.000E+00
#rwgt            1           1   2.6789371372238226E-002           3      273841           0
</event>
<event>
      5   9999  3.19816E-02  4.21495E+01 -1.00000E+00  1.43444E-01
      21    -1     0     0   511   501  0.000000000E+00  0.000000000E+00  9.449041519E+02  9.449041519E+02  0.000000000E+00  0.00000E+00  9.000E+00
      21    -1     0     0   501   502  0.000000000E+00  0.000000000E+00 -1.103419173E+03  1.103419173E+03  0.000000000E+00  0.00000E+00  9.000E+00
      25     1     1     2     0     0  1.959791458E+01  3.440531602E+02 -2.683667991E+00  3.665908583E+02  1.250000000E+02  0.00000E+00  9.000E+00
      25     1     1     2     0     0 -5.925064483E+01 -3.297618691E+02 -8.833531441E+02  9.529907169E+02  1.250000000E+02  0.00000E+00  9.000E+00
      21     1     1     2   511   502  3.965273024E+01 -1.429129113E+01  7.275217915E+02  7.287417493E+02  0.000000000E+00  0.00000E+00  9.000E+00
#rwgt            1           1   2.8289389403398847E-002           3      273986           0
</event>
<event>
      5   9999  3.19816E-02  1.12866E+02 -1.00000E+00  1.21509E-01
       1    -1     0     0   502     0  0.000000000E+00  0.000000000E+00  3.036709128E+03  3.036709128E+03  0.000000000E+00  0.00000E+00  9.000E+00
      21    -1     0     0   501   502  0.000000000E+00  0.000000000E+00 -5.965258464E+02  5.965258464E+02  0.000000000E+00  0.00000E+00  9.000E+00
      25     1     1     2     0     0 -4.499496566E+02 -3.561626349E+02 -2.108405333E+02  6.240074090E+02  1.250000000E+02  0.00000E+00  9.000E+00
      25     1     1     2     0     0  4.635933289E+02  2.441245554E+02  2.302018298E+02  5.857759432E+02  1.250000000E+02  0.00000E+00  9.000E+00
       1     1     1     2   501     0 -1.364367234E+01  1.120380794E+02  2.420821985E+03  2.423451622E+03  4.315837288E-05  0.00000E+00  9.000E+00
#rwgt            2          17   1.2636979253803668E-003           3      274393           0
</event>
<event>
      5   9999  3.19816E-02  5.01268E+01 -1.00000E+00  1.39013E-01
      21    -1     0     0   502   511  0.000000000E+00  0.000000000E+00  1.090231235E+03  1.090231235E+03  0.000000000E+00  0.00000E+00  9.000E+00
      21    -1     0     0   501   502  0.000000000E+00  0.000000000E+00 -1.587731761E+02  1.587731761E+02  0.000000000E+00  0.00000E+00  9.000E+00
      25     1     1     2     0     0 -3.059859515E+00 -1.946379225E+02  8.876598785E+02  9.173103856E+02  1.250000000E+02  0.00000E+00  9.000E+00
      25     1     1     2     0     0 -4.135290583E+01  1.713956185E+02 -5.313730186E+01  2.225648079E+02  1.250000000E+02  0.00000E+00  9.000E+00
      21     1     1     2   501   511  4.441276535E+01  2.324230404E+01  9.693548185E+01  1.091292173E+02  0.000000000E+00  0.00000E+00  9.000E+00
#rwgt            1           1   3.1694618713568955E-002           3      274427           0
</event>
<event>
      5   9999  3.19816E-02  2.64574E+02 -1.00000E+00  1.07396E-01
      21    -1     0     0   502   501  0.000000000E+00  0.000000000E+00  1.289764704E+02  1.289764704E+02  0.000000000E+00  0.00000E+00  9.000E+00
       2    -1     0     0   501     0  0.000000000E+00  0.000000000E+00 -1.919090057E+03  1.919090057E+03  0.000000000E+00  0.00000E+00  9.000E+00
      25     1     1     2     0     0 -8.882509153E+01 -1.501053582E+02 -1.645519692E+02  2.704142489E+02  1.250000000E+02  0.00000E+00  9.000E+00
      25     1     1     2     0     0  2.768214167E+02 -3.605828316E+01 -3.090500296E+02  4.348186028E+02  1.250000000E+02  0.00000E+00  9.000E+00
       2     1     1     2   502     0 -1.879963252E+02  1.861636414E+02 -1.316511587E+03  1.342833675E+03  0.000000000E+00  0.00000E+00  9.000E+00
#rwgt            2          13   2.0889617092481917E-003           3      274682           0
</event>
<event>
      5   9999  3.19816E-02  2.43140E+01 -1.00000E+00  1.59661E-01
      21    -1     0     0   502   501  0.000000000E+00  0.000000000E+00  3.162281243E+02  3.162281243E+02  0.000000000E+00  0.00000E+00  9.000E+00
      21    -1     0     0   511   502  0.000000000E+00  0.000000000E+00 -1.092583113E+02  1.092583113E+02  0.000000000E+00  0.00000E+00  9.000E+00
      25     1     1     2     0     0 -8.749114860E+01  7.106804457E+01  1.714415868E+02  2.402552512E+02  1.250000000E+02  0.00000E+00  9.000E+00
      25     1     1     2     0     0  6.317748454E+01 -7.119668985E+01  2.672446752E+01  1.593723952E+02  1.250000000E+02  0.00000E+00  9.000E+00
      21     1     1     2   511   501  2.431366407E+01  1.286452783E-01  8.803758628E+00  2.585878915E+01  3.953724850E-07  0.00000E+00  9.000E+00
#rwgt            1           1   2.9059426555590660E-002           3      274746           0
</event>
<event>
      5   9999  3.19816E-02  2.71346E+01 -1.00000E+00  1.56131E-01
      21    -1     0     0   502   501  0.000000000E+00  0.000000000E+00  2.029030258E+02  2.029030258E+02  0.000000000E+00  0.00000E+00  9.000E+00
      21    -1     0     0   501   512  0.000000000E+00  0.000000000E+00 -3.811282550E+02  3.811282550E+02  0.000000000E+00  0.00000E+00  9.000E+00
      25     1     1     2     0     0  4.494015851E+01 -1.924989668E+02  5.741218735E+01  2.408248935E+02  1.250000000E+02  0.00000E+00  9.000E+00
      25     1     1     2     0     0 -5.856364830E+01  1.690322427E+02 -2.266117967E+02  3.146100863E+02  1.250000000E+02  0.00000E+00  9.000E+00
      21     1     1     2   502   512  1.362348980E+01  2.346672418E+01 -9.025619806E+00  2.859630100E+01  2.064765462E-07  0.00000E+00  9.000E+00
#rwgt            1           1   2.5059833633466307E-002           3      274862           0
</event>
<event>
      5   9999  3.19816E-02  2.75819E+02 -1.00000E+00  1.06792E-01
      21    -1     0     0   502   501  0.000000000E+00  0.000000000E+00  1.347859797E+03  1.347859797E+03  0.000000000E+00  0.00000E+00  9.000E+00
      21    -1     0     0   501   511  0.000000000E+00  0.000000000E+00 -3.746493205E+02  3.746493205E+02  0.000000000E+00  0.00000E+00  9.000E+00
      25     1     1     2     0     0 -1.676427649E+02 -1.751194931E+02 -4.490571248E+00  2.727931428E+02  1.250000000E+02  0.00000E+00  9.000E+00
      25     1     1     2     0     0  4.388404129E+02  1.248412526E+02  1.060923504E+03  1.161615223E+03  1.250000000E+02  0.00000E+00  9.000E+00
      21     1     1     2   502   511 -2.711976480E+02  5.027824052E+01 -8.322245606E+01  2.881007513E+02  3.814697266E-06  0.00000E+00  9.000E+00
#rwgt            1           1   3.0576276691637150E-002           3      274956           0
</event>
<event>
      5   9999  3.19816E-02  1.27264E+01 -1.00000E+00  1.84384E-01
      21    -1     0     0   502   501  0.000000000E+00  0.000000000E+00  1.130252265E+03  1.130252265E+03  0.000000000E+00  0.00000E+00  9.000E+00
      21    -1     0     0   501   512  0.000000000E+00  0.000000000E+00 -1.142220946E+02  1.142220946E+02  0.000000000E+00  0.00000E+00  9.000E+00
      25     1     1     2     0     0 -1.659008480E+02  1.523361962E+02  9.034274093E+02  9.394336016E+02  1.250000000E+02  0.00000E+00  9.000E+00
      25     1     1     2     0     0  1.726027064E+02 -1.415174111E+02  1.271801121E+02  2.856897842E+02  1.250000000E+02  0.00000E+00  9.000E+00
      21     1     1     2   502   512 -6.701858348E+00 -1.081878514E+01 -1.457735108E+01  1.935097366E+01  5.057621821E-07  0.00000E+00  9.000E+00
#rwgt            1           1   2.7339221307267358E-002           3      275036           0
</event>
<event>
      5   9999  3.19816E-02  1.32982E+02 -1.00000E+00  1.18505E-01
       2    -1     0     0   502     0  0.000000000E+00  0.000000000E+00  9.672266990E+02  9.672266990E+02  0.000000000E+00  0.00000E+00  9.000E+00
      21    -1     0     0   501   502  0.000000000E+00  0.000000000E+00 -1.727288388E+02  1.727288388E+02  0.000000000E+00  0.00000E+00  9.000E+00
      25     1     1     2     0     0  8.924115809E+01  1.377713200E+02 -7.634609299E+01  2.199969246E+02  1.250000000E+02  0.00000E+00  9.000E+00
      25     1     1     2     0     0  3.410441755E+01 -8.807240882E+01  3.709030648E+02  4.026337591E+02  1.250000000E+02  0.00000E+00  9.000E+00
       2     1     1     2   501     0 -1.233455756E+02 -4.969891119E+01  4.999408884E+02  5.173248541E+02  1.078959322E-05  0.00000E+00  9.000E+00
#rwgt            1           1   3.0982205337617471E-002           3      275235           0
</event>
<event>
      5   9999  3.19816E-02  8.26760E+01 -1.00000E+00  1.27662E-01
      21    -1     0     0   502   501  0.000000000E+00  0.000000000E+00  1.010608766E+02  1.010608766E+02  0.000000000E+00  0.00000E+00  9.000E+00
       1    -1     0     0   501     0  0.000000000E+00  0.000000000E+00 -5.637911975E+02  5.637911975E+02  0.000000000E+00  0.00000E+00  9.000E+00
      25     1     1     2     0     0 -5.086321758E+01 -1.771466310E+02 -2.189415212E+02  3.122953498E+02  1.250000000E+02  0.00000E+00  9.000E+00
      25     1     1     2     0     0  9.198316627E-01  1.112605023E+02 -1.300178540E+02  2.119183517E+02  1.250000000E+02  0.00000E+00  9.000E+00
       1     1     1     2   502     0  4.994338591E+01  6.588612872E+01 -1.137709457E+02  1.406383726E+02  1.907348633E-06  0.00000E+00  9.000E+00
#rwgt            1           1   2.7613301857147061E-002           3      275282           0
</event>
<event>
      5   9999  3.19816E-02  1.05577E+02 -1.00000E+00  1.22777E-01
      21    -1     0     0   502   501  0.000000000E+00  0.000000000E+00  1.046042631E+02  1.046042631E+02  0.000000000E+00  0.00000E+00  9.000E+00
       2    -1     0     0   501     0  0.000000000E+00  0.000000000E+00 -1.946629763E+03  1.946629763E+03  0.000000000E+00  0.00000E+00  9.000E+00
      25     1     1     2     0     0  3.405637008E+01 -5.175700530E+01  4.086172892E+01  1.453729852E+02  1.250000000E+02  0.00000E+00  9.000E+00
      25     1     1     2     0     0 -1.381710839E+02  3.424732804E+01 -1.215671793E+03  1.230344276E+03  1.250000000E+02  0.00000E+00  9.000E+00
       2     1     1     2   502     0  1.041147138E+02  1.750967727E+01 -6.672154354E+02  6.755167649E+02  7.629394531E-06  0.00000E+00  9.000E+00
#rwgt            1           1   2.3296428942452742E-002           3      275370           0
</event>
<event>
      5   9999  3.19816E-02  4.46643E+01 -1.00000E+00  1.41931E-01
      21    -1     0     0   502   501  0.000000000E+00  0.000000000E+00  4.076573404E+02  4.076573404E+02  0.000000000E+00  0.00000E+00  9.000E+00
       2    -1     0     0   501     0  0.000000000E+00  0.000000000E+00 -4.800360513E+02  4.800360513E+02  0.000000000E+00  0.00000E+00  9.000E+00
      25     1     1     2     0     0 -7.061081610E+01  1.288503095E+02  9.618053482E+01  2.155550623E+02  1.250000000E+02  0.00000E+00  9.000E+00
      25     1     1     2     0     0  1.077081791E+02 -1.537237203E+02  1.996724472E+02  3.012077692E+02  1.250000000E+02  0.00000E+00  9.000E+00
       2     1     1     2   502     0 -3.709736302E+01  2.487341086E+01 -3.682316929E+02  3.709305603E+02  5.394796609E-06  0.00000E+00  9.000E+00
#rwgt            1           1   2.5942947722059389E-002           3      275446           0
</event>
<event>
      5   9999  3.19816E-02  1.63218E+02 -1.00000E+00  1.14958E-01
      21    -1     0     0   502   501  0.000000000E+00  0.000000000E+00  2.608245898E+02  2.608245898E+02  0.000000000E+00  0.00000E+00  9.000E+00
      21    -1     0     0   511   502  0.000000000E+00  0.000000000E+00 -4.513345127E+02  4.513345127E+02  0.000000000E+00  0.00000E+00  9.000E+00
      25     1     1     2     0     0 -3.027874145E+02 -3.736103578E+01 -9.885646928E+01  3.442000391E+02  1.250000000E+02  0.00000E+00  9.000E+00
      25     1     1     2     0     0  1.399105983E+02  2.681500372E+01 -2.308776991E+01  1.909242391E+02  1.250000000E+02  0.00000E+00  9.000E+00
      21     1     1     2   511   501  1.628768162E+02  1.054603206E+01 -6.856568364E+01  1.770348243E+02  4.473129043E-06  0.00000E+00  9.000E+00
#rwgt            1           1   2.8801313714482298E-002           3      275517           0
</event>
<event>
      5   9999  3.19816E-02  1.14031E+02 -1.00000E+00  1.21316E-01
      21    -1     0     0   502   501  0.000000000E+00  0.000000000E+00  8.915637187E+01  8.915637187E+01  0.000000000E+00  0.00000E+00  9.000E+00
       2    -1     0     0   501     0  0.000000000E+00  0.000000000E+00 -2.578563378E+03  2.578563378E+03  0.000000000E+00  0.00000E+00  9.000E+00
      25     1     1     2     0     0  1.068329130E+02  2.859577321E+02 -7.302326297E+02  8.012800942E+02  1.250000000E+02  0.00000E+00  9.000E+00
      25     1     1     2     0     0 -3.214468901E+01 -3.721252415E+02 -7.171365364E+02  8.181810852E+02  1.250000000E+02  0.00000E+00  9.000E+00
       2     1     1     2   502     0 -7.468822397E+01  8.616750942E+01 -1.042037840E+03  1.048258570E+03  2.157918644E-05  0.00000E+00  9.000E+00
#rwgt            1           1   3.2824922397384541E-002           3      275577           0
</event>
<event>
      5   9999  3.19816E-02  3.26202E+01 -1.00000E+00  1.50556E-01
      21    -1     0     0   502   501  0.000000000E+00  0.000000000E+00  1.117652161E+02  1.117652161E+02  0.000000000E+00  0.00000E+00  9.000E+00
      21    -1     0     0   511   502  0.000000000E+00  0.000000000E+00 -1.323307351E+03  1.323307351E+03  0.000000000E+00  0.00000E+00  9.000E+00
      25     1     1     2     0     0  5.806597915E+01 -7.140348671E+01 -3.277263830E+02  3.626288708E+02  1.250000000E+02  0.00000E+00  9.000E+00
      25     1     1     2     0     0 -2.881882660E+01  5.695775589E+01  4.164860200E+01  1.464046337E+02  1.250000000E+02  0.00000E+00  9.000E+00
      21     1     1     2   511   501 -2.924715255E+01  1.444573083E+01 -9.254643541E+02  9.260390627E+02  1.078959322E-05  0.00000E+00  9.000E+00
#rwgt            1           1   2.3567089945741693E-002           3      275642           0
</event>
<event>
      5   9999  3.19816E-02  1.67918E+02 -1.00000E+00  1.14484E-01
      21    -1     0     0   502   501  0.000000000E+00  0.000000000E+00  7.618783387E+02  7.618783387E+02  0.000000000E+00  0.00000E+00  9.000E+00
      21    -1     0     0   512   502  0.000000000E+00  0.000000000E+00 -8.221760205E+02  8.221760205E+02  0.000000000E+00  0.00000E+00  9.000E+00
      25     1     1     2     0     0 -2.559290552E+02 -4.424410785E+02 -3.881584584E+02  6.538698480E+02  1.250000000E+02  0.00000E+00  9.000E+00
      25     1     1     2     0     0  2.853516085E+02  6.077610689E+02  3.378909444E+02  7.619674190E+02  1.250000000E+02  0.00000E+00  9.000E+00
      21     1     1     2   512   501 -2.942255329E+01 -1.653199904E+02 -1.003016784E+01  1.682170922E+02  3.135906801E-06  0.00000E+00  9.000E+00
#rwgt            1           1   2.2413273002103239E-002           3      275713           0
</event>
<event>
      5   9999  3.19816E-02  1.74159E+01 -1.00000E+00  1.71484E-01
      21    -1     0     0   502   511  0.000000000E+00  0.000000000E+00  1.879851857E+02  1.879851857E+02  0.000000000E+00  0.00000E+00  9.000E+00
      21    -1     0     0   501   502  0.000000000E+00  0.000000000E+00 -1.276231284E+03  1.276231284E+03  0.000000000E+00  0.00000E+00  9.000E+00
      25     1     1     2     0     0  3.215743919E+02 -1.566361721E+02 -8.591962520E+02  9.390357710E+02  1.250000000E+02  0.00000E+00  9.000E+00
      25     1     1     2     0     0 -3.207231889E+02  1.740312401E+02 -2.765354876E+02  4.746020568E+02  1.250000000E+02  0.00000E+00  9.000E+00
      21     1     1     2   501   511 -8.512029606E-01 -1.739506793E+01  4.748564098E+01  5.057864208E+01  1.168007728E-06  0.00000E+00  9.000E+00
#rwgt            1           1   2.4626902490031643E-002           3      275792           0
</event>
<event>
      5   9999  3.19816E-02  1.12680E+02 -1.00000E+00  1.21540E-01
      21    -1     0     0   502   501  0.000000000E+00  0.000000000E+00  5.022037971E+02  5.022037971E+02  0.000000000E+00  0.00000E+00  9.000E+00
      21    -1     0     0   512   502  0.000000000E+00  0.000000000E+00 -7.569764709E+02  7.569764709E+02  0.000000000E+00  0.00000E+00  9.000E+00
      25     1     1     2     0     0 -2.802193673E+02  4.278561362E+02  7.768963523E+01  5.322071462E+02  1.250000000E+02  0.00000E+00  9.000E+00
      25     1     1     2     0     0  1.754571187E+02 -3.863635559E+02 -7.869027984E+01  4.493096460E+02  1.250000000E+02  0.00000E+00  9.000E+00
      21     1     1     2   512   501  1.047622486E+02 -4.149258026E+01 -2.537720293E+02  2.776634758E+02  2.697398305E-06  0.00000E+00  9.000E+00
#rwgt            1           1   2.5970899956787207E-002           3      275977           0
</event>
<event>
      5   9999  3.19816E-02  9.09039E+01 -1.00000E+00  1.25720E-01
      21    -1     0     0   502   501  0.000000000E+00  0.000000000E+00  1.059804915E+03  1.059804915E+03  0.000000000E+00  0.00000E+00  9.000E+00
      21    -1     0     0   501   511  0.000000000E+00  0.000000000E+00 -3.368273829E+02  3.368273829E+02  0.000000000E+00  0.00000E+00  9.000E+00
      25     1     1     2     0     0 -2.037095675E+02 -3.262130818E+02  7.358031262E+02  8.396093158E+02  1.250000000E+02  0.00000E+00  9.000E+00
      25     1     1     2     0     0  2.275900618E+02  2.385019181E+02  1.398831507E+02  3.793055458E+02  1.250000000E+02  0.00000E+00  9.000E+00
      21     1     1     2   502   511 -2.388049428E+01  8.771116366E+01 -1.527087451E+02  1.777174361E+02  5.394796609E-06  0.00000E+00  9.000E+00
#rwgt            1           1   3.2278071671432186E-002           3      276061           0
</event>
<event>
      5   9999  3.19816E-02  2.54733E+01 -1.00000E+00  1.58143E-01
      21    -1     0     0   502   501  0.000000000E+00  0.000000000E+00  1.227907880E+02  1.227907880E+02  0.000000000E+00  0.00000E+00  9.000E+00
      21    -1     0     0   501   512  0.000000000E+00  0.000000000E+00 -1.658355435E+03  1.658355435E+03  0.000000000E+00  0.00000E+00  9.000E+00
      25     1     1     2     0     0 -2.794352022E+02 -2.548672346E+02 -4.118644485E+02  5.729735277E+02  1.250000000E+02  0.00000E+00  9.000E+00
      25     1     1     2     0     0  2.793186236E+02  2.803402554E+02 -1.015827945E+03  1.097333571E+03  1.250000000E+02  0.00000E+00  9.000E+00
      21     1     1     2   502   512  1.165785830E-01 -2.547302087E+01 -1.078722539E+02  1.108391246E+02  0.000000000E+00  0.00000E+00  9.000E+00
#rwgt            1           1   3.0644355774031771E-002           3      276123           0
</event>
<event>
      5   9999  3.19816E-02  6.91572E+02 -1.00000E+00  9.50083E-02
      21    -1     0     0   502   501  0.000000000E+00  0.000000000E+00  4.759652908E+02  4.759652908E+02  0.000000000E+00  0.00000E+00  9.000E+00
      21    -1     0     0   511   502  0.000000000E+00  0.000000000E+00 -1.262140310E+03  1.262140310E+03  0.000000000E+00  0.00000E+00  9.000E+00
      25     1     1     2     0     0  1.892328969E+02  2.372238691E+02  1.236176857E+01  3.284236086E+02  1.250000000E+02  0.00000E+00  9.000E+00
      25     1     1     2     0     0 -1.383744626E+01  4.317362379E+02 -4.463662289E+02  6.336051328E+02  1.250000000E+02  0.00000E+00  9.000E+00
      21     1     1     2   511   501 -1.753954506E+02 -6.689601071E+02 -3.521705586E+02  7.760768591E+02  1.206313194E-05  0.00000E+00  9.000E+00
#rwgt            1           1   2.3822552107697695E-002           3      276328           0
</event>
<event>
      5   9999  3.19816E-02  8.51416E+00 -1.00000E+00  2.04195E-01
      21    -1     0     0   502   512  0.000000000E+00  0.000000000E+00  3.855618509E+02  3.855618509E+02  0.000000000E+00  0.00000E+00  9.000E+00
      21    -1     0     0   501   502  0.000000000E+00  0.000000000E+00 -2.653662306E+02  2.653662306E+02  0.000000000E+00  0.00000E+00  9.000E+00
      25     1     1     2     0     0  1.827878042E+02 -2.113767957E+02 -1.816766624E+01  3.066701734E+02  1.250000000E+02  0.00000E+00  9.000E+00
      25     1     1     2     0     0 -1.752361145E+02  2.153090960E+02  1.265714885E+02  3.297135792E+02  1.250000000E+02  0.00000E+00  9.000E+00
      21     1     1     2   501   512 -7.551689748E+00 -3.932300252E+00  1.179179804E+01  1.454432894E+01  1.685873940E-07  0.00000E+00  9.000E+00
#rwgt            1           1   2.8319610072038245E-002           3      276373           0
</event>
<event>
      5   9999  3.19816E-02  4.88003E+01 -1.00000E+00  1.39680E-01
       1    -1     0     0   502     0  0.000000000E+00  0.000000000E+00  1.713577853E+03  1.713577853E+03  0.000000000E+00  0.00000E+00  9.000E+00
      21    -1     0     0   501   502  0.000000000E+00  0.000000000E+00 -6.885415360E+01  6.885415360E+01  0.000000000E+00  0.00000E+00  9.000E+00
      25     1     1     2     0     0  4.639531081E+01  9.010769156E+01  7.798025176E+01  1.788234901E+02  1.250000000E+02  0.00000E+00  9.000E+00
      25     1     1     2     0     0  2.401000189E+00 -8.948687279E+01  3.111139152E+02  3.470310266E+02  1.250000000E+02  0.00000E+00  9.000E+00
       1     1     1     2   501     0 -4.879631100E+01 -6.208187633E-01  1.255629532E+03  1.256577490E+03  0.000000000E+00  0.00000E+00  9.000E+00
#rwgt            1           1   2.9194168694197418E-002           3      276655           0
</event>
<event>
      5   9999  3.19816E-02  7.64860E+01 -1.00000E+00  1.29301E-01
      21    -1     0     0   502   501  0.000000000E+00  0.000000000E+00  4.804743726E+02  4.804743726E+02  0.000000000E+00  0.00000E+00  9.000E+00
      21    -1     0     0   501   511  0.000000000E+00  0.000000000E+00 -1.072643662E+03  1.072643662E+03  0.000000000E+00  0.00000E+00  9.000E+00
      25     1     1     2     0     0  2.750374204E+02 -3.280008259E+02 -8.500507524E+02  9.599173954E+02  1.250000000E+02  0.00000E+00  9.000E+00
      25     1     1     2     0     0 -2.530032440E+02  2.547574175E+02  3.182172427E+02  4.957814002E+02  1.250000000E+02  0.00000E+00  9.000E+00
      21     1     1     2   502   511 -2.203417638E+01  7.324340845E+01 -6.033577980E+01  9.741923904E+01  0.000000000E+00  0.00000E+00  9.000E+00
#rwgt            1           1   3.0391117668265417E-002           3      276751           0
</event>
<event>
      5   9999  3.19816E-02  2.13906E+02 -1.00000E+00  1.10596E-01
      21    -1     0     0   502   512  0.000000000E+00  0.000000000E+00  2.083096765E+03  2.083096765E+03  0.000000000E+00  0.00000E+00  9.000E+00
      21    -1     0     0   501   502  0.000000000E+00  0.000000000E+00 -2.934795616E+02  2.934795616E+02  0.000000000E+00  0.00000E+00  9.000E+00
      25     1     1     2     0     0  5.982878104E+01 -2.927335561E+02 -1.339582771E+02  3.504885703E+02  1.250000000E+02  0.00000E+00  9.000E+00
      25     1     1     2     0     0  1.465235848E+02  3.490768136E+02  9.684651617E+02  1.047317312E+03  1.250000000E+02  0.00000E+00  9.000E+00
      21     1     1     2   501   512 -2.063523658E+02 -5.634325745E+01  9.551103184E+02  9.787704439E+02  1.078959322E-05  0.00000E+00  9.000E+00
#rwgt            1           1   3.4432903073363261E-002           3      276823           0
</event>
<event>
      5   9999  3.19816E-02  7.00396E+01 -1.00000E+00  1.31208E-01
      21    -1     0     0   502   501  0.000000000E+00  0.000000000E+00  4.450841786E+02  4.450841786E+02  0.000000000E+00  0.00000E+00  9.000E+00
      21    -1     0     0   501   511  0.000000000E+00  0.000000000E+00 -2.009761092E+02  2.009761092E+02  0.000000000E+00  0.00000E+00  9.000E+00
      25     1     1     2     0     0 -4.470208199E+01 -2.154616580E+02  1.019496263E+02  2.728382827E+02  1.250000000E+02  0.00000E+00  9.000E+00
      25     1     1     2     0     0 -1.914643438E+01  2.442524074E+02  1.137273602E+02  2.976318816E+02  1.250000000E+02  0.00000E+00  9.000E+00
      21     1     1     2   502   511  6.384851637E+01 -2.879074937E+01  2.843108294E+01  7.559012349E+01  5.840038640E-07  0.00000E+00  9.000E+00
#rwgt            1           1   2.4808433595164013E-002           3      276921           0
</event>
<event>
      5   9999  3.19816E-02  4.95865E+01 -1.00000E+00  1.39282E-01
      21    -1     0     0   502   501  0.000000000E+00  0.000000000E+00  2.888912802E+02  2.888912802E+02  0.000000000E+00  0.00000E+00  9.000E+00
      21    -1     0     0   501   512  0.000000000E+00  0.000000000E+00 -2.451675251E+02  2.451675251E+02  0.000000000E+00  0.00000E+00  9.000E+00
      25     1     1     2     0     0  1.455289812E+02  1.060708667E+02 -9.576691781E+01  2.392195972E+02  1.250000000E+02  0.00000E+00  9.000E+00
      25     1     1     2     0     0 -1.407349611E+02 -5.671662551E+01  1.459332524E+02  2.448359023E+02  1.250000000E+02  0.00000E+00  9.000E+00
      21     1     1     2   502   512 -4.794020088E+00 -4.935424119E+01 -6.442579505E+00  5.000330572E+01  5.127385418E-07  0.00000E+00  9.000E+00
#rwgt            1           1   3.2329904095805606E-002           3      276999           0
</event>
<event>
      5   9999  3.19816E-02  9.37754E+01 -1.00000E+00  1.25096E-01
      21    -1     0     0   502   501  0.000000000E+00  0.000000000E+00  1.864280473E+02  1.864280473E+02  0.000000000E+00  0.00000E+00  9.000E+00
      21    -1     0     0   501   511  0.000000000E+00  0.000000000E+00 -1.388315435E+03  1.388315435E+03  0.000000000E+00  0.00000E+00  9.000E+00
      25     1     1     2     0     0  2.856931725E+01 -8.661700523E+01 -6.002232762E+01  1.659710556E+02  1.250000000E+02  0.00000E+00  9.000E+00
      25     1     1     2     0     0 -1.172518158E+02  1.171005673E+02  4.976943470E+01  2.134538072E+02  1.250000000E+02  0.00000E+00  9.000E+00
      21     1     1     2   502   511  8.868249854E+01 -3.048356203E+01 -1.191634495E+03  1.195318620E+03  0.000000000E+00  0.00000E+00  9.000E+00
#rwgt            1           1   2.5946847629533906E-002           3      277117           0
</event>
<event>
      5   9999  3.19816E-02  4.34998E+01 -1.00000E+00  1.42617E-01
       2    -1     0     0   502     0  0.000000000E+00  0.000000000E+00  1.491072705E+02  1.491072705E+02  0.000000000E+00  0.00000E+00  9.000E+00
      21    -1     0     0   501   502  0.000000000E+00  0.000000000E+00 -6.688871842E+02  6.688871842E+02  0.000000000E+00  0.00000E+00  9.000E+00
      25     1     1     2     0     0  3.725328489E+01 -1.103545969E+02 -4.417201290E+02  4.736112506E+02  1.250000000E+02  0.00000E+00  9.000E+00
      25     1     1     2     0     0 -3.114750534E+01  1.534237559E+02 -1.568164135E+02  2.544118777E+02  1.250000000E+02  0.00000E+00  9.000E+00
       2     1     1     2   501     0 -6.105779546E+00 -4.306915895E+01  7.875662880E+01  8.997132642E+01  2.336015456E-06  0.00000E+00  9.000E+00
#rwgt            1           1   2.7163887149823211E-002           3      277157           0
</event>
<event>
      5   9999  3.19816E-02  3.80393E+01 -1.00000E+00  1.46207E-01
      21    -1     0     0   511   501  0.000000000E+00  0.000000000E+00  8.810407737E+01  8.810407737E+01  0.000000000E+00  0.00000E+00  9.000E+00
      21    -1     0     0   501   502  0.000000000E+00  0.000000000E+00 -7.250934079E+02  7.250934079E+02  0.000000000E+00  0.00000E+00  9.000E+00
      25     1     1     2     0     0  1.628619607E+02 -2.078860903E+01 -3.945545366E+02  4.452577532E+02  1.250000000E+02  0.00000E+00  9.000E+00
      25     1     1     2     0     0 -1.608116175E+02  5.877263802E+01 -2.514094280E+02  3.288560472E+02  1.250000000E+02  0.00000E+00  9.000E+00
      21     1     1     2   511   502 -2.050343161E+00 -3.798402899E+01  8.974633985E+00  3.908368484E+01  3.953724850E-07  0.00000E+00  9.000E+00
#rwgt            1           1   2.7220107631137538E-002           3      277220           0
</event>
<event>
      5   9999  3.19816E-02  7.19504E+01 -1.00000E+00  1.30619E-01
      21    -1     0     0   502   512  0.000000000E+00  0.000000000E+00  8.635393816E+02  8.635393816E+02  0.000000000E+00  0.00000E+00  9.000E+00
      21    -1     0     0   501   502  0.000000000E+00  0.000000000E+00 -8.738080086E+02  8.738080086E+02  0.000000000E+00  0.00000E+00  9.000E+00
      25     1     1     2     0     0 -1.703440039E+02 -9.285301733E+01 -7.736644647E+02  8.073539908E+02  1.250000000E+02  0.00000E+00  9.000E+00
      25     1     1     2     0     0  1.988843164E+02  1.589008506E+02  1.666800245E+02  3.289554411E+02  1.250000000E+02  0.00000E+00  9.000E+00
      21     1     1     2   501   512 -2.854031252E+01 -6.604783331E+01  5.967158132E+02  6.010379584E+02  1.078959322E-05  0.00000E+00  9.000E+00
#rwgt            1           1   3.1726911915676503E-002           3      277304           0
</event>
<event>
      5   9999  3.19816E-02  1.39830E+02 -1.00000E+00  1.17615E-01
      21    -1     0     0   502   511  0.000000000E+00  0.000000000E+00  5.269764645E+02  5.269764645E+02  0.000000000E+00  0.00000E+00  9.000E+00
      21    -1     0     0   501   502  0.000000000E+00  0.000000000E+00 -8.441468120E+02  8.441468120E+02  0.000000000E+00  0.00000E+00  9.000E+00
      25     1     1     2     0     0 -9.508110026E+01  4.513353747E+01 -6.522455330E+02  6.724036639E+02  1.250000000E+02  0.00000E+00  9.000E+00
      25     1     1     2     0     0  2.320719515E+02 -7.316800957E+01 -5.962373836E+01  2.799838183E+02  1.250000000E+02  0.00000E+00  9.000E+00
      21     1     1     2   501   511 -1.369908513E+02  2.803447210E+01  3.946989239E+02  4.187357944E+02  5.394796609E-06  0.00000E+00  9.000E+00
#rwgt            1           1   2.6247722360506615E-002           3      277383           0
</event>
<event>
      5   9999  3.19816E-02  1.16106E+02 -1.00000E+00  1.20980E-01
      21    -1     0     0   502   501  0.000000000E+00  0.000000000E+00  7.246961456E+02  7.246961456E+02  0.000000000E+00  0.00000E+00  9.000E+00
      21    -1     0     0   512   502  0.000000000E+00  0.000000000E+00 -1.600429714E+03  1.600429714E+03  0.000000000E+00  0.00000E+00  9.000E+00
      25     1     1     2     0     0 -2.351719838E+02  5.186484757E+02 -1.045026569E+03  1.196665214E+03  1.250000000E+02  0.00000E+00  9.000E+00
      25     1     1     2     0     0  1.764378804E+02 -6.188031367E+02  4.696939943E+02  8.064025644E+02  1.250000000E+02  0.00000E+00  9.000E+00
      21     1     1     2   512   501  5.873410343E+01  1.001546610E+02 -3.004009934E+02  3.220580815E+02  0.000000000E+00  0.00000E+00  9.000E+00
#rwgt            1           1   2.1719822681551315E-002           3      277437           0
</event>
<event>
      5   9999  3.19816E-02  1.10314E+02 -1.00000E+00  1.21940E-01
       1    -1     0     0   502     0  0.000000000E+00  0.000000000E+00  5.817063014E+02  5.817063014E+02  0.000000000E+00  0.00000E+00  9.000E+00
      21    -1     0     0   501   502  0.000000000E+00  0.000000000E+00 -1.288852862E+03  1.288852862E+03  0.000000000E+00  0.00000E+00  9.000E+00
      25     1     1     2     0     0 -5.379414484E+02  2.309557523E+02 -3.026349515E+01  5.993850520E+02  1.250000000E+02  0.00000E+00  9.000E+00
      25     1     1     2     0     0  6.474118766E+02 -2.173362616E+02 -8.302374756E+02  1.082264503E+03  1.250000000E+02  0.00000E+00  9.000E+00
       1     1     1     2   501     0 -1.094704283E+02 -1.361949072E+01  1.533544100E+02  1.889096087E+02  2.697398305E-06  0.00000E+00  9.000E+00
#rwgt            1           1   3.0732228559489750E-002           3      277535           0
</event>
<event>
      5   9999  3.19816E-02  5.38908E+01 -1.00000E+00  1.37244E-01
      21    -1     0     0   502   501  0.000000000E+00  0.000000000E+00  6.799242676E+01  6.799242676E+01  0.000000000E+00  0.00000E+00  9.000E+00
       1    -1     0     0   501     0  0.000000000E+00  0.000000000E+00 -6.425019834E+02  6.425019834E+02  0.000000000E+00  0.00000E+00  9.000E+00
      25     1     1     2     0     0  7.835274414E+01  1.345735016E+01 -4.360077374E+02  4.604866989E+02  1.250000000E+02  0.00000E+00  9.000E+00
      25     1     1     2     0     0 -2.874142471E+01 -3.450348179E+01 -4.169605732E+01  1.392125028E+02  1.250000000E+02  0.00000E+00  9.000E+00
       1     1     1     2   502     0 -4.961131943E+01  2.104613163E+01 -9.680576200E+01  1.107952085E+02  0.000000000E+00  0.00000E+00  9.000E+00
#rwgt            1           1   3.2988328643956136E-002           3      277629           0
</event>
<event>
      5   9999  3.19816E-02  1.44418E+02 -1.00000E+00  1.17050E-01
      21    -1     0     0   502   501  0.000000000E+00  0.000000000E+00  9.529139175E+02  9.529139175E+02  0.000000000E+00  0.00000E+00  9.000E+00
      21    -1     0     0   511   502  0.000000000E+00  0.000000000E+00 -1.056381746E+02  1.056381746E+02  0.000000000E+00  0.00000E+00  9.000E+00
      25     1     1     2     0     0  1.960407149E+02 -1.062704617E+02  3.055444706E+02  3.983814711E+02  1.250000000E+02  0.00000E+00  9.000E+00
      25     1     1     2     0     0 -7.180243147E+01  1.798999052E+02  3.680976298E+02  4.343275608E+02  1.250000000E+02  0.00000E+00  9.000E+00
      21     1     1     2   511   501 -1.242382835E+02 -7.362944350E+01  1.736336424E+02  2.258430602E+02  2.697398305E-06  0.00000E+00  9.000E+00
#rwgt            1           1   2.4819371257600024E-002           3      277698           0
</event>
<event>
      5   9999  3.19816E-02  2.38449E+01 -1.00000E+00  1.60305E-01
      21    -1     0     0   502   512  0.000000000E+00  0.000000000E+00  2.943966511E+02  2.943966511E+02  0.000000000E+00  0.00000E+00  9.000E+00
      21    -1     0     0   501   502  0.000000000E+00  0.000000000E+00 -4.470628304E+02  4.470628304E+02  0.000000000E+00  0.00000E+00  9.000E+00
      25     1     1     2     0     0 -7.343388341E+01 -1.381732858E+02 -3.704640571E+02  4.211330072E+02  1.250000000E+02  0.00000E+00  9.000E+00
      25     1     1     2     0     0  5.576516003E+01  1.221609521E+02  1.189622359E+02  2.186551277E+02  1.250000000E+02  0.00000E+00  9.000E+00
      21     1     1     2   501   512  1.766872338E+01  1.601233369E+01  9.883564184E+01  1.016713466E+02  1.348699152E-06  0.00000E+00  9.000E+00
#rwgt            1           1   2.9472786705287319E-002           3      277769           0
</event>
<event>
      5   9999  3.19816E-02  8.11650E+01 -1.00000E+00  1.28046E-01
      21    -1     0     0   502   501  0.000000000E+00  0.000000000E+00  1.259485694E+03  1.259485694E+03  0.000000000E+00  0.00000E+00  9.000E+00
       2    -1     0     0   501     0  0.000000000E+00  0.000000000E+00 -6.961187161E+02  6.961187161E+02  0.000000000E+00  0.00000E+00  9.000E+00
      25     1     1     2     0     0  1.164204509E+01  3.248233098E+02 -1.266798920E+02  3.705651290E+02  1.250000000E+02  0.00000E+00  9.000E+00
      25     1     1     2     0     0  5.820033659E+01 -3.661729667E+02  1.099798274E+03  1.167326503E+03  1.250000000E+02  0.00000E+00  9.000E+00
       2     1     1     2   502     0 -6.984238168E+01  4.134965693E+01 -4.097514038E+02  4.177127785E+02  5.394796609E-06  0.00000E+00  9.000E+00
#rwgt            1           1   2.5795827015200654E-002           3      277923           0
</event>
<event>
      5   9999  3.19816E-02  2.25133E+01 -1.00000E+00  1.62236E-01
      21    -1     0     0   502   501  0.000000000E+00  0.000000000E+00  9.572350941E+02  9.572350941E+02  0.000000000E+00  0.00000E+00  9.000E+00
      21    -1     0     0   501   511  0.000000000E+00  0.000000000E+00 -5.459160952E+02  5.459160952E+02  0.000000000E+00  0.00000E+00  9.000E+00
      25     1     1     2     0     0  4.436664122E+01  6.264886886E+02 -1.096431346E+02  6.496946150E+02  1.250000000E+02  0.00000E+00  9.000E+00
      25     1     1     2     0     0 -5.660150697E+01 -6.075901130E+02  5.396899343E+02  8.241721308E+02  1.250000000E+02  0.00000E+00  9.000E+00
      21     1     1     2   502   511  1.223486575E+01 -1.889857557E+01 -1.872780092E+01  2.928444341E+01  4.768371582E-07  0.00000E+00  9.000E+00
#rwgt            1           1   2.0409918935173351E-002           3      278024           0
</event>
<event>
      5   9999  3.19816E-02  7.22491E+01 -1.00000E+00  1.30529E-01
      21    -1     0     0   512   501  0.000000000E+00  0.000000000E+00  2.454992980E+02  2.454992980E+02  0.000000000E+00  0.00000E+00  9.000E+00
      21    -1     0     0   501   502  0.000000000E+00  0.000000000E+00 -1.039134519E+03  1.039134519E+03  0.000000000E+00  0.00000E+00  9.000E+00
      25     1     1     2     0     0 -7.431883516E+01  3.623777844E+02 -3.247565486E+02  5.078708140E+02  1.250000000E+02  0.00000E+00  9.000E+00
      25     1     1     2     0     0  4.277655974E+00 -3.801026514E+02 -5.421705436E+02  6.738473286E+02  1.250000000E+02  0.00000E+00  9.000E+00
      21     1     1     2   512   502  7.004117919E+01  1.772486704E+01  7.329187105E+01  1.029156745E+02  0.000000000E+00  0.00000E+00  9.000E+00
#rwgt            1           1   2.5913785343508002E-002           3      278211           0
</event>
<event>
      5   9999  3.19816E-02  1.03877E+01 -1.00000E+00  1.93867E-01
      21    -1     0     0   511   501  0.000000000E+00  0.000000000E+00  2.174737062E+03  2.174737062E+03  0.000000000E+00  0.00000E+00  9.000E+00
      21    -1     0     0   501   502  0.000000000E+00  0.000000000E+00 -2.394492634E+02  2.394492634E+02  0.000000000E+00  0.00000E+00  9.000E+00
      25     1     1     2     0     0 -1.778483555E+02  1.804382765E+02  9.802342002E+02  1.020133372E+03  1.250000000E+02  0.00000E+00  9.000E+00
      25     1     1     2     0     0  1.765523602E+02 -1.701317091E+02 -1.332001744E+02  3.057496047E+02  1.250000000E+02  0.00000E+00  9.000E+00
      21     1     1     2   511   502  1.295995295E+00 -1.030656736E+01  1.088253773E+03  1.088303349E+03  0.000000000E+00  0.00000E+00  9.000E+00
#rwgt            1           1   2.9104043962104025E-002           3      278317           0
</event>
<event>
      5   9999  3.19816E-02  1.08292E+01 -1.00000E+00  1.91841E-01
      21    -1     0     0   512   501  0.000000000E+00  0.000000000E+00  7.344071842E+01  7.344071842E+01  0.000000000E+00  0.00000E+00  9.000E+00
      21    -1     0     0   501   502  0.000000000E+00  0.000000000E+00 -9.364542580E+02  9.364542580E+02  0.000000000E+00  0.00000E+00  9.000E+00
      25     1     1     2     0     0  1.709965429E+01  2.017955880E+01 -8.630445282E+02  8.724508412E+02  1.250000000E+02  0.00000E+00  9.000E+00
      25     1     1     2     0     0 -1.448749917E+01 -9.670142299E+00  2.900978387E+00  1.262410985E+02  1.250000000E+02  0.00000E+00  9.000E+00
      21     1     1     2   512   502 -2.612155113E+00 -1.050941650E+01 -2.869989862E+00  1.120303670E+01  1.032382731E-07  0.00000E+00  9.000E+00
#rwgt            1           1   2.7862643229130610E-002           3      278567           0
</event>
<event>
      5   9999  3.19816E-02  1.23871E+02 -1.00000E+00  1.19786E-01
      21    -1     0     0   502   511  0.000000000E+00  0.000000000E+00  8.529695797E+02  8.529695797E+02  0.000000000E+00  0.00000E+00  9.000E+00
      21    -1     0     0   501   502  0.000000000E+00  0.000000000E+00 -1.288396246E+03  1.288396246E+03  0.000000000E+00  0.00000E+00  9.000E+00
      25     1     1     2     0     0 -6.240973049E+02  6.289456178E+02  1.169544421E+02  9.024263836E+02  1.250000000E+02  0.00000E+00  9.000E+00
      25     1     1     2     0     0  7.336813438E+02 -5.711922413E+02 -5.914562294E+02  1.109051109E+03  1.250000000E+02  0.00000E+00  9.000E+00
      21     1     1     2   501   511 -1.095840389E+02 -5.775337650E+01  3.907512074E+01  1.298883334E+02  2.431401974E-06  0.00000E+00  9.000E+00
#rwgt            1           1   3.4827313006940870E-002           3      278765           0
</event>
<event>
      5   9999  3.19816E-02  1.12368E+02 -1.00000E+00  1.21592E-01
      21    -1     0     0   502   501  0.000000000E+00  0.000000000E+00  7.858468742E+02  7.858468742E+02  0.000000000E+00  0.00000E+00  9.000E+00
      21    -1     0     0   501   512  0.000000000E+00  0.000000000E+00 -4.431421048E+02  4.431421048E+02  0.000000000E+00  0.00000E+00  9.000E+00
      25     1     1     2     0     0  4.620978409E+02 -2.808577199E+01  4.855840891E+02  6.824515607E+02  1.250000000E+02  0.00000E+00  9.000E+00
      25     1     1     2     0     0 -3.778507557E+02  1.024437045E+02 -8.318741587E+01  4.192982856E+02  1.250000000E+02  0.00000E+00  9.000E+00
      21     1     1     2   502   512 -8.424708520E+01 -7.435793253E+01 -5.969190390E+01  1.272391327E+02  1.348699152E-06  0.00000E+00  9.000E+00
#rwgt            2          11   4.4517309987135399E-003           3      278927           0
</event>
<event>
      5   9999  3.19816E-02  6.33765E+01 -1.00000E+00  1.33445E-01
      21    -1     0     0   502   501  0.000000000E+00  0.000000000E+00  9.865135075E+01  9.865135075E+01  0.000000000E+00  0.00000E+00  9.000E+00
      21    -1     0     0   511   502  0.000000000E+00  0.000000000E+00 -6.569273321E+02  6.569273321E+02  0.000000000E+00  0.00000E+00  9.000E+00
      25     1     1     2     0     0 -1.391799506E+02  7.932689356E+01 -2.679389669E+02  3.362738537E+02  1.250000000E+02  0.00000E+00  9.000E+00
      25     1     1     2     0     0  1.318294670E+02 -1.422756427E+02 -1.823966632E+02  2.941341695E+02  1.250000000E+02  0.00000E+00  9.000E+00
      21     1     1     2   511   501  7.350483577E+00  6.294874918E+01 -1.079403512E+02  1.251706597E+02  0.000000000E+00  0.00000E+00  9.000E+00
#rwgt            1           1   2.5825157794046864E-002           3      278947           0
</event>
<event>
      5   9999  3.19816E-02  2.92723E+01 -1.00000E+00  1.53784E-01
      21    -1     0     0   502   501  0.000000000E+00  0.000000000E+00  2.348692120E+02  2.348692120E+02  0.000000000E+00  0.00000E+00  9.000E+00
      21    -1     0     0   501   512  0.000000000E+00  0.000000000E+00 -5.272231450E+02  5.272231450E+02  0.000000000E+00  0.00000E+00  9.000E+00
      25     1     1     2     0     0 -9.506136733E+01  2.593826633E+02 -9.093071479E+00  3.033541059E+02  1.250000000E+02  0.00000E+00  9.000E+00
      25     1     1     2     0     0  7.320477232E+01 -2.788546351E+02 -2.050247278E+02  3.752052574E+02  1.250000000E+02  0.00000E+00  9.000E+00
      21     1     1     2   502   512  2.185659501E+01  1.947197172E+01 -7.823613372E+01  8.353299377E+01  1.348699152E-06  0.00000E+00  9.000E+00
#rwgt            1           1   2.8757046212213450E-002           3      279020           0
</event>
<event>
      5   9999  3.19816E-02  9.72022E+00 -1.00000E+00  1.97193E-01
      21    -1     0     0   502   501  0.000000000E+00  0.000000000E+00  4.242763067E+02  4.242763067E+02  0.000000000E+00  0.00000E+00  9.000E+00
      21    -1     0     0   511   502  0.000000000E+00  0.000000000E+00 -2.863606605E+02  2.863606605E+02  0.000000000E+00  0.00000E+00  9.000E+00
      25     1     1     2     0     0 -2.994485022E+02  3.729778001E+01  8.044045204E+01  3.363869739E+02  1.250000000E+02  0.00000E+00  9.000E+00
      25     1     1     2     0     0  3.018293727E+02 -4.672190268E+01  8.855280986E+01  3.416877325E+02  1.250000000E+02  0.00000E+00  9.000E+00
      21     1     1     2   511   501 -2.380870445E+00  9.424122669E+00 -3.107761573E+01  3.256226085E+01  3.371747881E-07  0.00000E+00  9.000E+00
#rwgt            1           1   2.7682108101115866E-002           3      279140           0
</event>
<event>
      5   9999  3.19816E-02  2.06424E+01 -1.00000E+00  1.65244E-01
      21    -1     0     0   512   501  0.000000000E+00  0.000000000E+00  1.001058712E+03  1.001058712E+03  0.000000000E+00  0.00000E+00  9.000E+00
      21    -1     0     0   501   502  0.000000000E+00  0.000000000E+00 -3.771502128E+02  3.771502128E+02  0.000000000E+00  0.00000E+00  9.000E+00
      25     1     1     2     0     0 -2.736455714E+02  2.500171735E+01 -1.559807869E+02  3.397969843E+02  1.250000000E+02  0.00000E+00  9.000E+00
      25     1     1     2     0     0  2.687799649E+02 -4.506248920E+01  4.494802197E+01  3.031808406E+02  1.250000000E+02  0.00000E+00  9.000E+00
      21     1     1     2   512   502  4.865606567E+00  2.006077185E+01  7.349412640E+02  7.352310999E+02  1.525878906E-05  0.00000E+00  9.000E+00
#rwgt            1           1   2.8803408458491265E-002           3      279393           0
</event>
<event>
      5   9999  3.19816E-02  4.87654E+01 -1.00000E+00  1.39698E-01
      21    -1     0     0   502   501  0.000000000E+00  0.000000000E+00  2.165362343E+02  2.165362343E+02  0.000000000E+00  0.00000E+00  9.000E+00
       2    -1     0     0   501     0  0.000000000E+00  0.000000000E+00 -2.603376834E+03  2.603376834E+03  0.000000000E+00  0.00000E+00  9.000E+00
      25     1     1     2     0     0 -4.559433955E+02 -3.274185668E+02 -1.107247679E+03  1.247681739E+03  1.250000000E+02  0.00000E+00  9.000E+00
      25     1     1     2     0     0  4.150922085E+02  3.007869614E+02 -3.320261007E+02  6.234105142E+02  1.250000000E+02  0.00000E+00  9.000E+00
       2     1     1     2   502     0  4.085118706E+01  2.663160542E+01 -9.475668202E+02  9.488208159E+02  0.000000000E+00  0.00000E+00  9.000E+00
#rwgt            1           1   3.2082456125190319E-002           3      279517           0
</event>
<event>
      5   9999  3.19816E-02  7.70902E+01 -1.00000E+00  1.29133E-01
      21    -1     0     0   502   501  0.000000000E+00  0.000000000E+00  2.734566360E+02  2.734566360E+02  0.000000000E+00  0.00000E+00  9.000E+00
      21    -1     0     0   511   502  0.000000000E+00  0.000000000E+00 -2.289106775E+02  2.289106775E+02  0.000000000E+00  0.00000E+00  9.000E+00
      25     1     1     2     0     0  7.896572044E+01  9.212484436E+01 -5.396334264E+01  1.823721862E+02  1.250000000E+02  0.00000E+00  9.000E+00
      25     1     1     2     0     0 -1.560409590E+02 -9.060655716E+01  1.036208091E+02  2.427356611E+02  1.250000000E+02  0.00000E+00  9.000E+00
      21     1     1     2   511   501  7.707523860E+01 -1.518287199E+00 -5.111508036E+00  7.725946619E+01  3.862822472E-07  0.00000E+00  9.000E+00
#rwgt            1           1   2.8109579382023488E-002           3      279727           0
</event>
<event>
      5   9999  3.27319E-02  1.62280E+02 -1.00000E+00  1.15055E-01
      21    -1     0     0   512   501  0.000000000E+00  0.000000000E+00  2.467275940E+02  2.467275940E+02  0.000000000E+00  0.00000E+00  9.000E+00
      21    -1     0     0   501   502  0.000000000E+00  0.000000000E+00 -2.019644535E+03  2.019644535E+03  0.000000000E+00  0.00000E+00  9.000E+00
      25     1     1     2     0     0 -3.340051449E+00  9.131922809E+01 -3.636418696E+02  3.952350777E+02  1.250000000E+02  0.00000E+00  9.000E+00
      25     1     1     2     0     0 -8.710637363E+01 -2.260564667E+02 -1.598659454E+03  1.621735520E+03  1.250000000E+02  0.00000E+00  9.000E+00
      21     1     1     2   512   502  9.044642508E+01  1.347372386E+02  1.893843828E+02  2.494015311E+02  0.000000000E+00  0.00000E+00  9.000E+00
#rwgt            1           1  0.10292619603891855                3      279787           0
</event>
<event>
      5   9999  3.19816E-02  7.17739E+01 -1.00000E+00  1.30673E-01
      21    -1     0     0   502   501  0.000000000E+00  0.000000000E+00  7.714833444E+01  7.714833444E+01  0.000000000E+00  0.00000E+00  9.000E+00
       2    -1     0     0   501     0  0.000000000E+00  0.000000000E+00 -1.242638610E+03  1.242638610E+03  0.000000000E+00  0.00000E+00  9.000E+00
      25     1     1     2     0     0 -8.694445882E+01  2.323309825E+01 -1.568743446E+02  2.198492114E+02  1.250000000E+02  0.00000E+00  9.000E+00
      25     1     1     2     0     0  1.237573206E+02 -8.484726017E+01 -1.719688253E+02  2.602176182E+02  1.250000000E+02  0.00000E+00  9.000E+00
       2     1     1     2   502     0 -3.681286180E+01  6.161416192E+01 -8.366471061E+02  8.397201152E+02  0.000000000E+00  0.00000E+00  9.000E+00
#rwgt            1           1   2.5866947134279082E-002           3      279823           0
</event>
<event>
      5   9999  3.19816E-02  2.72002E+01 -1.00000E+00  1.56055E-01
      21    -1     0     0   502   511  0.000000000E+00  0.000000000E+00  6.572977891E+01  6.572977891E+01  0.000000000E+00  0.00000E+00  9.000E+00
      21    -1     0     0   501   502  0.000000000E+00  0.000000000E+00 -8.285948016E+02  8.285948016E+02  0.000000000E+00  0.00000E+00  9.000E+00
      25     1     1     2     0     0  1.303225060E+02 -2.245766569E+01 -5.656113707E+02  5.941628775E+02  1.250000000E+02  0.00000E+00  9.000E+00
      25     1     1     2     0     0 -1.033823127E+02  2.620946512E+01 -2.127813119E+02  2.688414501E+02  1.250000000E+02  0.00000E+00  9.000E+00
      21     1     1     2   501   511 -2.694019332E+01 -3.751799438E+00  1.552765993E+01  3.132025284E+01  1.092571186E-06  0.00000E+00  9.000E+00
#rwgt            1           1   2.4718863299781121E-002           3      279882           0
</event>
<event>
      5   9999  3.19816E-02  1.70698E+01 -1.00000E+00  1.72253E-01
      -4    -1     0     0     0   501  0.000000000E+00  0.000000000E+00  6.970345105E+02  6.970345105E+02  0.000000000E+00  0.00000E+00  9.000E+00
      21    -1     0     0   501   502  0.000000000E+00  0.000000000E+00 -9.423836188E+01  9.423836188E+01  0.000000000E+00  0.00000E+00  9.000E+00
      25     1     1     2     0     0  1.326032980E+02  6.111129686E+01  1.322243409E+02  2.332948812E+02  1.250000000E+02  0.00000E+00  9.000E+00
      25     1     1     2     0     0 -1.479675472E+02 -6.854901282E+01  1.995652415E+02  2.864343691E+02  1.250000000E+02  0.00000E+00  9.000E+00
      -4     1     1     2     0   502  1.536424921E+01  7.437715960E+00  2.710065662E+02  2.715436221E+02  5.394796609E-06  0.00000E+00  9.000E+00
#rwgt            1           1   2.8970955030423365E-002           3      279970           0
</event>
<event>
      5   9999  3.19816E-02  4.08921E+02 -1.00000E+00  1.01398E-01
      21    -1     0     0   502   511  0.000000000E+00  0.000000000E+00  1.118472790E+03  1.118472790E+03  0.000000000E+00  0.00000E+00  9.000E+00
      21    -1     0     0   501   502  0.000000000E+00  0.000000000E+00 -3.522449501E+02  3.522449501E+02  0.000000000E+00  0.00000E+00  9.000E+00
      25     1     1     2     0     0  6.017229293E+00  4.454654711E+02  4.695105267E+02  6.591971083E+02  1.250000000E+02  0.00000E+00  9.000E+00
      25     1     1     2     0     0  2.476497600E+02 -1.247331865E+02 -3.576800181E+00  3.041817959E+02  1.250000000E+02  0.00000E+00  9.000E+00
      21     1     1     2   501   511 -2.536669893E+02 -3.207322846E+02  3.002941133E+02  5.073388358E+02  3.814697266E-06  0.00000E+00  9.000E+00
#rwgt            2          11   2.6032294369326709E-003           3      280132           0
</event>
<event>
      5   9999  3.19816E-02  7.59577E+01 -1.00000E+00  1.29449E-01
      21    -1     0     0   502   501  0.000000000E+00  0.000000000E+00  1.096059981E+03  1.096059981E+03  0.000000000E+00  0.00000E+00  9.000E+00
      21    -1     0     0   512   502  0.000000000E+00  0.000000000E+00 -6.994520440E+01  6.994520440E+01  0.000000000E+00  0.00000E+00  9.000E+00
      25     1     1     2     0     0 -1.629818739E+02 -9.124505615E+01  3.240137579E+02  3.943331926E+02  1.250000000E+02  0.00000E+00  9.000E+00
      25     1     1     2     0     0  1.248972339E+02  1.569651963E+02  5.962609062E+02  6.413964922E+02  1.250000000E+02  0.00000E+00  9.000E+00
      21     1     1     2   512   501  3.808464001E+01 -6.572014015E+01  1.058401121E+02  1.302755002E+02  2.336015456E-06  0.00000E+00  9.000E+00
#rwgt            1           1   2.8251534198476678E-002           3      280152           0
</event>
<event>
      5   9999  3.19816E-02  1.55987E+01 -1.00000E+00  1.75797E-01
      21    -1     0     0   502   501  0.000000000E+00  0.000000000E+00  1.063653976E+03  1.063653976E+03  0.000000000E+00  0.00000E+00  9.000E+00
      21    -1     0     0   501   511  0.000000000E+00  0.000000000E+00 -2.520801634E+03  2.520801634E+03  0.000000000E+00  0.00000E+00  9.000E+00
      25     1     1     2     0     0  9.375882214E+02 -1.075525291E+03 -6.143049751E+02  1.558467814E+03  1.250000000E+02  0.00000E+00  9.000E+00
      25     1     1     2     0     0 -9.220104818E+02  1.074716561E+03 -2.626549498E+02  1.445590411E+03  1.250000000E+02  0.00000E+00  9.000E+00
      21     1     1     2   502   511 -1.557773961E+01  8.087303937E-01 -5.801877323E+02  5.803973852E+02  1.321449896E-05  0.00000E+00  9.000E+00
#rwgt            1           1   4.5513026680480094E-002           3      280206           0
</event>
<event>
      5   9999  3.19816E-02  3.84514E+01 -1.00000E+00  1.45912E-01
      21    -1     0     0   502   512  0.000000000E+00  0.000000000E+00  5.217153667E+02  5.217153667E+02  0.000000000E+00  0.00000E+00  9.000E+00
      21    -1     0     0   501   502  0.000000000E+00  0.000000000E+00 -7.042265079E+02  7.042265079E+02  0.000000000E+00  0.00000E+00  9.000E+00
      25     1     1     2     0     0  2.027852292E+02 -8.785048005E+01  3.777998978E+02  4.551893219E+02  1.250000000E+02  0.00000E+00  9.000E+00
      25     1     1     2     0     0 -1.830300649E+02  1.208390666E+02 -6.368716461E+02  6.850785198E+02  1.250000000E+02  0.00000E+00  9.000E+00
      21     1     1     2   501   512 -1.975516435E+01 -3.298858657E+01  7.656060706E+01  8.567403291E+01  9.536743164E-07  0.00000E+00  9.000E+00
#rwgt            1           1   2.9838699748079758E-002           3      280475           0
</event>
<event>
      5   9999  3.19816E-02  2.06427E+01 -1.00000E+00  1.65244E-01
      21    -1     0     0   502   501  0.000000000E+00  0.000000000E+00  2.338878448E+02  2.338878448E+02  0.000000000E+00  0.00000E+00  9.000E+00
      21    -1     0     0   511   502  0.000000000E+00  0.000000000E+00 -5.221289160E+02  5.221289160E+02  0.000000000E+00  0.00000E+00  9.000E+00
      25     1     1     2     0     0  2.465375857E+02 -1.227252571E+02 -7.861040826E+01  3.124849855E+02  1.250000000E+02  0.00000E+00  9.000E+00
      25     1     1     2     0     0 -2.476966862E+02  1.021151696E+02 -7.189984846E+01  3.042626241E+02  1.250000000E+02  0.00000E+00  9.000E+00
      21     1     1     2   511   501  1.159100507E+00  2.061008759E+01 -1.377308145E+02  1.392691512E+02  1.907348633E-06  0.00000E+00  9.000E+00
#rwgt            1           1   2.6259328475224657E-002           3      280581           0
</event>
<event>
      5   9999  3.19816E-02  8.75156E+01 -1.00000E+00  1.26490E-01
      21    -1     0     0   502   501  0.000000000E+00  0.000000000E+00  3.468915044E+02  3.468915044E+02  0.000000000E+00  0.00000E+00  9.000E+00
      21    -1     0     0   512   502  0.000000000E+00  0.000000000E+00 -2.919203803E+02  2.919203803E+02  0.000000000E+00  0.00000E+00  9.000E+00
      25     1     1     2     0     0  1.194877630E+02 -1.550968585E+02 -2.235760055E+01  2.333607151E+02  1.250000000E+02  0.00000E+00  9.000E+00
      25     1     1     2     0     0 -2.051207302E+02  1.731515028E+02  1.041913101E+02  3.139056960E+02  1.250000000E+02  0.00000E+00  9.000E+00
      21     1     1     2   512   501  8.563296723E+01 -1.805464424E+01 -2.686258539E+01  9.154547367E+01  2.105655877E-06  0.00000E+00  9.000E+00
#rwgt            1           1   3.0962714830381693E-002           3      280709           0
</event>
<event>
      5   9999  3.19816E-02  3.10803E+01 -1.00000E+00  1.51980E-01
      21    -1     0     0   502   501  0.000000000E+00  0.000000000E+00  2.284895563E+02  2.284895563E+02  0.000000000E+00  0.00000E+00  9.000E+00
       1    -1     0     0   501     0  0.000000000E+00  0.000000000E+00 -2.258918701E+03  2.258918701E+03  0.000000000E+00  0.00000E+00  9.000E+00
      25     1     1     2     0     0  1.155068181E+02  3.075940315E+02 -9.482112920E+01  3.641043254E+02  1.250000000E+02  0.00000E+00  9.000E+00
      25     1     1     2     0     0 -1.269854349E+02 -3.364769934E+02 -2.930802907E+02  4.804821792E+02  1.250000000E+02  0.00000E+00  9.000E+00
       1     1     1     2   502     0  1.147861675E+01  2.888296188E+01 -1.642527724E+03  1.642821752E+03  3.051757812E-05  0.00000E+00  9.000E+00
#rwgt            1           1   3.0310977938977069E-002           3      280757           0
</event>
<event>
      5   9999  3.19816E-02  3.88864E+01 -1.00000E+00  1.45605E-01
      21    -1     0     0   502   501  0.000000000E+00  0.000000000E+00  2.734276418E+02  2.734276418E+02  0.000000000E+00  0.00000E+00  9.000E+00
      21    -1     0     0   511   502  0.000000000E+00  0.000000000E+00 -4.297315393E+02  4.297315393E+02  0.000000000E+00  0.00000E+00  9.000E+00
      25     1     1     2     0     0 -6.587897500E+01  2.253279847E+02  1.224652661E+02  2.928062182E+02  1.250000000E+02  0.00000E+00  9.000E+00
      25     1     1     2     0     0  5.346071028E+01 -1.884777258E+02 -1.518406440E+02  2.776013002E+02  1.250000000E+02  0.00000E+00  9.000E+00
      21     1     1     2   511   501  1.241826472E+01 -3.685025891E+01 -1.269285196E+02  1.327516627E+02  1.348699152E-06  0.00000E+00  9.000E+00
#rwgt            1           1   2.8552521341440099E-002           3      280852           0
</event>
<event>
      5   9999  3.19816E-02  1.02460E+02 -1.00000E+00  1.23355E-01
      21    -1     0     0   502   501  0.000000000E+00  0.000000000E+00  1.714022184E+03  1.714022184E+03  0.000000000E+00  0.00000E+00  9.000E+00
      21    -1     0     0   512   502  0.000000000E+00  0.000000000E+00 -1.597229368E+02  1.597229368E+02  0.000000000E+00  0.00000E+00  9.000E+00
      25     1     1     2     0     0 -2.409253724E+02  1.924287403E+02  2.900040018E+02  4.413628623E+02  1.250000000E+02  0.00000E+00  9.000E+00
      25     1     1     2     0     0  3.365931142E+02 -1.557456909E+02  1.270813455E+03  1.329715565E+03  1.250000000E+02  0.00000E+00  9.000E+00
      21     1     1     2   512   501 -9.566774183E+01 -3.668304942E+01 -6.518210090E+00  1.026666937E+02  2.853562642E-06  0.00000E+00  9.000E+00
#rwgt            1           1   2.6871216280474858E-002           3      280928           0
</event>
<event>
      5   9999  3.19816E-02  5.49270E+01 -1.00000E+00  1.36786E-01
      21    -1     0     0   511   501  0.000000000E+00  0.000000000E+00  2.877766543E+02  2.877766543E+02  0.000000000E+00  0.00000E+00  9.000E+00
      21    -1     0     0   501   502  0.000000000E+00  0.000000000E+00 -6.884218034E+02  6.884218034E+02  0.000000000E+00  0.00000E+00  9.000E+00
      25     1     1     2     0     0  2.315066869E+02 -1.120013099E+02 -2.260403662E+02  3.644981298E+02  1.250000000E+02  0.00000E+00  9.000E+00
      25     1     1     2     0     0 -1.909490339E+02  7.496006321E+01 -3.519098582E+02  4.260822607E+02  1.250000000E+02  0.00000E+00  9.000E+00
      21     1     1     2   511   502 -4.055765291E+01  3.704124668E+01  1.773050752E+02  1.856180672E+02  0.000000000E+00  0.00000E+00  9.000E+00
#rwgt            1           1   2.6691799263577492E-002           3      281035           0
</event>
<event>
      5   9999  3.19816E-02  8.92901E+01 -1.00000E+00  1.26082E-01
      21    -1     0     0   512   501  0.000000000E+00  0.000000000E+00  6.125188125E+02  6.125188125E+02  0.000000000E+00  0.00000E+00  9.000E+00
      21    -1     0     0   501   502  0.000000000E+00  0.000000000E+00 -1.807206344E+03  1.807206344E+03  0.000000000E+00  0.00000E+00  9.000E+00
      25     1     1     2     0     0 -1.292754352E+02 -8.632233659E+02 -1.079433298E+02  8.883374809E+02  1.250000000E+02  0.00000E+00  9.000E+00
      25     1     1     2     0     0  1.809116182E+02  9.360686178E+02 -1.073411776E+03  1.441107668E+03  1.250000000E+02  0.00000E+00  9.000E+00
      21     1     1     2   512   502 -5.163618300E+01 -7.284525193E+01 -1.333242549E+01  9.028000716E+01  1.660393271E-06  0.00000E+00  9.000E+00
#rwgt            1           1   3.3591666610010160E-002           3      281096           0
</event>
<event>
      5   9999  3.19816E-02  3.43638E+01 -1.00000E+00  1.49053E-01
      21    -1     0     0   502   501  0.000000000E+00  0.000000000E+00  7.413458412E+02  7.413458412E+02  0.000000000E+00  0.00000E+00  9.000E+00
      21    -1     0     0   501   511  0.000000000E+00  0.000000000E+00 -1.255571490E+03  1.255571490E+03  0.000000000E+00  0.00000E+00  9.000E+00
      25     1     1     2     0     0 -2.804845053E+02 -2.297269066E+02  6.123432200E+02  7.225200540E+02  1.250000000E+02  0.00000E+00  9.000E+00
      25     1     1     2     0     0  2.592688600E+02  2.567595834E+02 -4.326095278E+02  5.795876370E+02  1.250000000E+02  0.00000E+00  9.000E+00
      21     1     1     2   502   511  2.121564536E+01 -2.703267675E+01 -6.939593414E+02  6.948096407E+02  1.078959322E-05  0.00000E+00  9.000E+00
#rwgt            1           1   3.1077523600276023E-002           3      281228           0
</event>
<event>
      5   9999  3.19816E-02  1.75329E+02 -1.00000E+00  1.13770E-01
      21    -1     0     0   502   501  0.000000000E+00  0.000000000E+00  1.778581002E+02  1.778581002E+02  0.000000000E+00  0.00000E+00  9.000E+00
      21    -1     0     0   501   512  0.000000000E+00  0.000000000E+00 -1.491035112E+03  1.491035112E+03  0.000000000E+00  0.00000E+00  9.000E+00
      25     1     1     2     0     0 -2.255014829E+02  1.347463711E+02 -4.963154736E+02  5.752925801E+02  1.250000000E+02  0.00000E+00  9.000E+00
      25     1     1     2     0     0  8.089380577E+01 -2.338871332E+02 -2.033149815E+01  2.780024616E+02  1.250000000E+02  0.00000E+00  9.000E+00
      21     1     1     2   502   512  1.446076771E+02  9.914076206E+01 -7.965300401E+02  8.155981705E+02  1.078959322E-05  0.00000E+00  9.000E+00
#rwgt            1           1   2.7757347105040100E-002           3      281429           0
</event>
<event>
      5   9999  3.19816E-02  2.28246E+01 -1.00000E+00  1.61770E-01
      21    -1     0     0   511   501  0.000000000E+00  0.000000000E+00  1.875510820E+02  1.875510820E+02  0.000000000E+00  0.00000E+00  9.000E+00
      21    -1     0     0   501   502  0.000000000E+00  0.000000000E+00 -1.433114437E+03  1.433114437E+03  0.000000000E+00  0.00000E+00  9.000E+00
      25     1     1     2     0     0 -3.785802480E+02 -3.162124641E+02 -7.643532175E+02  9.182451567E+02  1.250000000E+02  0.00000E+00  9.000E+00
      25     1     1     2     0     0  3.565966460E+02  3.100737313E+02 -4.619691104E+02  6.725677257E+02  1.250000000E+02  0.00000E+00  9.000E+00
      21     1     1     2   511   502  2.198360197E+01  6.138732841E+00 -1.924102749E+01  2.985263699E+01  2.384185791E-07  0.00000E+00  9.000E+00
#rwgt            1           1   2.8290351225107275E-002           3      281489           0
</event>
<event>
      5   9999  3.19816E-02  1.52118E+02 -1.00000E+00  1.16153E-01
      21    -1     0     0   502   501  0.000000000E+00  0.000000000E+00  3.045364770E+02  3.045364770E+02  0.000000000E+00  0.00000E+00  9.000E+00
      21    -1     0     0   512   502  0.000000000E+00  0.000000000E+00 -2.331626741E+03  2.331626741E+03  0.000000000E+00  0.00000E+00  9.000E+00
      25     1     1     2     0     0  4.982465317E+02 -5.974105461E+02 -5.900125184E+02  9.843214611E+02  1.250000000E+02  0.00000E+00  9.000E+00
      25     1     1     2     0     0 -4.693469518E+02  4.480625617E+02 -1.206314498E+03  1.375451304E+03  1.250000000E+02  0.00000E+00  9.000E+00
      21     1     1     2   512   501 -2.889957988E+01  1.493479845E+02 -2.307632473E+02  2.763904530E+02  3.814697266E-06  0.00000E+00  9.000E+00
#rwgt            2          11   7.0187675780624985E-003           3      281779           0
</event>
<event>
      5   9999  3.19816E-02  7.92879E+01 -1.00000E+00  1.28538E-01
      21    -1     0     0   502   501  0.000000000E+00  0.000000000E+00  2.653813720E+02  2.653813720E+02  0.000000000E+00  0.00000E+00  9.000E+00
      21    -1     0     0   501   511  0.000000000E+00  0.000000000E+00 -7.160343880E+02  7.160343880E+02  0.000000000E+00  0.00000E+00  9.000E+00
      25     1     1     2     0     0  2.230665419E+02 -3.398229740E+00 -4.307679977E+02  5.009553852E+02  1.250000000E+02  0.00000E+00  9.000E+00
      25     1     1     2     0     0 -2.834897851E+02  5.473633699E+01  1.057316402E+02  3.319137005E+02  1.250000000E+02  0.00000E+00  9.000E+00
      21     1     1     2   502   511  6.042324311E+01 -5.133810725E+01 -1.256166585E+02  1.485466743E+02  2.336015456E-06  0.00000E+00  9.000E+00
#rwgt            2          11   3.1205287798710232E-003           3      281844           0
</event>
<event>
      5   9999  3.19816E-02  2.77303E+02 -1.00000E+00  1.06714E-01
      21    -1     0     0   502   501  0.000000000E+00  0.000000000E+00  2.939117359E+02  2.939117359E+02  0.000000000E+00  0.00000E+00  9.000E+00
      21    -1     0     0   501   512  0.000000000E+00  0.000000000E+00 -1.686232704E+03  1.686232704E+03  0.000000000E+00  0.00000E+00  9.000E+00
      25     1     1     2     0     0 -4.387044680E+01 -4.444331927E+02 -4.774811856E+02  6.656265932E+02  1.250000000E+02  0.00000E+00  9.000E+00
      25     1     1     2     0     0  2.783461635E+02  5.924817188E+02 -6.335450336E+02  9.195191588E+02  1.250000000E+02  0.00000E+00  9.000E+00
      21     1     1     2   502   512 -2.344757167E+02 -1.480485261E+02 -2.812947492E+02  3.949986882E+02  5.394796609E-06  0.00000E+00  9.000E+00
#rwgt            2          11   4.0757816273293288E-003           3      282194           0
</event>
<event>
      5   9999  3.19816E-02  7.76812E+02 -1.00000E+00  9.37039E-02
      21    -1     0     0   502   511  0.000000000E+00  0.000000000E+00  6.007019672E+02  6.007019672E+02  0.000000000E+00  0.00000E+00  9.000E+00
      21    -1     0     0   501   502  0.000000000E+00  0.000000000E+00 -1.965446870E+03  1.965446870E+03  0.000000000E+00  0.00000E+00  9.000E+00
      25     1     1     2     0     0 -8.339173144E+02  3.297110961E+01 -1.284259197E+03  1.536701620E+03  1.250000000E+02  0.00000E+00  9.000E+00
      25     1     1     2     0     0  5.763389543E+01 -4.309986519E+00  1.648594967E+02  2.148113022E+02  1.250000000E+02  0.00000E+00  9.000E+00
      21     1     1     2   501   511  7.762834190E+02 -2.866112309E+01 -2.453452020E+02  8.146359154E+02  6.607249480E-06  0.00000E+00  9.000E+00
#rwgt            2          11   1.2523883030017941E-003           3      282244           0
</event>
<event>
      5   9999  3.19816E-02  4.19412E+01 -1.00000E+00  1.43575E-01
      21    -1     0     0   502   501  0.000000000E+00  0.000000000E+00  2.637412864E+02  2.637412864E+02  0.000000000E+00  0.00000E+00  9.000E+00
       1    -1     0     0   501     0  0.000000000E+00  0.000000000E+00 -1.271774740E+03  1.271774740E+03  0.000000000E+00  0.00000E+00  9.000E+00
      25     1     1     2     0     0  2.110765565E+02  2.744396871E+02 -1.613078960E+02  4.018901490E+02  1.250000000E+02  0.00000E+00  9.000E+00
      25     1     1     2     0     0 -2.317560049E+02 -3.109283327E+02 -1.477723356E+02  4.334154324E+02  1.250000000E+02  0.00000E+00  9.000E+00
       1     1     1     2   502     0  2.067944846E+01  3.648864559E+01 -6.989532219E+02  7.002104450E+02  7.629394531E-06  0.00000E+00  9.000E+00
#rwgt            1           1   2.8391790774920916E-002           3      282294           0
</event>
<event>
      5   9999  3.19816E-02  1.35421E+02 -1.00000E+00  1.18181E-01
      21    -1     0     0   502   501  0.000000000E+00  0.000000000E+00  1.736052721E+02  1.736052721E+02  0.000000000E+00  0.00000E+00  9.000E+00
      21    -1     0     0   511   502  0.000000000E+00  0.000000000E+00 -8.036877173E+02  8.036877173E+02  0.000000000E+00  0.00000E+00  9.000E+00
      25     1     1     2     0     0  2.224239652E+02  6.705348513E+01 -2.556689354E+02  3.673692893E+02  1.250000000E+02  0.00000E+00  9.000E+00
      25     1     1     2     0     0 -9.870377975E+01 -1.198926113E+01  4.764089293E+01  1.666758327E+02  1.250000000E+02  0.00000E+00  9.000E+00
      21     1     1     2   511   501 -1.237201855E+02 -5.506422400E+01 -4.220544028E+02  4.432478674E+02  7.629394531E-06  0.00000E+00  9.000E+00
#rwgt            1           1   2.4218291753212856E-002           3      282405           0
</event>
<event>
      5   9999  3.19816E-02  4.36500E+01 -1.00000E+00  1.42527E-01
      21    -1     0     0   502   501  0.000000000E+00  0.000000000E+00  3.439330071E+02  3.439330071E+02  0.000000000E+00  0.00000E+00  9.000E+00
      21    -1     0     0   512   502  0.000000000E+00  0.000000000E+00 -1.174672332E+03  1.174672332E+03  0.000000000E+00  0.00000E+00  9.000E+00
      25     1     1     2     0     0 -5.116496533E+01 -1.453668272E+02  3.011220616E+02  3.606228835E+02  1.250000000E+02  0.00000E+00  9.000E+00
      25     1     1     2     0     0  9.043814633E+00  1.568179733E+02 -9.125523249E+02  9.343716675E+02  1.250000000E+02  0.00000E+00  9.000E+00
      21     1     1     2   512   501  4.212115069E+01 -1.145114616E+01 -2.193090613E+02  2.236107879E+02  2.697398305E-06  0.00000E+00  9.000E+00
#rwgt            1           1   3.3234039654452326E-002           3      282466           0
</event>
<event>
      5   9999  3.19816E-02  5.41523E+02 -1.00000E+00  9.78776E-02
      21    -1     0     0   511   501  0.000000000E+00  0.000000000E+00  3.268269955E+02  3.268269955E+02  0.000000000E+00  0.00000E+00  9.000E+00
      21    -1     0     0   501   502  0.000000000E+00  0.000000000E+00 -2.491580469E+03  2.491580469E+03  0.000000000E+00  0.00000E+00  9.000E+00
      25     1     1     2     0     0  2.514899860E+02  1.837163351E+02 -6.730771466E+02  7.521015558E+02  1.250000000E+02  0.00000E+00  9.000E+00
      25     1     1     2     0     0 -2.849297826E+02 -7.242058869E+02 -1.239625061E+03  1.468997767E+03  1.250000000E+02  0.00000E+00  9.000E+00
      21     1     1     2   511   502  3.343979657E+01  5.404895519E+02 -2.520512660E+02  5.973081419E+02  7.629394531E-06  0.00000E+00  9.000E+00
#rwgt            2          11   1.7603677988705436E-003           3      282677           0
</event>
<event>
      5   9999  3.19816E-02  3.24126E+01 -1.00000E+00  1.50743E-01
      21    -1     0     0   502   501  0.000000000E+00  0.000000000E+00  7.150892008E+02  7.150892008E+02  0.000000000E+00  0.00000E+00  9.000E+00
      21    -1     0     0   501   512  0.000000000E+00  0.000000000E+00 -1.834584382E+03  1.834584382E+03  0.000000000E+00  0.00000E+00  9.000E+00
      25     1     1     2     0     0  1.464806255E+02 -5.455405635E+02  3.731611894E+02  6.884368913E+02  1.250000000E+02  0.00000E+00  9.000E+00
      25     1     1     2     0     0 -1.248875501E+02  5.697131902E+02 -2.991628078E+02  6.673030832E+02  1.250000000E+02  0.00000E+00  9.000E+00
      21     1     1     2   502   512 -2.159307548E+01 -2.417262676E+01 -1.193493562E+03  1.193933608E+03  1.525878906E-05  0.00000E+00  9.000E+00
#rwgt            1           1   3.4017461251652330E-002           3      282712           0
</event>
<event>
      5   9999  3.49966E-02  1.35647E+01 -1.00000E+00  1.81600E-01
      21    -1     0     0   502   501  0.000000000E+00  0.000000000E+00  5.317532305E+01  5.317532305E+01  0.000000000E+00  0.00000E+00  9.000E+00
      21    -1     0     0   511   502  0.000000000E+00  0.000000000E+00 -2.242538023E+03  2.242538023E+03  0.000000000E+00  0.00000E+00  9.000E+00
      25     1     1     2     0     0 -2.517119434E+02 -1.427901282E+02 -1.403684042E+03  1.438645826E+03  1.250000000E+02  0.00000E+00  9.000E+00
      25     1     1     2     0     0  2.399762923E+02  1.495926920E+02 -6.401009635E+02  7.108592250E+02  1.250000000E+02  0.00000E+00  9.000E+00
      21     1     1     2   511   501  1.173565113E+01 -6.802563805E+00 -1.455776945E+02  1.462082949E+02  0.000000000E+00  0.00000E+00  9.000E+00
#rwgt            1           1  0.10571566357932645                3      282880           0
</event>
<event>
      5   9999  3.19816E-02  1.95522E+01 -1.00000E+00  1.67185E-01
      21    -1     0     0   502   501  0.000000000E+00  0.000000000E+00  2.287321905E+03  2.287321905E+03  0.000000000E+00  0.00000E+00  9.000E+00
      21    -1     0     0   501   512  0.000000000E+00  0.000000000E+00 -7.876799462E+01  7.876799462E+01  0.000000000E+00  0.00000E+00  9.000E+00
      25     1     1     2     0     0  5.862340022E+01 -1.923400970E+02  1.159880930E+03  1.183799049E+03  1.250000000E+02  0.00000E+00  9.000E+00
      25     1     1     2     0     0 -4.026639186E+01  1.856088939E+02  1.102146413E+03  1.125354948E+03  1.250000000E+02  0.00000E+00  9.000E+00
      21     1     1     2   502   512 -1.835700835E+01  6.731203085E+00 -5.347343338E+01  5.693590192E+01  3.090257978E-06  0.00000E+00  9.000E+00
#rwgt            1           1   7.0725833897276588E-002           3      283096           0
</event>
<event>
      5   9999  3.19816E-02  5.23047E+01 -1.00000E+00  1.37968E-01
      21    -1     0     0   502   511  0.000000000E+00  0.000000000E+00  2.769947661E+02  2.769947661E+02  0.000000000E+00  0.00000E+00  9.000E+00
      21    -1     0     0   501   502  0.000000000E+00  0.000000000E+00 -1.110327854E+03  1.110327854E+03  0.000000000E+00  0.00000E+00  9.000E+00
      25     1     1     2     0     0  8.357514590E+01  2.106873934E+01 -1.038806159E+03  1.049843765E+03  1.250000000E+02  0.00000E+00  9.000E+00
      25     1     1     2     0     0 -1.212761144E+02  1.518611859E+01  6.320217099E+01  1.858978981E+02  1.250000000E+02  0.00000E+00  9.000E+00
      21     1     1     2   501   511  3.770096845E+01 -3.625485793E+01  1.422708992E+02  1.515809570E+02  3.303624740E-06  0.00000E+00  9.000E+00
#rwgt            1           1   3.4775156579145525E-002           3      283220           0
</event>
<event>
      5   9999  3.19816E-02  1.28119E+01 -1.00000E+00  1.84087E-01
      21    -1     0     0   502   501  0.000000000E+00  0.000000000E+00  1.143350229E+02  1.143350229E+02  0.000000000E+00  0.00000E+00  9.000E+00
      21    -1     0     0   512   502  0.000000000E+00  0.000000000E+00 -3.760820801E+02  3.760820801E+02  0.000000000E+00  0.00000E+00  9.000E+00
      25     1     1     2     0     0 -6.608937440E+01 -4.618071722E+01 -2.620779305E+02  3.013474834E+02  1.250000000E+02  0.00000E+00  9.000E+00
      25     1     1     2     0     0  7.635715225E+01  3.851796598E+01  3.209439143E+01  1.548195671E+02  1.250000000E+02  0.00000E+00  9.000E+00
      21     1     1     2   512   501 -1.026777785E+01  7.662751241E+00 -3.176351805E+01  3.425005252E+01  5.840038640E-07  0.00000E+00  9.000E+00
#rwgt            1           1   2.7646054108054617E-002           3      283313           0
</event>
<event>
      5   9999  3.19816E-02  1.13044E+02 -1.00000E+00  1.21479E-01
      21    -1     0     0   511   501  0.000000000E+00  0.000000000E+00  7.884248542E+02  7.884248542E+02  0.000000000E+00  0.00000E+00  9.000E+00
      21    -1     0     0   501   502  0.000000000E+00  0.000000000E+00 -2.406622268E+02  2.406622268E+02  0.000000000E+00  0.00000E+00  9.000E+00
      25     1     1     2     0     0 -1.299444128E+02 -1.116687071E+02  2.535659144E+02  3.305693929E+02  1.250000000E+02  0.00000E+00  9.000E+00
      25     1     1     2     0     0  1.475823399E+02  9.445126870E-03 -1.470889418E+02  2.429829294E+02  1.250000000E+02  0.00000E+00  9.000E+00
      21     1     1     2   511   502 -1.763792716E+01  1.116592620E+02  4.412856548E+02  4.555347587E+02  5.394796609E-06  0.00000E+00  9.000E+00
#rwgt            1           1   2.6071043690077782E-002           3      283444           0
</event>
<event>
      5   9999  3.19816E-02  6.74132E+01 -1.00000E+00  1.32054E-01
      21    -1     0     0   502   512  0.000000000E+00  0.000000000E+00  1.453919705E+03  1.453919705E+03  0.000000000E+00  0.00000E+00  9.000E+00
      21    -1     0     0   501   502  0.000000000E+00  0.000000000E+00 -6.755126761E+02  6.755126761E+02  0.000000000E+00  0.00000E+00  9.000E+00
      25     1     1     2     0     0 -5.867022806E+02  6.901203076E+02  1.220342030E+02  9.224982123E+02  1.250000000E+02  0.00000E+00  9.000E+00
      25     1     1     2     0     0  5.876416872E+02 -6.227136514E+02  4.213265871E+02  9.624116257E+02  1.250000000E+02  0.00000E+00  9.000E+00
      21     1     1     2   501   512 -9.394066268E-01 -6.740665616E+01  2.350462392E+02  2.445225436E+02  0.000000000E+00  0.00000E+00  9.000E+00
#rwgt            1           1   1.9856151939369189E-002           3      283506           0
</event>
<event>
      5   9999  3.19816E-02  1.28382E+02 -1.00000E+00  1.19137E-01
       2    -1     0     0   502     0  0.000000000E+00  0.000000000E+00  7.828918440E+02  7.828918440E+02  0.000000000E+00  0.00000E+00  9.000E+00
      21    -1     0     0   501   502  0.000000000E+00  0.000000000E+00 -7.469413605E+02  7.469413605E+02  0.000000000E+00  0.00000E+00  9.000E+00
      25     1     1     2     0     0  4.673265064E+02  3.109027068E+02  3.077054767E+02  6.521979892E+02  1.250000000E+02  0.00000E+00  9.000E+00
      25     1     1     2     0     0 -5.922003769E+02 -3.407082025E+02 -2.802679402E+02  7.489716176E+02  1.250000000E+02  0.00000E+00  9.000E+00
       2     1     1     2   501     0  1.248738705E+02  2.980549573E+01  8.512947008E+00  1.286635977E+02  1.143415337E-06  0.00000E+00  9.000E+00
#rwgt            1           1   3.0196524065056123E-002           3      283586           0
</event>
<event>
      5   9999  3.19816E-02  2.67955E+01 -1.00000E+00  1.56527E-01
      21    -1     0     0   511   501  0.000000000E+00  0.000000000E+00  3.298159220E+02  3.298159220E+02  0.000000000E+00  0.00000E+00  9.000E+00
      21    -1     0     0   501   502  0.000000000E+00  0.000000000E+00 -4.042389615E+02  4.042389615E+02  0.000000000E+00  0.00000E+00  9.000E+00
      25     1     1     2     0     0 -7.537750289E+01  1.000883306E+02 -2.001733575E+02  2.671962105E+02  1.250000000E+02  0.00000E+00  9.000E+00
      25     1     1     2     0     0  1.021506482E+02 -9.899357499E+01 -1.170257052E+02  2.226083972E+02  1.250000000E+02  0.00000E+00  9.000E+00
      21     1     1     2   511   502 -2.677314528E+01 -1.094755629E+00  2.427760232E+02  2.442502758E+02  2.697398305E-06  0.00000E+00  9.000E+00
#rwgt            1           1   2.9524251214862251E-002           3      283654           0
</event>
<event>
      5   9999  3.19816E-02  2.00783E+01 -1.00000E+00  1.66229E-01
      21    -1     0     0   512   501  0.000000000E+00  0.000000000E+00  2.882429113E+03  2.882429113E+03  0.000000000E+00  0.00000E+00  9.000E+00
      21    -1     0     0   501   502  0.000000000E+00  0.000000000E+00 -1.751883258E+02  1.751883258E+02  0.000000000E+00  0.00000E+00  9.000E+00
      25     1     1     2     0     0  6.170682547E+02  1.306878760E+02  7.268874175E+02  9.704858935E+02  1.250000000E+02  0.00000E+00  9.000E+00
      25     1     1     2     0     0 -6.030137012E+02 -1.450268987E+02  1.848888731E+03  1.954142488E+03  1.250000000E+02  0.00000E+00  9.000E+00
      21     1     1     2   512   502 -1.405455348E+01  1.433902265E+01  1.314646386E+02  1.329890569E+02  1.907348633E-06  0.00000E+00  9.000E+00
#rwgt            1           1   2.2662157877017551E-002           3      283756           0
</event>
<event>
      5   9999  3.19816E-02  4.83863E+01 -1.00000E+00  1.39893E-01
      21    -1     0     0   502   511  0.000000000E+00  0.000000000E+00  1.492530179E+03  1.492530179E+03  0.000000000E+00  0.00000E+00  9.000E+00
      21    -1     0     0   501   502  0.000000000E+00  0.000000000E+00 -2.783555122E+02  2.783555122E+02  0.000000000E+00  0.00000E+00  9.000E+00
      25     1     1     2     0     0  1.949940305E+02 -9.339549671E+01  1.593848157E+02  2.962666202E+02  1.250000000E+02  0.00000E+00  9.000E+00
      25     1     1     2     0     0 -1.787606954E+02  1.389774778E+02 -1.295632350E+02  2.892779933E+02  1.250000000E+02  0.00000E+00  9.000E+00
      21     1     1     2   501   511 -1.623333520E+01 -4.558198105E+01  1.184353086E+03  1.185341078E+03  1.525878906E-05  0.00000E+00  9.000E+00
#rwgt            1           1   2.7989662816410396E-002           3      283964           0
</event>
<event>
      5   9999  3.19816E-02  9.51029E+01 -1.00000E+00  1.24817E-01
      21    -1     0     0   512   501  0.000000000E+00  0.000000000E+00  3.743642793E+02  3.743642793E+02  0.000000000E+00  0.00000E+00  9.000E+00
      21    -1     0     0   501   502  0.000000000E+00  0.000000000E+00 -2.355136121E+03  2.355136121E+03  0.000000000E+00  0.00000E+00  9.000E+00
      25     1     1     2     0     0  1.211060259E+02 -1.290794973E+02 -2.043579683E+03  2.055035549E+03  1.250000000E+02  0.00000E+00  9.000E+00
      25     1     1     2     0     0 -5.393290957E+01  6.175687563E+01 -2.807052242E+02  3.180300195E+02  1.250000000E+02  0.00000E+00  9.000E+00
      21     1     1     2   512   502 -6.717311636E+01  6.732262169E+01  3.435130657E+02  3.564348317E+02  5.394796609E-06  0.00000E+00  9.000E+00
#rwgt            1           1   7.7747033647989308E-002           3      284066           0
</event>
<event>
      5   9999  3.19816E-02  4.33286E+01 -1.00000E+00  1.42720E-01
      21    -1     0     0   502   501  0.000000000E+00  0.000000000E+00  1.054465964E+02  1.054465964E+02  0.000000000E+00  0.00000E+00  9.000E+00
       2    -1     0     0   501     0  0.000000000E+00  0.000000000E+00 -1.312944695E+03  1.312944695E+03  0.000000000E+00  0.00000E+00  9.000E+00
      25     1     1     2     0     0 -3.271119338E+01  2.322750538E+02 -1.074536298E+03  1.106921396E+03  1.250000000E+02  0.00000E+00  9.000E+00
      25     1     1     2     0     0  1.202613356E+01 -1.942027757E+02 -8.390250273E+01  2.460162107E+02  1.250000000E+02  0.00000E+00  9.000E+00
       2     1     1     2   502     0  2.068505982E+01 -3.807227817E+01 -4.905929882E+01  6.545368489E+01  9.536743164E-07  0.00000E+00  9.000E+00
#rwgt            1           1   2.7969863833800575E-002           3      284124           0
</event>
<event>
      5   9999  3.19816E-02  1.01909E+02 -1.00000E+00  1.23460E-01
      21    -1     0     0   502   501  0.000000000E+00  0.000000000E+00  3.289904055E+02  3.289904055E+02  0.000000000E+00  0.00000E+00  9.000E+00
      21    -1     0     0   501   511  0.000000000E+00  0.000000000E+00 -1.102811757E+03  1.102811757E+03  0.000000000E+00  0.00000E+00  9.000E+00
      25     1     1     2     0     0  4.467731499E+00 -3.641503943E+02 -1.314795242E+02  4.068627970E+02  1.250000000E+02  0.00000E+00  9.000E+00
      25     1     1     2     0     0 -1.057190624E+02  3.757092408E+02 -3.746388064E+01  4.115367495E+02  1.250000000E+02  0.00000E+00  9.000E+00
      21     1     1     2   502   511  1.012513309E+02 -1.155884654E+01 -6.048779463E+02  6.134026157E+02  7.629394531E-06  0.00000E+00  9.000E+00
#rwgt            2          11   1.9915651577790418E-003           3      284376           0
</event>
<event>
      5   9999  3.19816E-02  1.70410E+01 -1.00000E+00  1.72318E-01
      21    -1     0     0   502   512  0.000000000E+00  0.000000000E+00  6.338114029E+02  6.338114029E+02  0.000000000E+00  0.00000E+00  9.000E+00
      21    -1     0     0   501   502  0.000000000E+00  0.000000000E+00 -2.008278365E+02  2.008278365E+02  0.000000000E+00  0.00000E+00  9.000E+00
      25     1     1     2     0     0  1.073582850E+02  2.480281654E+00 -9.749915292E+01  1.914759462E+02  1.250000000E+02  0.00000E+00  9.000E+00
      25     1     1     2     0     0 -1.018587327E+02 -1.860943847E+01  6.104395553E+01  1.734153313E+02  1.250000000E+02  0.00000E+00  9.000E+00
      21     1     1     2   501   512 -5.499552348E+00  1.612915682E+01  4.694387637E+02  4.697479619E+02  5.394796609E-06  0.00000E+00  9.000E+00
#rwgt            1           1   2.5121706316252164E-002           3      284411           0
</event>
<event>
      5   9999  3.19816E-02  1.30104E+02 -1.00000E+00  1.18897E-01
      21    -1     0     0   502   501  0.000000000E+00  0.000000000E+00  1.285644952E+02  1.285644952E+02  0.000000000E+00  0.00000E+00  9.000E+00
      21    -1     0     0   501   511  0.000000000E+00  0.000000000E+00 -7.904204084E+02  7.904204084E+02  0.000000000E+00  0.00000E+00  9.000E+00
      25     1     1     2     0     0 -2.368978305E+02  1.714697908E+01 -3.611498604E+02  4.499653571E+02  1.250000000E+02  0.00000E+00  9.000E+00
      25     1     1     2     0     0  1.067986383E+02 -1.828483718E+01 -2.924330258E+01  1.679894495E+02  1.250000000E+02  0.00000E+00  9.000E+00
      21     1     1     2   502   511  1.300991922E+02  1.137858097E+00 -2.714627502E+02  3.010300970E+02  5.394796609E-06  0.00000E+00  9.000E+00
#rwgt            2          11   2.2679273244221509E-003           3      284566           0
</event>
<event>
      5   9999  3.19816E-02  4.83864E+01 -1.00000E+00  1.39893E-01
      21    -1     0     0   502   501  0.000000000E+00  0.000000000E+00  1.988670416E+02  1.988670416E+02  0.000000000E+00  0.00000E+00  9.000E+00
      21    -1     0     0   501   512  0.000000000E+00  0.000000000E+00 -1.020631744E+03  1.020631744E+03  0.000000000E+00  0.00000E+00  9.000E+00
      25     1     1     2     0     0  2.057760575E+02  2.751745416E+02 -6.323119138E+02  7.304164364E+02  1.250000000E+02  0.00000E+00  9.000E+00
      25     1     1     2     0     0 -1.890501404E+02 -3.205781909E+02 -1.325145914E+02  4.143614956E+02  1.250000000E+02  0.00000E+00  9.000E+00
      21     1     1     2   502   512 -1.672591711E+01  4.540364934E+01 -5.693819756E+01  7.472085397E+01  0.000000000E+00  0.00000E+00  9.000E+00
#rwgt            1           1   2.3726178184687880E-002           3      284586           0
</event>
<event>
      5   9999  3.19816E-02  4.41272E+01 -1.00000E+00  1.42244E-01
      21    -1     0     0   502   501  0.000000000E+00  0.000000000E+00  1.281358366E+03  1.281358366E+03  0.000000000E+00  0.00000E+00  9.000E+00
      21    -1     0     0   501   511  0.000000000E+00  0.000000000E+00 -2.302879805E+02  2.302879805E+02  0.000000000E+00  0.00000E+00  9.000E+00
      25     1     1     2     0     0 -1.725327779E+02  2.950701912E+02  1.091236993E+01  3.641126982E+02  1.250000000E+02  0.00000E+00  9.000E+00
      25     1     1     2     0     0  2.023923030E+02 -3.275604160E+02  1.023001063E+03  1.100188459E+03  1.250000000E+02  0.00000E+00  9.000E+00
      21     1     1     2   502   511 -2.985952509E+01  3.249022482E+01  1.715695308E+01  4.734518969E+01  9.830249847E-07  0.00000E+00  9.000E+00
#rwgt            1           1   3.0191251346300921E-002           3      284674           0
</event>
<event>
      5   9999  3.19816E-02  3.96249E+01 -1.00000E+00  1.45094E-01
      21    -1     0     0   502   501  0.000000000E+00  0.000000000E+00  9.334520219E+01  9.334520219E+01  0.000000000E+00  0.00000E+00  9.000E+00
      21    -1     0     0   501   512  0.000000000E+00  0.000000000E+00 -6.422880539E+02  6.422880539E+02  0.000000000E+00  0.00000E+00  9.000E+00
      25     1     1     2     0     0 -1.368743806E+02 -3.861783639E+01 -3.389776596E+02  3.882741133E+02  1.250000000E+02  0.00000E+00  9.000E+00
      25     1     1     2     0     0  1.685655089E+02  1.483120480E+01 -1.049232395E+02  2.350918578E+02  1.250000000E+02  0.00000E+00  9.000E+00
      21     1     1     2   502   512 -3.169112831E+01  2.378663159E+01 -1.050419527E+02  1.122672850E+02  0.000000000E+00  0.00000E+00  9.000E+00
#rwgt            1           1   1.4632473271279532E-002           3      284884           0
</event>
<event>
      5   9999  3.19816E-02  1.20350E+02 -1.00000E+00  1.20315E-01
      21    -1     0     0   502   501  0.000000000E+00  0.000000000E+00  1.111993981E+03  1.111993981E+03  0.000000000E+00  0.00000E+00  9.000E+00
       1    -1     0     0   501     0  0.000000000E+00  0.000000000E+00 -1.424123644E+03  1.424123644E+03  0.000000000E+00  0.00000E+00  9.000E+00
      25     1     1     2     0     0 -1.828574300E+01 -6.048479743E+01 -2.542334325E+02  2.902626696E+02  1.250000000E+02  0.00000E+00  9.000E+00
      25     1     1     2     0     0 -1.412647754E+01 -5.541829930E+01  1.086493300E+03  1.095154526E+03  1.250000000E+02  0.00000E+00  9.000E+00
       1     1     1     2   502     0  3.241222054E+01  1.159030967E+02 -1.144389530E+03  1.150700429E+03  1.525878906E-05  0.00000E+00  9.000E+00
#rwgt            1           1   2.8854774820040997E-002           3      284958           0
</event>
<event>
      5   9999  3.19816E-02  1.17853E+01 -1.00000E+00  1.87856E-01
      21    -1     0     0   502   511  0.000000000E+00  0.000000000E+00  1.296253123E+03  1.296253123E+03  0.000000000E+00  0.00000E+00  9.000E+00
      21    -1     0     0   501   502  0.000000000E+00  0.000000000E+00 -1.334502788E+02  1.334502788E+02  0.000000000E+00  0.00000E+00  9.000E+00
      25     1     1     2     0     0 -3.662088527E+02 -7.227188529E+01  6.694469008E+02  7.766056285E+02  1.250000000E+02  0.00000E+00  9.000E+00
      25     1     1     2     0     0  3.745585909E+02  8.058910020E+01  4.326948212E+02  5.913024179E+02  1.250000000E+02  0.00000E+00  9.000E+00
      21     1     1     2   501   511 -8.349738193E+00 -8.317214915E+00  6.066112191E+01  6.179535503E+01  9.536743164E-07  0.00000E+00  9.000E+00
#rwgt            1           1   2.8493805648772921E-002           3      285051           0
</event>
<event>
      5   9999  3.19816E-02  1.15507E+02 -1.00000E+00  1.21076E-01
      21    -1     0     0   512   501  0.000000000E+00  0.000000000E+00  2.754048657E+03  2.754048657E+03  0.000000000E+00  0.00000E+00  9.000E+00
      21    -1     0     0   501   502  0.000000000E+00  0.000000000E+00 -5.330041398E+01  5.330041398E+01  0.000000000E+00  0.00000E+00  9.000E+00
      25     1     1     2     0     0 -3.441001298E+01  1.540493896E+02  1.934088432E+02  2.791903366E+02  1.250000000E+02  0.00000E+00  9.000E+00
      25     1     1     2     0     0  1.795943414E+01 -3.971961203E+01  4.916029381E+02  5.091155444E+02  1.250000000E+02  0.00000E+00  9.000E+00
      21     1     1     2   512   502  1.645057884E+01 -1.143297776E+02  2.015736462E+03  2.019043190E+03  2.157918644E-05  0.00000E+00  9.000E+00
#rwgt            1           1   2.8919113732064960E-002           3      285315           0
</event>
<event>
      5   9999  3.19816E-02  2.69675E+01 -1.00000E+00  1.56325E-01
      21    -1     0     0   502   501  0.000000000E+00  0.000000000E+00  1.477817910E+03  1.477817910E+03  0.000000000E+00  0.00000E+00  9.000E+00
      21    -1     0     0   511   502  0.000000000E+00  0.000000000E+00 -6.833218227E+01  6.833218227E+01  0.000000000E+00  0.00000E+00  9.000E+00
      25     1     1     2     0     0  1.648229241E+02  1.718910171E+02  1.041026810E+03  1.075209253E+03  1.250000000E+02  0.00000E+00  9.000E+00
      25     1     1     2     0     0 -1.690366141E+02 -1.452547250E+02  3.621812757E+02  4.432522854E+02  1.250000000E+02  0.00000E+00  9.000E+00
      21     1     1     2   511   501  4.213689966E+00 -2.663629208E+01  6.277641990E+00  2.768855410E+01  9.684608465E-07  0.00000E+00  9.000E+00
#rwgt            1           1   3.4209367452804333E-002           3      285381           0
</event>
<event>
      5   9999  3.19816E-02  4.49125E+01 -1.00000E+00  1.41788E-01
      -4    -1     0     0     0   501  0.000000000E+00  0.000000000E+00  3.466041335E+02  3.466041335E+02  0.000000000E+00  0.00000E+00  9.000E+00
      21    -1     0     0   501   502  0.000000000E+00  0.000000000E+00 -2.873373040E+02  2.873373040E+02  0.000000000E+00  0.00000E+00  9.000E+00
      25     1     1     2     0     0  6.417965025E+01 -1.480620111E+02 -1.838258926E+02  2.746968246E+02  1.250000000E+02  0.00000E+00  9.000E+00
      25     1     1     2     0     0 -2.027213439E+01  1.386142002E+02  1.073673566E+02  2.162813103E+02  1.250000000E+02  0.00000E+00  9.000E+00
      -4     1     1     2     0   502 -4.390751585E+01  9.447810910E+00  1.357253655E+02  1.429633027E+02  0.000000000E+00  0.00000E+00  9.000E+00
#rwgt            1           1   3.1953069670157402E-002           3      285468           0
</event>
<event>
      5   9999  3.19816E-02  2.23915E+01 -1.00000E+00  1.62421E-01
      21    -1     0     0   502   501  0.000000000E+00  0.000000000E+00  2.435840549E+02  2.435840549E+02  0.000000000E+00  0.00000E+00  9.000E+00
      21    -1     0     0   501   511  0.000000000E+00  0.000000000E+00 -3.202407308E+02  3.202407308E+02  0.000000000E+00  0.00000E+00  9.000E+00
      25     1     1     2     0     0 -2.103487619E+02  1.145425388E+02 -1.444579868E+01  2.705554951E+02  1.250000000E+02  0.00000E+00  9.000E+00
      25     1     1     2     0     0  1.893356168E+02 -1.222774086E+02 -3.838468309E+01  2.605726853E+02  1.250000000E+02  0.00000E+00  9.000E+00
      21     1     1     2   502   511  2.101314508E+01  7.734869809E+00 -2.382619405E+01  3.269660533E+01  7.539457465E-07  0.00000E+00  9.000E+00
#rwgt            1           1   2.8282152618525472E-002           3      285543           0
</event>
<event>
      5   9999  3.19816E-02  7.50646E+01 -1.00000E+00  1.29702E-01
      21    -1     0     0   512   501  0.000000000E+00  0.000000000E+00  1.353604794E+03  1.353604794E+03  0.000000000E+00  0.00000E+00  9.000E+00
      21    -1     0     0   501   502  0.000000000E+00  0.000000000E+00 -4.523915916E+02  4.523915916E+02  0.000000000E+00  0.00000E+00  9.000E+00
      25     1     1     2     0     0 -4.679632071E+02 -3.158355219E+01 -2.428700580E+02  5.427687805E+02  1.250000000E+02  0.00000E+00  9.000E+00
      25     1     1     2     0     0  4.181443979E+02 -2.456607112E+01  1.077873040E+03  1.163135211E+03  1.250000000E+02  0.00000E+00  9.000E+00
      21     1     1     2   512   502  4.981880928E+01  5.614962331E+01  6.621021987E+01  1.000923932E+02  1.348699152E-06  0.00000E+00  9.000E+00
#rwgt            1           1   2.6961513955331248E-002           3      285719           0
</event>
<event>
      5   9999  3.19816E-02  1.81324E+01 -1.00000E+00  1.69960E-01
      21    -1     0     0   502   501  0.000000000E+00  0.000000000E+00  5.211483070E+02  5.211483070E+02  0.000000000E+00  0.00000E+00  9.000E+00
      21    -1     0     0   501   511  0.000000000E+00  0.000000000E+00 -3.371222392E+02  3.371222392E+02  0.000000000E+00  0.00000E+00  9.000E+00
      25     1     1     2     0     0 -1.923062185E+02  3.116980971E+02 -1.175292787E+01  3.871698810E+02  1.250000000E+02  0.00000E+00  9.000E+00
      25     1     1     2     0     0  1.753426843E+02 -3.181030830E+02  2.185795492E+02  4.419690574E+02  1.250000000E+02  0.00000E+00  9.000E+00
      21     1     1     2   502   511  1.696353416E+01  6.404985884E+00 -2.280055357E+01  2.913160789E+01  4.768371582E-07  0.00000E+00  9.000E+00
#rwgt            1           1   2.8456996861354063E-002           3      285873           0
</event>
<event>
      5   9999  3.19816E-02  3.65547E+01 -1.00000E+00  1.47309E-01
      21    -1     0     0   502   501  0.000000000E+00  0.000000000E+00  5.480359426E+02  5.480359426E+02  0.000000000E+00  0.00000E+00  9.000E+00
      21    -1     0     0   512   502  0.000000000E+00  0.000000000E+00 -5.228789185E+02  5.228789185E+02  0.000000000E+00  0.00000E+00  9.000E+00
      25     1     1     2     0     0  2.722370466E+02 -3.257805042E+02  2.745875177E+02  5.208351479E+02  1.250000000E+02  0.00000E+00  9.000E+00
      25     1     1     2     0     0 -2.408738589E+02  3.070029128E+02 -1.373023498E+02  4.321434248E+02  1.250000000E+02  0.00000E+00  9.000E+00
      21     1     1     2   512   501 -3.136318772E+01  1.877759134E+01 -1.121281438E+02  1.179362884E+02  0.000000000E+00  0.00000E+00  9.000E+00
#rwgt            1           1   2.7503541441742937E-002           3      286077           0
</event>
<event>
      5   9999  3.19816E-02  5.74278E+01 -1.00000E+00  1.35728E-01
      21    -1     0     0   502   501  0.000000000E+00  0.000000000E+00  6.690133167E+02  6.690133167E+02  0.000000000E+00  0.00000E+00  9.000E+00
      -2    -1     0     0     0   502  0.000000000E+00  0.000000000E+00 -5.099166199E+02  5.099166199E+02  0.000000000E+00  0.00000E+00  9.000E+00
      25     1     1     2     0     0  1.838404107E+02  5.467615631E+01 -2.928890592E+02  3.717469296E+02  1.250000000E+02  0.00000E+00  9.000E+00
      25     1     1     2     0     0 -2.369628371E+02 -3.285972328E+01  5.948411347E+02  6.532167504E+02  1.250000000E+02  0.00000E+00  9.000E+00
      -2     1     1     2     0   501  5.312242642E+01 -2.181643303E+01 -1.428553787E+02  1.539662565E+02  2.697398305E-06  0.00000E+00  9.000E+00
#rwgt            1           1   2.6665599593090155E-002           3      286246           0
</event>
<event>
      5   9999  3.19816E-02  8.67447E+01 -1.00000E+00  1.26671E-01
      21    -1     0     0   502   501  0.000000000E+00  0.000000000E+00  3.857995981E+02  3.857995981E+02  0.000000000E+00  0.00000E+00  9.000E+00
      21    -1     0     0   501   511  0.000000000E+00  0.000000000E+00 -2.415748004E+02  2.415748004E+02  0.000000000E+00  0.00000E+00  9.000E+00
      25     1     1     2     0     0 -6.706589052E+01  2.478904851E+02  7.003639067E+01  2.940707777E+02  1.250000000E+02  0.00000E+00  9.000E+00
      25     1     1     2     0     0  4.040804489E+01 -1.653435249E+02  1.115792304E+02  2.388434968E+02  1.250000000E+02  0.00000E+00  9.000E+00
      21     1     1     2   502   511  2.665784564E+01 -8.254696014E+01 -3.739082331E+01  9.446012402E+01  1.066240300E-06  0.00000E+00  9.000E+00
#rwgt            1           1   2.9534184224973940E-002           3      286365           0
</event>
<event>
      5   9999  3.19816E-02  5.13859E+01 -1.00000E+00  1.38401E-01
      21    -1     0     0   502   501  0.000000000E+00  0.000000000E+00  2.144026081E+02  2.144026081E+02  0.000000000E+00  0.00000E+00  9.000E+00
      21    -1     0     0   501   512  0.000000000E+00  0.000000000E+00 -7.077064469E+02  7.077064469E+02  0.000000000E+00  0.00000E+00  9.000E+00
      25     1     1     2     0     0  1.218292480E+02  2.280495789E+02 -1.363295713E+02  3.178989275E+02  1.250000000E+02  0.00000E+00  9.000E+00
      25     1     1     2     0     0 -1.693411555E+02 -2.476232841E+02 -9.692987884E+01  3.391373161E+02  1.250000000E+02  0.00000E+00  9.000E+00
      21     1     1     2   502   512  4.751190749E+01  1.957370523E+01 -2.600443886E+02  2.650728114E+02  5.394796609E-06  0.00000E+00  9.000E+00
#rwgt            1           1   2.6705407288993562E-002           3      286437           0
</event>
<event>
      5   9999  3.19816E-02  1.15497E+02 -1.00000E+00  1.21078E-01
      21    -1     0     0   502   501  0.000000000E+00  0.000000000E+00  7.691982356E+02  7.691982356E+02  0.000000000E+00  0.00000E+00  9.000E+00
      21    -1     0     0   501   511  0.000000000E+00  0.000000000E+00 -5.602955227E+02  5.602955227E+02  0.000000000E+00  0.00000E+00  9.000E+00
      25     1     1     2     0     0  5.475926329E+02 -5.422447670E+01  2.456318999E+02  6.154331936E+02  1.250000000E+02  0.00000E+00  9.000E+00
      25     1     1     2     0     0 -5.798362475E+02 -5.668005629E+01 -4.923200192E+01  5.978891977E+02  1.250000000E+02  0.00000E+00  9.000E+00
      21     1     1     2   502   511  3.224361465E+01  1.109045330E+02  1.250281484E+01  1.161713670E+02  2.443063442E-06  0.00000E+00  9.000E+00
#rwgt            1           1   3.0385492268669489E-002           3      286525           0
</event>
<event>
      5   9999  3.19816E-02  3.34081E+02 -1.00000E+00  1.04096E-01
      21    -1     0     0   502   501  0.000000000E+00  0.000000000E+00  4.702167128E+02  4.702167128E+02  0.000000000E+00  0.00000E+00  9.000E+00
      21    -1     0     0   512   502  0.000000000E+00  0.000000000E+00 -8.406503950E+02  8.406503950E+02  0.000000000E+00  0.00000E+00  9.000E+00
      25     1     1     2     0     0  1.344673799E+02  4.844319433E+02 -2.534820474E+02  5.767442521E+02  1.250000000E+02  0.00000E+00  9.000E+00
      25     1     1     2     0     0 -2.329416730E+02 -1.651940080E+02  1.096378304E+02  3.304486907E+02  1.250000000E+02  0.00000E+00  9.000E+00
      21     1     1     2   512   501  9.847429309E+01 -3.192379354E+02 -2.265894651E+02  4.036741650E+02  1.044697871E-05  0.00000E+00  9.000E+00
#rwgt            1           1   2.3431961484117296E-002           3      286599           0
</event>
<event>
      5   9999  3.19816E-02  2.78475E+01 -1.00000E+00  1.55320E-01
      21    -1     0     0   502   501  0.000000000E+00  0.000000000E+00  4.181416000E+02  4.181416000E+02  0.000000000E+00  0.00000E+00  9.000E+00
       2    -1     0     0   501     0  0.000000000E+00  0.000000000E+00 -5.488803527E+02  5.488803527E+02  0.000000000E+00  0.00000E+00  9.000E+00
      25     1     1     2     0     0 -1.793116651E+02  1.667177304E+02  9.021009929E+01  2.893273870E+02  1.250000000E+02  0.00000E+00  9.000E+00
      25     1     1     2     0     0  2.023378878E+02 -1.823790806E+02  1.292470131E+02  3.263932295E+02  1.250000000E+02  0.00000E+00  9.000E+00
       2     1     1     2   502     0 -2.302622270E+01  1.566135019E+01 -3.501958651E+02  3.513013361E+02  3.814697266E-06  0.00000E+00  9.000E+00
#rwgt            1           1   2.9786450751446085E-002           3      286629           0
</event>
<event>
      5   9999  3.19816E-02  3.00175E+02 -1.00000E+00  1.05584E-01
      21    -1     0     0   502   501  0.000000000E+00  0.000000000E+00  1.735766906E+02  1.735766906E+02  0.000000000E+00  0.00000E+00  9.000E+00
      21    -1     0     0   511   502  0.000000000E+00  0.000000000E+00 -1.644940333E+03  1.644940333E+03  0.000000000E+00  0.00000E+00  9.000E+00
      25     1     1     2     0     0  9.757444580E+00 -1.962368604E+02 -6.114920069E+02  6.543329333E+02  1.250000000E+02  0.00000E+00  9.000E+00
      25     1     1     2     0     0  2.857602668E+02  2.489102387E+02 -2.159517919E+02  4.537349595E+02  1.250000000E+02  0.00000E+00  9.000E+00
      21     1     1     2   511   501 -2.955177114E+02 -5.267337837E+01 -6.439198438E+02  7.104491310E+02  7.629394531E-06  0.00000E+00  9.000E+00
#rwgt            2          11   2.1992129545876761E-003           3      286800           0
</event>
<event>
      5   9999  3.19816E-02  5.60780E+01 -1.00000E+00  1.36291E-01
      21    -1     0     0   502   512  0.000000000E+00  0.000000000E+00  2.203328395E+02  2.203328395E+02  0.000000000E+00  0.00000E+00  9.000E+00
      21    -1     0     0   501   502  0.000000000E+00  0.000000000E+00 -6.094343863E+02  6.094343863E+02  0.000000000E+00  0.00000E+00  9.000E+00
      25     1     1     2     0     0 -2.080659203E+02 -2.183024741E+02 -3.228238139E+02  4.591161206E+02  1.250000000E+02  0.00000E+00  9.000E+00
      25     1     1     2     0     0  2.247722320E+02  1.647707822E+02 -3.785772654E+01  3.077826740E+02  1.250000000E+02  0.00000E+00  9.000E+00
      21     1     1     2   501   512 -1.670631166E+01  5.353169182E+01 -2.842000633E+01  6.286843118E+01  9.536743164E-07  0.00000E+00  9.000E+00
#rwgt            1           1   2.2972013962622499E-002           3      286820           0
</event>
<event>
      5   9999  3.19816E-02  4.87908E+01 -1.00000E+00  1.39685E-01
      21    -1     0     0   502   501  0.000000000E+00  0.000000000E+00  6.874852266E+02  6.874852266E+02  0.000000000E+00  0.00000E+00  9.000E+00
      21    -1     0     0   511   502  0.000000000E+00  0.000000000E+00 -3.582891485E+02  3.582891485E+02  0.000000000E+00  0.00000E+00  9.000E+00
      25     1     1     2     0     0  1.924148225E+02 -7.917857972E+01  6.072397132E+02  6.539554884E+02  1.250000000E+02  0.00000E+00  9.000E+00
      25     1     1     2     0     0 -1.462351485E+02  9.492604697E+01 -1.715550333E+02  2.746849149E+02  1.250000000E+02  0.00000E+00  9.000E+00
      21     1     1     2   511   501 -4.617967407E+01 -1.574746725E+01 -1.064886019E+02  1.171339718E+02  0.000000000E+00  0.00000E+00  9.000E+00
#rwgt            1           1   2.1382038639199078E-002           3      286908           0
</event>
<event>
      5   9999  3.19816E-02  8.28748E+01 -1.00000E+00  1.27612E-01
       1    -1     0     0   502     0  0.000000000E+00  0.000000000E+00  2.561837925E+02  2.561837925E+02  0.000000000E+00  0.00000E+00  9.000E+00
      21    -1     0     0   501   502  0.000000000E+00  0.000000000E+00 -1.381230460E+03  1.381230460E+03  0.000000000E+00  0.00000E+00  9.000E+00
      25     1     1     2     0     0 -2.582699385E+02  3.540523708E+02 -5.164678172E+02  6.887818586E+02  1.250000000E+02  0.00000E+00  9.000E+00
      25     1     1     2     0     0  2.966363120E+02 -2.805931717E+02 -7.032907669E+02  8.227809747E+02  1.250000000E+02  0.00000E+00  9.000E+00
       1     1     1     2   501     0 -3.836637342E+01 -7.345919910E+01  9.471191667E+01  1.258514191E+02  3.015782986E-06  0.00000E+00  9.000E+00
#rwgt            1           1   3.2167827110342301E-002           3      287026           0
</event>
<event>
      5   9999  3.19816E-02  6.62374E+01 -1.00000E+00  1.32448E-01
      21    -1     0     0   502   501  0.000000000E+00  0.000000000E+00  2.758581009E+02  2.758581009E+02  0.000000000E+00  0.00000E+00  9.000E+00
       2    -1     0     0   501     0  0.000000000E+00  0.000000000E+00 -2.441942664E+03  2.441942664E+03  0.000000000E+00  0.00000E+00  9.000E+00
      25     1     1     2     0     0  1.498938485E+02 -5.560064838E+01  1.541377448E+01  2.035244024E+02  1.250000000E+02  0.00000E+00  9.000E+00
      25     1     1     2     0     0 -1.715104825E+02  1.182115117E+02  7.697401527E+01  2.548328984E+02  1.250000000E+02  0.00000E+00  9.000E+00
       2     1     1     2   502     0  2.161663397E+01 -6.261086333E+01 -2.258472353E+03  2.259443464E+03  5.285799584E-05  0.00000E+00  9.000E+00
#rwgt            1           1   2.6301884121758535E-002           3      287122           0
</event>
<event>
      5   9999  3.19816E-02  8.49088E+01 -1.00000E+00  1.27110E-01
      21    -1     0     0   502   501  0.000000000E+00  0.000000000E+00  2.546664572E+02  2.546664572E+02  0.000000000E+00  0.00000E+00  9.000E+00
       2    -1     0     0   501     0  0.000000000E+00  0.000000000E+00 -3.629654368E+03  3.629654368E+03  0.000000000E+00  0.00000E+00  9.000E+00
      25     1     1     2     0     0 -2.707366093E+02 -9.434841145E+01 -6.695635676E+01  3.198563554E+02  1.250000000E+02  0.00000E+00  9.000E+00
      25     1     1     2     0     0  1.862579203E+02  8.581239236E+01  1.472878140E+01  2.406194434E+02  1.250000000E+02  0.00000E+00  9.000E+00
       2     1     1     2   502     0  8.447868905E+01  8.536019095E+00 -3.322760336E+03  3.323845026E+03  0.000000000E+00  0.00000E+00  9.000E+00
#rwgt            1           1   2.9475352711228062E-002           3      287210           0
</event>
<event>
      5   9999  3.19816E-02  4.84678E+01 -1.00000E+00  1.39851E-01
      21    -1     0     0   511   501  0.000000000E+00  0.000000000E+00  7.797355738E+02  7.797355738E+02  0.000000000E+00  0.00000E+00  9.000E+00
      21    -1     0     0   501   502  0.000000000E+00  0.000000000E+00 -8.099991468E+02  8.099991468E+02  0.000000000E+00  0.00000E+00  9.000E+00
      25     1     1     2     0     0 -1.547233480E+02 -6.391534358E+01 -5.036720159E+02  5.452843159E+02  1.250000000E+02  0.00000E+00  9.000E+00
      25     1     1     2     0     0  1.728038746E+02  1.088844461E+02 -2.343377693E+02  3.350465517E+02  1.250000000E+02  0.00000E+00  9.000E+00
      21     1     1     2   511   502 -1.808052669E+01 -4.496910255E+01  7.077462122E+02  7.094038529E+02  7.629394531E-06  0.00000E+00  9.000E+00
#rwgt            1           1   2.9177489237392912E-002           3      287318           0
</event>
<event>
      5   9999  3.19816E-02  6.28078E+01 -1.00000E+00  1.33651E-01
      21    -1     0     0   502   501  0.000000000E+00  0.000000000E+00  2.912035073E+02  2.912035073E+02  0.000000000E+00  0.00000E+00  9.000E+00
      -1    -1     0     0     0   502  0.000000000E+00  0.000000000E+00 -6.327387643E+02  6.327387643E+02  0.000000000E+00  0.00000E+00  9.000E+00
      25     1     1     2     0     0  2.675558950E+02 -5.277718978E+01 -6.609831885E+00  3.000671235E+02  1.250000000E+02  0.00000E+00  9.000E+00
      25     1     1     2     0     0 -2.695202586E+02  1.155542422E+02 -3.876220918E+01  3.211253051E+02  1.250000000E+02  0.00000E+00  9.000E+00
      -1     1     1     2     0   501  1.964363624E+00 -6.277705238E+01 -2.961632159E+02  3.027498431E+02  5.394796609E-06  0.00000E+00  9.000E+00
#rwgt            1           1   2.9619785019505709E-002           3      287417           0
</event>
<event>
      5   9999  3.19816E-02  2.07063E+01 -1.00000E+00  1.65135E-01
      21    -1     0     0   502   501  0.000000000E+00  0.000000000E+00  1.984295617E+02  1.984295617E+02  0.000000000E+00  0.00000E+00  9.000E+00
      21    -1     0     0   501   511  0.000000000E+00  0.000000000E+00 -7.296985850E+02  7.296985850E+02  0.000000000E+00  0.00000E+00  9.000E+00
      25     1     1     2     0     0  9.287398228E+01  1.759253994E+02  9.687595764E+01  2.541363293E+02  1.250000000E+02  0.00000E+00  9.000E+00
      25     1     1     2     0     0 -7.790169900E+01 -1.616221827E+02 -5.237734937E+02  5.675861850E+02  1.250000000E+02  0.00000E+00  9.000E+00
      21     1     1     2   502   511 -1.497228328E+01 -1.430321670E+01 -1.043714872E+02  1.064056325E+02  0.000000000E+00  0.00000E+00  9.000E+00
#rwgt            1           1   2.4114756702220953E-002           3      287506           0
</event>
<event>
      5   9999  3.19816E-02  2.27380E+01 -1.00000E+00  1.61899E-01
      21    -1     0     0   512   501  0.000000000E+00  0.000000000E+00  5.326335552E+02  5.326335552E+02  0.000000000E+00  0.00000E+00  9.000E+00
      21    -1     0     0   501   502  0.000000000E+00  0.000000000E+00 -3.658103418E+02  3.658103418E+02  0.000000000E+00  0.00000E+00  9.000E+00
      25     1     1     2     0     0  1.759048472E+02  2.990622506E+02  9.479430999E+01  3.807777648E+02  1.250000000E+02  0.00000E+00  9.000E+00
      25     1     1     2     0     0 -1.557331776E+02 -3.095561588E+02 -6.902638753E+01  3.747899148E+02  1.250000000E+02  0.00000E+00  9.000E+00
      21     1     1     2   512   502 -2.017166960E+01  1.049390820E+01  1.410552910E+02  1.428762174E+02  0.000000000E+00  0.00000E+00  9.000E+00
#rwgt            1           1   3.3419162854732440E-002           3      287670           0
</event>
<event>
      5   9999  3.19816E-02  1.58525E+02 -1.00000E+00  1.15450E-01
      21    -1     0     0   502   511  0.000000000E+00  0.000000000E+00  1.071523702E+03  1.071523702E+03  0.000000000E+00  0.00000E+00  9.000E+00
      21    -1     0     0   501   502  0.000000000E+00  0.000000000E+00 -8.005147128E+02  8.005147128E+02  0.000000000E+00  0.00000E+00  9.000E+00
      25     1     1     2     0     0  1.744165251E+02 -2.285368810E+02 -7.361337385E+02  8.001050625E+02  1.250000000E+02  0.00000E+00  9.000E+00
      25     1     1     2     0     0 -1.178549360E+02  8.044587865E+01  3.754489028E+02  4.206521175E+02  1.250000000E+02  0.00000E+00  9.000E+00
      21     1     1     2   501   511 -5.656158910E+01  1.480910023E+02  6.316938250E+02  6.512812349E+02  1.321449896E-05  0.00000E+00  9.000E+00
#rwgt            1           1   3.0362957714704760E-002           3      287840           0
</event>
<event>
      5   9999  3.19816E-02  1.70320E+01 -1.00000E+00  1.72339E-01
      21    -1     0     0   502   501  0.000000000E+00  0.000000000E+00  1.338761410E+02  1.338761410E+02  0.000000000E+00  0.00000E+00  9.000E+00
      21    -1     0     0   512   502  0.000000000E+00  0.000000000E+00 -1.582244599E+03  1.582244599E+03  0.000000000E+00  0.00000E+00  9.000E+00
      25     1     1     2     0     0  1.442623056E+01  6.257808482E+01 -1.489944971E+03  1.496557767E+03  1.250000000E+02  0.00000E+00  9.000E+00
      25     1     1     2     0     0 -4.315883703E-01 -5.287046277E+01  9.357000637E+01  1.648508969E+02  1.250000000E+02  0.00000E+00  9.000E+00
      21     1     1     2   512   501 -1.399464219E+01 -9.707622051E+00 -5.199349333E+01  5.471207622E+01  9.536743164E-07  0.00000E+00  9.000E+00
#rwgt            1           1   2.4679960584143165E-002           3      287926           0
</event>
<event>
      5   9999  3.19816E-02  6.18055E+02 -1.00000E+00  9.63053E-02
       2    -1     0     0   502     0  0.000000000E+00  0.000000000E+00  3.193503975E+03  3.193503975E+03  0.000000000E+00  0.00000E+00  9.000E+00
      21    -1     0     0   501   502  0.000000000E+00  0.000000000E+00 -1.049269717E+03  1.049269717E+03  0.000000000E+00  0.00000E+00  9.000E+00
      25     1     1     2     0     0  1.416339453E+02 -1.707900346E+02 -4.748537860E+00  2.547095581E+02  1.250000000E+02  0.00000E+00  9.000E+00
      25     1     1     2     0     0  1.698171291E+02  7.046348734E+02 -7.342825594E+02  1.039299783E+03  1.250000000E+02  0.00000E+00  9.000E+00
       2     1     1     2   501     0 -3.114510744E+02 -5.338448388E+02  2.883265356E+03  2.948764351E+03  4.315837288E-05  0.00000E+00  9.000E+00
#rwgt            2          18   1.4061393946044658E-002           3      288093           0
</event>
<event>
      5   9999  3.19816E-02  1.07237E+02 -1.00000E+00  1.22478E-01
      21    -1     0     0   502   511  0.000000000E+00  0.000000000E+00  1.565048798E+02  1.565048798E+02  0.000000000E+00  0.00000E+00  9.000E+00
      21    -1     0     0   501   502  0.000000000E+00  0.000000000E+00 -4.783732583E+02  4.783732583E+02  0.000000000E+00  0.00000E+00  9.000E+00
      25     1     1     2     0     0  1.470637167E+02  5.284872815E+01 -1.865995710E+02  2.736149205E+02  1.250000000E+02  0.00000E+00  9.000E+00
      25     1     1     2     0     0 -1.814989890E+02  4.870878182E+01 -1.100624020E+02  2.511038844E+02  1.250000000E+02  0.00000E+00  9.000E+00
      21     1     1     2   501   511  3.443527238E+01 -1.015575100E+02 -2.520640553E+01  1.101593332E+02  0.000000000E+00  0.00000E+00  9.000E+00
#rwgt            1           1   2.9203811515458162E-002           3      288112           0
</event>
<event>
      5   9999  3.19816E-02  1.30797E+02 -1.00000E+00  1.18801E-01
      21    -1     0     0   502   501  0.000000000E+00  0.000000000E+00  7.077798768E+02  7.077798768E+02  0.000000000E+00  0.00000E+00  9.000E+00
      21    -1     0     0   512   502  0.000000000E+00  0.000000000E+00 -1.717510039E+03  1.717510039E+03  0.000000000E+00  0.00000E+00  9.000E+00
      25     1     1     2     0     0  2.217349158E+02 -4.679366474E+01 -1.470914267E+03  1.493509224E+03  1.250000000E+02  0.00000E+00  9.000E+00
      25     1     1     2     0     0 -2.366872686E+02  1.767336964E+02  6.366761601E+02  7.129075644E+02  1.250000000E+02  0.00000E+00  9.000E+00
      21     1     1     2   512   501  1.495235283E+01 -1.299400316E+02 -1.754920554E+02  2.188731280E+02  2.697398305E-06  0.00000E+00  9.000E+00
#rwgt            1           1   4.0637659040869613E-002           3      288260           0
</event>
<event>
      5   9999  3.19816E-02  4.31660E+01 -1.00000E+00  1.42818E-01
       2    -1     0     0   502     0  0.000000000E+00  0.000000000E+00  8.096525622E+02  8.096525622E+02  0.000000000E+00  0.00000E+00  9.000E+00
      21    -1     0     0   501   502  0.000000000E+00  0.000000000E+00 -1.061644049E+02  1.061644049E+02  0.000000000E+00  0.00000E+00  9.000E+00
      25     1     1     2     0     0  9.305849128E+01  9.518263471E+01  6.229370900E+02  6.491496243E+02  1.250000000E+02  0.00000E+00  9.000E+00
      25     1     1     2     0     0 -6.608605642E+01 -1.288841385E+02  2.008135498E+01  1.923713825E+02  1.250000000E+02  0.00000E+00  9.000E+00
       2     1     1     2   501     0 -2.697243487E+01  3.370150377E+01  6.046971237E+01  7.429596027E+01  0.000000000E+00  0.00000E+00  9.000E+00
#rwgt            1           1   2.8873380507621782E-002           3      288405           0
</event>
<event>
      5   9999  3.19816E-02  4.68629E+02 -1.00000E+00  9.96581E-02
      21    -1     0     0   502   501  0.000000000E+00  0.000000000E+00  9.030710237E+02  9.030710237E+02  0.000000000E+00  0.00000E+00  9.000E+00
      21    -1     0     0   511   502  0.000000000E+00  0.000000000E+00 -6.895213715E+02  6.895213715E+02  0.000000000E+00  0.00000E+00  9.000E+00
      25     1     1     2     0     0  5.706319022E+02 -3.183224925E+02  1.825798587E+01  6.655135844E+02  1.250000000E+02  0.00000E+00  9.000E+00
      25     1     1     2     0     0 -1.287908347E+02  1.621494039E+02  3.570957364E+02  4.313025310E+02  1.250000000E+02  0.00000E+00  9.000E+00
      21     1     1     2   511   501 -4.418410675E+02  1.561730886E+02 -1.618040701E+02  4.957762798E+02  1.250732140E-05  0.00000E+00  9.000E+00
#rwgt            2          11   2.4605256920091083E-003           3      288524           0
</event>
<event>
      5   9999  3.19816E-02  1.22829E+01 -1.00000E+00  1.85970E-01
      21    -1     0     0   502   501  0.000000000E+00  0.000000000E+00  3.509106377E+02  3.509106377E+02  0.000000000E+00  0.00000E+00  9.000E+00
      21    -1     0     0   501   512  0.000000000E+00  0.000000000E+00 -2.060978129E+02  2.060978129E+02  0.000000000E+00  0.00000E+00  9.000E+00
      25     1     1     2     0     0  2.003385533E+02 -5.615072187E+00  9.275873172E+01  2.537641568E+02  1.250000000E+02  0.00000E+00  9.000E+00
      25     1     1     2     0     0 -1.885543181E+02  9.079227259E+00  1.045138243E+02  2.493658011E+02  1.250000000E+02  0.00000E+00  9.000E+00
      21     1     1     2   502   512 -1.178423519E+01 -3.464155072E+00 -5.245973127E+01  5.387849269E+01  0.000000000E+00  0.00000E+00  9.000E+00
#rwgt            1           1   2.1295426396518942E-002           3      288589           0
</event>
<event>
      5   9999  3.19816E-02  4.17078E+02 -1.00000E+00  1.01142E-01
      21    -1     0     0   502   501  0.000000000E+00  0.000000000E+00  5.701257509E+02  5.701257509E+02  0.000000000E+00  0.00000E+00  9.000E+00
      -2    -1     0     0     0   502  0.000000000E+00  0.000000000E+00 -4.774139181E+02  4.774139181E+02  0.000000000E+00  0.00000E+00  9.000E+00
      25     1     1     2     0     0  4.251411350E+01  5.609473886E+01  6.800432098E+01  1.587565975E+02  1.250000000E+02  0.00000E+00  9.000E+00
      25     1     1     2     0     0  2.394618012E+02 -3.634111625E+02  1.031135039E+02  4.643996361E+02  1.250000000E+02  0.00000E+00  9.000E+00
      -2     1     1     2     0   501 -2.819759147E+02  3.073164237E+02 -7.840599209E+01  4.243834355E+02  4.672030912E-06  0.00000E+00  9.000E+00
#rwgt            2           9   1.0428701568320506E-004           3      288811           0
</event>
<event>
      5   9999  3.19816E-02  7.19274E+01 -1.00000E+00  1.30626E-01
      21    -1     0     0   502   501  0.000000000E+00  0.000000000E+00  1.821036993E+03  1.821036993E+03  0.000000000E+00  0.00000E+00  9.000E+00
      21    -1     0     0   501   511  0.000000000E+00  0.000000000E+00 -4.069304140E+02  4.069304140E+02  0.000000000E+00  0.00000E+00  9.000E+00
      25     1     1     2     0     0  2.961311883E+02 -7.243445931E+02  3.619594753E+02  8.712108998E+02  1.250000000E+02  0.00000E+00  9.000E+00
      25     1     1     2     0     0 -3.495747238E+02  6.762058364E+02  1.017645289E+03  1.276982285E+03  1.250000000E+02  0.00000E+00  9.000E+00
      21     1     1     2   502   511  5.344353557E+01  4.813875667E+01  3.450181464E+01  7.977422266E+01  1.261592536E-06  0.00000E+00  9.000E+00
#rwgt            1           1   2.6722405589836799E-002           3      288830           0
</event>
<event>
      5   9999  3.19816E-02  1.27193E+01 -1.00000E+00  1.84409E-01
      21    -1     0     0   512   501  0.000000000E+00  0.000000000E+00  5.629815749E+02  5.629815749E+02  0.000000000E+00  0.00000E+00  9.000E+00
      21    -1     0     0   501   502  0.000000000E+00  0.000000000E+00 -7.984483185E+01  7.984483185E+01  0.000000000E+00  0.00000E+00  9.000E+00
      25     1     1     2     0     0  4.742593549E+01  9.719763036E+01  4.663230355E+01  1.717444917E+02  1.250000000E+02  0.00000E+00  9.000E+00
      25     1     1     2     0     0 -3.943367961E+01 -8.730296416E+01  3.519780980E+02  3.856039472E+02  1.250000000E+02  0.00000E+00  9.000E+00
      21     1     1     2   512   502 -7.992255876E+00 -9.894666201E+00  8.452634149E+01  8.547796780E+01  9.536743164E-07  0.00000E+00  9.000E+00
#rwgt            1           1   2.7730341285197736E-002           3      288954           0
</event>
<event>
      5   9999  3.19816E-02  2.11400E+01 -1.00000E+00  1.64407E-01
      21    -1     0     0   502   511  0.000000000E+00  0.000000000E+00  1.855896130E+02  1.855896130E+02  0.000000000E+00  0.00000E+00  9.000E+00
      21    -1     0     0   501   502  0.000000000E+00  0.000000000E+00 -4.149912852E+02  4.149912852E+02  0.000000000E+00  0.00000E+00  9.000E+00
      25     1     1     2     0     0  1.051048302E+02 -1.327436868E+02  6.915438191E+01  2.215293214E+02  1.250000000E+02  0.00000E+00  9.000E+00
      25     1     1     2     0     0 -8.478476603E+01  1.269132501E+02 -2.986305133E+02  3.579114598E+02  1.250000000E+02  0.00000E+00  9.000E+00
      21     1     1     2   501   511 -2.032006416E+01  5.830436680E+00  7.445924523E-02  2.114011693E+01  2.174234335E-07  0.00000E+00  9.000E+00
#rwgt            1           1   2.6979004705468216E-002           3      289162           0
</event>
<event>
      5   9999  3.19816E-02  7.27794E+01 -1.00000E+00  1.30370E-01
       2    -1     0     0   502     0  0.000000000E+00  0.000000000E+00  2.227354217E+03  2.227354217E+03  0.000000000E+00  0.00000E+00  9.000E+00
      21    -1     0     0   501   502  0.000000000E+00  0.000000000E+00 -1.030392785E+02  1.030392785E+02  0.000000000E+00  0.00000E+00  9.000E+00
      25     1     1     2     0     0 -7.104720656E+01 -1.179279833E+02  1.429791370E+02  2.345692828E+02  1.250000000E+02  0.00000E+00  9.000E+00
      25     1     1     2     0     0  8.965512471E+01  4.756761184E+01  5.804616697E+01  1.711580456E+02  1.250000000E+02  0.00000E+00  9.000E+00
       2     1     1     2   501     0 -1.860791814E+01  7.036037146E+01  1.923289634E+03  1.924666167E+03  0.000000000E+00  0.00000E+00  9.000E+00
#rwgt            1           1   2.2850032261545153E-002           3      289320           0
</event>
<event>
      5   9999  3.19816E-02  1.58597E+01 -1.00000E+00  1.75133E-01
      21    -1     0     0   502   511  0.000000000E+00  0.000000000E+00  5.304042864E+02  5.304042864E+02  0.000000000E+00  0.00000E+00  9.000E+00
      21    -1     0     0   501   502  0.000000000E+00  0.000000000E+00 -1.708405964E+02  1.708405964E+02  0.000000000E+00  0.00000E+00  9.000E+00
      25     1     1     2     0     0  1.023065228E+02  7.150921871E+01  4.488820743E+02  4.823902047E+02  1.250000000E+02  0.00000E+00  9.000E+00
      25     1     1     2     0     0 -8.731859765E+01 -7.669511356E+01 -1.017461582E+02  1.987057087E+02  1.250000000E+02  0.00000E+00  9.000E+00
      21     1     1     2   501   511 -1.498792517E+01  5.185894853E+00  1.242777386E+01  2.014896944E+01  2.384185791E-07  0.00000E+00  9.000E+00
#rwgt            2          11   5.0896092153962930E-003           3      289431           0
</event>
<event>
      5   9999  3.19816E-02  7.20098E+01 -1.00000E+00  1.30601E-01
       2    -1     0     0   502     0  0.000000000E+00  0.000000000E+00  3.403700658E+03  3.403700658E+03  0.000000000E+00  0.00000E+00  9.000E+00
      21    -1     0     0   501   502  0.000000000E+00  0.000000000E+00 -5.162477969E+02  5.162477969E+02  0.000000000E+00  0.00000E+00  9.000E+00
      25     1     1     2     0     0 -4.433316790E+01  2.712567457E+02 -4.604501175E+02  5.506223411E+02  1.250000000E+02  0.00000E+00  9.000E+00
      25     1     1     2     0     0  5.793467998E+01 -2.005431671E+02  1.466592565E+03  1.486638067E+03  1.250000000E+02  0.00000E+00  9.000E+00
       2     1     1     2   501     0 -1.360151208E+01 -7.071357858E+01  1.881310413E+03  1.882688046E+03  0.000000000E+00  0.00000E+00  9.000E+00
#rwgt            1           1   3.1765755256613577E-002           3      289451           0
</event>
<event>
      5   9999  3.19816E-02  4.15325E+01 -1.00000E+00  1.43835E-01
      -2    -1     0     0     0   501  0.000000000E+00  0.000000000E+00  5.041595364E+02  5.041595364E+02  0.000000000E+00  0.00000E+00  9.000E+00
      21    -1     0     0   501   502  0.000000000E+00  0.000000000E+00 -4.542341039E+02  4.542341039E+02  0.000000000E+00  0.00000E+00  9.000E+00
      25     1     1     2     0     0 -1.644379116E+02  1.385186054E+02 -1.957460066E+02  3.164944390E+02  1.250000000E+02  0.00000E+00  9.000E+00
      25     1     1     2     0     0  1.854897875E+02 -1.027168049E+02 -1.200334722E+02  2.738434548E+02  1.250000000E+02  0.00000E+00  9.000E+00
      -2     1     1     2     0   502 -2.105187588E+01 -3.580180047E+01  3.657049113E+02  3.680557465E+02  5.394796609E-06  0.00000E+00  9.000E+00
#rwgt            1           1   2.0276722523197781E-002           3      289570           0
</event>
<event>
      5   9999  3.19816E-02  2.29178E+01 -1.00000E+00  1.61633E-01
      21    -1     0     0   511   501  0.000000000E+00  0.000000000E+00  9.699417295E+02  9.699417295E+02  0.000000000E+00  0.00000E+00  9.000E+00
      21    -1     0     0   501   502  0.000000000E+00  0.000000000E+00 -4.294249309E+02  4.294249309E+02  0.000000000E+00  0.00000E+00  9.000E+00
      25     1     1     2     0     0 -1.481120898E+02  8.752588635E+01 -3.047140524E+02  3.715825960E+02  1.250000000E+02  0.00000E+00  9.000E+00
      25     1     1     2     0     0  1.680252955E+02 -7.618177314E+01  4.515074741E+01  2.273757957E+02  1.250000000E+02  0.00000E+00  9.000E+00
      21     1     1     2   511   502 -1.991320566E+01 -1.134411321E+01  8.000801035E+02  8.004082687E+02  1.525878906E-05  0.00000E+00  9.000E+00
#rwgt            1           1   2.7785339313499538E-002           3      289621           0
</event>
<event>
      5   9999  3.19816E-02  5.42809E+01 -1.00000E+00  1.37070E-01
      21    -1     0     0   502   501  0.000000000E+00  0.000000000E+00  3.617285831E+02  3.617285831E+02  0.000000000E+00  0.00000E+00  9.000E+00
      21    -1     0     0   512   502  0.000000000E+00  0.000000000E+00 -1.492070227E+02  1.492070227E+02  0.000000000E+00  0.00000E+00  9.000E+00
      25     1     1     2     0     0 -9.708442530E+01  3.541756112E+01  2.271851677E+02  2.791377611E+02  1.250000000E+02  0.00000E+00  9.000E+00
      25     1     1     2     0     0  1.158127921E+02  1.553014036E+01 -3.346647813E+01  1.743524970E+02  1.250000000E+02  0.00000E+00  9.000E+00
      21     1     1     2   512   501 -1.872836676E+01 -5.094770148E+01  1.880287080E+01  5.744534757E+01  4.768371582E-07  0.00000E+00  9.000E+00
#rwgt            1           1   2.5112431051884151E-002           3      289805           0
</event>
<event>
      5   9999  3.19816E-02  3.55175E+01 -1.00000E+00  1.48116E-01
      21    -1     0     0   502   501  0.000000000E+00  0.000000000E+00  6.302580755E+01  6.302580755E+01  0.000000000E+00  0.00000E+00  9.000E+00
      21    -1     0     0   501   511  0.000000000E+00  0.000000000E+00 -5.968804586E+02  5.968804586E+02  0.000000000E+00  0.00000E+00  9.000E+00
      25     1     1     2     0     0  6.349923628E+01 -3.257648348E+01 -7.753601217E+01  1.634937720E+02  1.250000000E+02  0.00000E+00  9.000E+00
      25     1     1     2     0     0 -6.610311556E+01  6.799838039E+01 -3.335770470E+02  3.686353861E+02  1.250000000E+02  0.00000E+00  9.000E+00
      21     1     1     2   502   511  2.603879277E+00 -3.542189691E+01 -1.227415919E+02  1.277771081E+02  0.000000000E+00  0.00000E+00  9.000E+00
#rwgt            1           1   3.4481823329466733E-002           3      289849           0
</event>
<event>
      5   9999  3.19816E-02  6.54054E+01 -1.00000E+00  1.32732E-01
      21    -1     0     0   502   501  0.000000000E+00  0.000000000E+00  6.891557340E+02  6.891557340E+02  0.000000000E+00  0.00000E+00  9.000E+00
      21    -1     0     0   501   512  0.000000000E+00  0.000000000E+00 -8.085721458E+02  8.085721458E+02  0.000000000E+00  0.00000E+00  9.000E+00
      25     1     1     2     0     0  6.174600171E+02  2.753567746E+02 -2.156554612E+02  7.205626301E+02  1.250000000E+02  0.00000E+00  9.000E+00
      25     1     1     2     0     0 -5.606537843E+02 -3.077747436E+02  1.750219677E+02  6.747708113E+02  1.250000000E+02  0.00000E+00  9.000E+00
      21     1     1     2   502   512 -5.680623281E+01  3.241796901E+01 -7.878291823E+01  1.023944384E+02  9.536743164E-07  0.00000E+00  9.000E+00
#rwgt            1           1   2.1254345171226333E-002           3      289891           0
</event>
<event>
      5   9999  3.19816E-02  1.75400E+02 -1.00000E+00  1.13763E-01
      -1    -1     0     0     0   501  0.000000000E+00  0.000000000E+00  2.842893591E+02  2.842893591E+02  0.000000000E+00  0.00000E+00  9.000E+00
      21    -1     0     0   501   502  0.000000000E+00  0.000000000E+00 -1.786596597E+03  1.786596597E+03  0.000000000E+00  0.00000E+00  9.000E+00
      25     1     1     2     0     0 -3.168989588E+02 -1.029949543E+02 -1.228814208E+02  3.765073097E+02  1.250000000E+02  0.00000E+00  9.000E+00
      25     1     1     2     0     0  4.765620754E+02  3.038005494E+01 -2.535645957E+02  5.549363600E+02  1.250000000E+02  0.00000E+00  9.000E+00
      -1     1     1     2     0   502 -1.596631166E+02  7.261489933E+01 -1.125861221E+03  1.139442286E+03  0.000000000E+00  0.00000E+00  9.000E+00
#rwgt            2           5   1.4110200147468365E-006           3      290039           0
</event>
<event>
      5   9999  3.19816E-02  3.34239E+00 -1.00000E+00  2.83316E-01
      21    -1     0     0   511   501  0.000000000E+00  0.000000000E+00  6.996634013E+02  6.996634013E+02  0.000000000E+00  0.00000E+00  9.000E+00
      21    -1     0     0   501   502  0.000000000E+00  0.000000000E+00 -2.236065607E+02  2.236065607E+02  0.000000000E+00  0.00000E+00  9.000E+00
      25     1     1     2     0     0  7.731747189E+00  3.156669132E+02  1.583166549E+00  3.396069588E+02  1.250000000E+02  0.00000E+00  9.000E+00
      25     1     1     2     0     0 -8.331868267E+00 -3.123788371E+02  4.699949773E+02  5.780745943E+02  1.250000000E+02  0.00000E+00  9.000E+00
      21     1     1     2   511   502  6.001210779E-01 -3.288076167E+00  4.478696704E+00  5.588408929E+00  0.000000000E+00  0.00000E+00  9.000E+00
#rwgt            1           1   2.6814718261056379E-002           3      290073           0
</event>
<event>
      5   9999  3.19816E-02  5.24627E+01 -1.00000E+00  1.37895E-01
      21    -1     0     0   502   501  0.000000000E+00  0.000000000E+00  1.498375044E+03  1.498375044E+03  0.000000000E+00  0.00000E+00  9.000E+00
      21    -1     0     0   512   502  0.000000000E+00  0.000000000E+00 -3.128365944E+02  3.128365944E+02  0.000000000E+00  0.00000E+00  9.000E+00
      25     1     1     2     0     0 -2.401275154E+01  1.449275338E+02 -2.884806795E+01  1.950328519E+02  1.250000000E+02  0.00000E+00  9.000E+00
      25     1     1     2     0     0  7.190858238E+01 -1.235190241E+02  1.405360722E+03  1.418129596E+03  1.250000000E+02  0.00000E+00  9.000E+00
      21     1     1     2   512   501 -4.789583084E+01 -2.140850971E+01 -1.909742044E+02  1.980491900E+02  5.394796609E-06  0.00000E+00  9.000E+00
#rwgt            1           1   2.7102189661541373E-002           3      290509           0
</event>
<event>
      5   9999  3.19816E-02  1.12054E+02 -1.00000E+00  1.21645E-01
      21    -1     0     0   511   501  0.000000000E+00  0.000000000E+00  9.860074381E+01  9.860074381E+01  0.000000000E+00  0.00000E+00  9.000E+00
      21    -1     0     0   501   502  0.000000000E+00  0.000000000E+00 -1.232507060E+03  1.232507060E+03  0.000000000E+00  0.00000E+00  9.000E+00
      25     1     1     2     0     0 -1.385911787E+02 -1.328371543E+02 -1.948459481E+02  3.007377061E+02  1.250000000E+02  0.00000E+00  9.000E+00
      25     1     1     2     0     0  7.309359260E+01  4.191826543E+01 -8.987204934E+02  9.112756660E+02  1.250000000E+02  0.00000E+00  9.000E+00
      21     1     1     2   511   502  6.549758615E+01  9.091888886E+01 -4.033987456E+01  1.190944315E+02  1.581489940E-06  0.00000E+00  9.000E+00
#rwgt            1           1   3.1632269444219284E-002           3      290633           0
</event>
<event>
      5   9999  3.19816E-02  2.91090E+01 -1.00000E+00  1.53955E-01
      21    -1     0     0   512   501  0.000000000E+00  0.000000000E+00  3.125503438E+02  3.125503438E+02  0.000000000E+00  0.00000E+00  9.000E+00
      21    -1     0     0   501   502  0.000000000E+00  0.000000000E+00 -2.249091734E+02  2.249091734E+02  0.000000000E+00  0.00000E+00  9.000E+00
      25     1     1     2     0     0  1.442790283E+02 -1.194175775E+02 -4.407213292E+01  2.294435633E+02  1.250000000E+02  0.00000E+00  9.000E+00
      25     1     1     2     0     0 -1.615546791E+02  1.428458447E+02  1.158571828E+02  2.748685804E+02  1.250000000E+02  0.00000E+00  9.000E+00
      21     1     1     2   512   502  1.727565073E+01 -2.342826723E+01  1.585612053E+01  3.314737353E+01  3.371747881E-07  0.00000E+00  9.000E+00
#rwgt            1           1   2.4916377953391741E-002           3      290751           0
</event>
<event>
      5   9999  3.19816E-02  3.55233E+01 -1.00000E+00  1.48111E-01
      21    -1     0     0   502   511  0.000000000E+00  0.000000000E+00  3.387422517E+01  3.387422517E+01  0.000000000E+00  0.00000E+00  9.000E+00
      21    -1     0     0   501   502  0.000000000E+00  0.000000000E+00 -9.630718219E+02  9.630718219E+02  0.000000000E+00  0.00000E+00  9.000E+00
      25     1     1     2     0     0  4.075188098E+00 -6.819511247E+01 -2.607722791E+02  2.971436724E+02  1.250000000E+02  0.00000E+00  9.000E+00
      25     1     1     2     0     0  2.328665176E+01  4.554036620E+01 -6.405883902E+02  6.546714281E+02  1.250000000E+02  0.00000E+00  9.000E+00
      21     1     1     2   501   511 -2.736183986E+01  2.265474627E+01 -2.783692748E+01  4.513094659E+01  3.371747881E-07  0.00000E+00  9.000E+00
#rwgt            1           1   6.1283326270163641E-002           3      290847           0
</event>
<event>
      5   9999  3.19816E-02  1.23762E+02 -1.00000E+00  1.19802E-01
       2    -1     0     0   502     0  0.000000000E+00  0.000000000E+00  1.881043277E+03  1.881043277E+03  0.000000000E+00  0.00000E+00  9.000E+00
      21    -1     0     0   501   502  0.000000000E+00  0.000000000E+00 -7.543572421E+02  7.543572421E+02  0.000000000E+00  0.00000E+00  9.000E+00
      25     1     1     2     0     0  2.781519852E+02 -1.993115724E+02  2.773875155E+02  4.578891389E+02  1.250000000E+02  0.00000E+00  9.000E+00
      25     1     1     2     0     0 -2.185095572E+02  9.086864705E+01 -6.344608478E+02  6.885993792E+02  1.250000000E+02  0.00000E+00  9.000E+00
       2     1     1     2   501     0 -5.964242796E+01  1.084429254E+02  1.483759367E+03  1.488912001E+03  2.157918644E-05  0.00000E+00  9.000E+00
#rwgt            1           1   3.0051490090932949E-002           3      290925           0
</event>
<event>
      5   9999  3.19816E-02  1.68563E+01 -1.00000E+00  1.72739E-01
      21    -1     0     0   511   501  0.000000000E+00  0.000000000E+00  6.579742413E+02  6.579742413E+02  0.000000000E+00  0.00000E+00  9.000E+00
      21    -1     0     0   501   502  0.000000000E+00  0.000000000E+00 -6.088253774E+01  6.088253774E+01  0.000000000E+00  0.00000E+00  9.000E+00
      25     1     1     2     0     0 -1.326315570E+02  1.814333404E-01  3.692373753E+02  4.117674126E+02  1.250000000E+02  0.00000E+00  9.000E+00
      25     1     1     2     0     0  1.305187682E+02 -1.690477310E+01  1.770429233E+02  2.535549584E+02  1.250000000E+02  0.00000E+00  9.000E+00
      21     1     1     2   511   502  2.112788739E+00  1.672333976E+01  5.081140493E+01  5.353440800E+01  6.743495762E-07  0.00000E+00  9.000E+00
#rwgt            1           1   2.8795173811812340E-002           3      290995           0
</event>
<event>
      5   9999  3.19816E-02  4.90550E+02 -1.00000E+00  9.90880E-02
      21    -1     0     0   512   501  0.000000000E+00  0.000000000E+00  2.494597764E+03  2.494597764E+03  0.000000000E+00  0.00000E+00  9.000E+00
      21    -1     0     0   501   502  0.000000000E+00  0.000000000E+00 -8.060701865E+02  8.060701865E+02  0.000000000E+00  0.00000E+00  9.000E+00
      25     1     1     2     0     0 -3.148773155E+02  1.296393890E+02 -5.054559765E+02  6.221453521E+02  1.250000000E+02  0.00000E+00  9.000E+00
      25     1     1     2     0     0  8.045330443E+02 -1.000388874E+02  6.154323076E+02  1.025506277E+03  1.250000000E+02  0.00000E+00  9.000E+00
      21     1     1     2   512   502 -4.896557287E+02 -2.960050157E+01  1.578551246E+03  1.653016322E+03  2.157918644E-05  0.00000E+00  9.000E+00
#rwgt            2          11   7.8235192621267169E-004           3      291170           0
</event>
<event>
      5   9999  3.19816E-02  3.36812E+02 -1.00000E+00  1.03984E-01
       2    -1     0     0   502     0  0.000000000E+00  0.000000000E+00  1.700383561E+03  1.700383561E+03  0.000000000E+00  0.00000E+00  9.000E+00
      21    -1     0     0   501   502  0.000000000E+00  0.000000000E+00 -5.557706896E+02  5.557706896E+02  0.000000000E+00  0.00000E+00  9.000E+00
      25     1     1     2     0     0 -5.923862941E+01  1.138302340E+02  5.487424554E+02  5.772432934E+02  1.250000000E+02  0.00000E+00  9.000E+00
      25     1     1     2     0     0 -2.666500306E+02 -1.989134773E+02 -4.538773075E+02  5.764533117E+02  1.250000000E+02  0.00000E+00  9.000E+00
       2     1     1     2   501     0  3.258886600E+02  8.508324325E+01  1.049747724E+03  1.102457646E+03  0.000000000E+00  0.00000E+00  9.000E+00
#rwgt            2          18   1.7329299944964269E-003           3      291265           0
</event>
<event>
      5   9999  3.19816E-02  4.05433E+01 -1.00000E+00  1.44478E-01
      21    -1     0     0   502   501  0.000000000E+00  0.000000000E+00  1.233776361E+03  1.233776361E+03  0.000000000E+00  0.00000E+00  9.000E+00
      21    -1     0     0   511   502  0.000000000E+00  0.000000000E+00 -4.799839360E+02  4.799839360E+02  0.000000000E+00  0.00000E+00  9.000E+00
      25     1     1     2     0     0  3.558896328E+02 -5.479167295E+02  2.489496985E+00  6.652077651E+02  1.250000000E+02  0.00000E+00  9.000E+00
      25     1     1     2     0     0 -3.585923839E+02  5.074636346E+02  7.753227846E+02  1.001428109E+03  1.250000000E+02  0.00000E+00  9.000E+00
      21     1     1     2   511   501  2.702751119E+00  4.045309491E+01 -2.401985606E+01  4.712442294E+01  3.371747881E-07  0.00000E+00  9.000E+00
#rwgt            1           1   3.5648506845601037E-002           3      291284           0
</event>
<event>
      5   9999  3.19816E-02  2.71230E+02 -1.00000E+00  1.07034E-01
      21    -1     0     0   502   501  0.000000000E+00  0.000000000E+00  2.231712667E+02  2.231712667E+02  0.000000000E+00  0.00000E+00  9.000E+00
       2    -1     0     0   501     0  0.000000000E+00  0.000000000E+00 -2.244589405E+03  2.244589405E+03  0.000000000E+00  0.00000E+00  9.000E+00
      25     1     1     2     0     0  4.147515655E+01  2.137205784E+02 -1.072728904E+03  1.101711839E+03  1.250000000E+02  0.00000E+00  9.000E+00
      25     1     1     2     0     0 -3.090237468E+02 -2.582546135E+02 -4.681585155E+01  4.242733146E+02  1.250000000E+02  0.00000E+00  9.000E+00
       2     1     1     2   502     0  2.675485903E+02  4.453403507E+01 -9.018733829E+02  9.417755185E+02  1.078959322E-05  0.00000E+00  9.000E+00
#rwgt            1           1   3.4874662289985127E-002           3      291418           0
</event>
<event>
      5   9999  3.19816E-02  1.05730E+02 -1.00000E+00  1.22749E-01
      21    -1     0     0   502   511  0.000000000E+00  0.000000000E+00  4.881201370E+02  4.881201370E+02  0.000000000E+00  0.00000E+00  9.000E+00
      21    -1     0     0   501   502  0.000000000E+00  0.000000000E+00 -3.251291412E+02  3.251291412E+02  0.000000000E+00  0.00000E+00  9.000E+00
      25     1     1     2     0     0 -3.232842717E+02  1.311485018E+02  6.431897198E+01  3.761310676E+02  1.250000000E+02  0.00000E+00  9.000E+00
      25     1     1     2     0     0  2.924516405E+02 -3.001418525E+01  6.364075609E+01  3.257360269E+02  1.250000000E+02  0.00000E+00  9.000E+00
      21     1     1     2   501   511  3.083263119E+01 -1.011343165E+02  3.503126777E+01  1.113821837E+02  1.168007728E-06  0.00000E+00  9.000E+00
#rwgt            2          11   3.9224095690751385E-003           3      291589           0
</event>
<event>
      5   9999  3.19816E-02  4.90487E+02 -1.00000E+00  9.90896E-02
      21    -1     0     0   502   501  0.000000000E+00  0.000000000E+00  1.020151138E+03  1.020151138E+03  0.000000000E+00  0.00000E+00  9.000E+00
       2    -1     0     0   501     0  0.000000000E+00  0.000000000E+00 -1.580366720E+03  1.580366720E+03  0.000000000E+00  0.00000E+00  9.000E+00
      25     1     1     2     0     0 -6.627615981E+02  4.895552967E+02 -2.719934473E+02  8.766542989E+02  1.250000000E+02  0.00000E+00  9.000E+00
      25     1     1     2     0     0  6.977234612E+02 -9.787949160E+02 -1.841006801E+02  1.222446554E+03  1.250000000E+02  0.00000E+00  9.000E+00
       2     1     1     2   502     0 -3.496186318E+01  4.892396193E+02 -1.041214545E+02  5.014170064E+02  6.468133910E-06  0.00000E+00  9.000E+00
#rwgt            1           1   3.1513265563655357E-002           3      291609           0
</event>
<event>
      5   9999  3.19816E-02  6.08630E+01 -1.00000E+00  1.34373E-01
      21    -1     0     0   511   501  0.000000000E+00  0.000000000E+00  7.168491818E+02  7.168491818E+02  0.000000000E+00  0.00000E+00  9.000E+00
      21    -1     0     0   501   502  0.000000000E+00  0.000000000E+00 -1.056092126E+03  1.056092126E+03  0.000000000E+00  0.00000E+00  9.000E+00
      25     1     1     2     0     0 -9.879632433E+01 -7.033630105E+02  9.336831648E+01  7.272020907E+02  1.250000000E+02  0.00000E+00  9.000E+00
      25     1     1     2     0     0  1.496524344E+02  6.699270524E+02 -5.664477833E+02  8.987136351E+02  1.250000000E+02  0.00000E+00  9.000E+00
      21     1     1     2   511   502 -5.085611007E+01  3.343595806E+01  1.338365222E+02  1.470255825E+02  2.697398305E-06  0.00000E+00  9.000E+00
#rwgt            1           1   3.4627130089835395E-002           3      291679           0
</event>
<event>
      5   9999  3.19816E-02  8.71514E+01 -1.00000E+00  1.26575E-01
      21    -1     0     0   502   512  0.000000000E+00  0.000000000E+00  4.220622247E+02  4.220622247E+02  0.000000000E+00  0.00000E+00  9.000E+00
      21    -1     0     0   501   502  0.000000000E+00  0.000000000E+00 -2.364473804E+02  2.364473804E+02  0.000000000E+00  0.00000E+00  9.000E+00
      25     1     1     2     0     0  5.684270851E+01  8.217502730E+01 -1.707614011E+02  2.340262479E+02  1.250000000E+02  0.00000E+00  9.000E+00
      25     1     1     2     0     0 -6.629692818E+01  4.462088521E+00  1.934805797E+02  2.397392910E+02  1.250000000E+02  0.00000E+00  9.000E+00
      21     1     1     2   501   512  9.454219662E+00 -8.663711582E+01  1.628956656E+02  1.847440662E+02  1.907348633E-06  0.00000E+00  9.000E+00
#rwgt            1           1   2.8907590274146886E-002           3      291743           0
</event>
<event>
      5   9999  3.19816E-02  2.10339E+02 -1.00000E+00  1.10857E-01
      21    -1     0     0   502   501  0.000000000E+00  0.000000000E+00  4.517855403E+02  4.517855403E+02  0.000000000E+00  0.00000E+00  9.000E+00
      21    -1     0     0   501   511  0.000000000E+00  0.000000000E+00 -5.545678014E+02  5.545678014E+02  0.000000000E+00  0.00000E+00  9.000E+00
      25     1     1     2     0     0  1.270561484E+02  1.784824344E+02  7.728830442E+01  2.638138098E+02  1.250000000E+02  0.00000E+00  9.000E+00
      25     1     1     2     0     0 -7.983178335E+01 -3.834515152E+02  6.862236562E+01  4.168239523E+02  1.250000000E+02  0.00000E+00  9.000E+00
      21     1     1     2   502   511 -4.722436505E+01  2.049690808E+02 -2.486929311E+02  3.257155795E+02  5.394796609E-06  0.00000E+00  9.000E+00
#rwgt            1           1   2.5708550810044334E-002           3      291801           0
</event>
<event>
      5   9999  3.19816E-02  1.28428E+01 -1.00000E+00  1.83981E-01
      21    -1     0     0   502   501  0.000000000E+00  0.000000000E+00  2.369778561E+02  2.369778561E+02  0.000000000E+00  0.00000E+00  9.000E+00
      21    -1     0     0   512   502  0.000000000E+00  0.000000000E+00 -1.183822029E+03  1.183822029E+03  0.000000000E+00  0.00000E+00  9.000E+00
      25     1     1     2     0     0  2.769037259E+02 -2.900270068E+02 -5.181272977E+01  4.232031392E+02  1.250000000E+02  0.00000E+00  9.000E+00
      25     1     1     2     0     0 -2.896712839E+02  2.886390759E+02 -8.644355426E+02  9.644147325E+02  1.250000000E+02  0.00000E+00  9.000E+00
      21     1     1     2   512   501  1.276755799E+01  1.387930894E+00 -3.059590054E+01  3.318201348E+01  3.371747881E-07  0.00000E+00  9.000E+00
#rwgt            1           1   2.4537640064219643E-002           3      291841           0
</event>
<event>
      5   9999  3.19816E-02  3.30700E+02 -1.00000E+00  1.04235E-01
       2    -1     0     0   502     0  0.000000000E+00  0.000000000E+00  7.283548300E+02  7.283548300E+02  0.000000000E+00  0.00000E+00  9.000E+00
      21    -1     0     0   501   502  0.000000000E+00  0.000000000E+00 -7.194125672E+02  7.194125672E+02  0.000000000E+00  0.00000E+00  9.000E+00
      25     1     1     2     0     0  3.650898509E+01  4.148553105E+02  3.445890741E+02  5.548012839E+02  1.250000000E+02  0.00000E+00  9.000E+00
      25     1     1     2     0     0  2.665288625E+02 -2.824522057E+02 -3.821656366E+02  5.590102475E+02  1.250000000E+02  0.00000E+00  9.000E+00
       2     1     1     2   501     0 -3.030378476E+02 -1.324031048E+02  4.651882526E+01  3.339558658E+02  3.814697266E-06  0.00000E+00  9.000E+00
#rwgt            1           1   2.6545377752086048E-002           3      292186           0
</event>
<event>
      5   9999  3.19816E-02  1.16065E+01 -1.00000E+00  1.88563E-01
      21    -1     0     0   502   511  0.000000000E+00  0.000000000E+00  2.861149025E+02  2.861149025E+02  0.000000000E+00  0.00000E+00  9.000E+00
      21    -1     0     0   501   502  0.000000000E+00  0.000000000E+00 -2.309022732E+02  2.309022732E+02  0.000000000E+00  0.00000E+00  9.000E+00
      25     1     1     2     0     0 -1.855755349E+02 -2.646459806E+01 -6.973878980E+01  2.358540924E+02  1.250000000E+02  0.00000E+00  9.000E+00
      25     1     1     2     0     0  1.882206917E+02  1.516351274E+01  8.888402384E+01  2.432741881E+02  1.250000000E+02  0.00000E+00  9.000E+00
      21     1     1     2   501   511 -2.645156784E+00  1.130108533E+01  3.606739521E+01  3.788889523E+01  6.743495762E-07  0.00000E+00  9.000E+00
#rwgt            1           1   3.4289631350252751E-002           3      292253           0
</event>
<event>
      5   9999  3.19816E-02  7.75540E+01 -1.00000E+00  1.29006E-01
      21    -1     0     0   512   501  0.000000000E+00  0.000000000E+00  2.513071533E+02  2.513071533E+02  0.000000000E+00  0.00000E+00  9.000E+00
      21    -1     0     0   501   502  0.000000000E+00  0.000000000E+00 -8.781801697E+02  8.781801697E+02  0.000000000E+00  0.00000E+00  9.000E+00
      25     1     1     2     0     0 -3.278925886E+02  2.081843419E+02 -2.701890432E+02  4.893683571E+02  1.250000000E+02  0.00000E+00  9.000E+00
      25     1     1     2     0     0  3.970438576E+02 -1.730742136E+02 -3.277051793E+02  5.573277248E+02  1.250000000E+02  0.00000E+00  9.000E+00
      21     1     1     2   512   502 -6.915126899E+01 -3.511012828E+01 -2.897879391E+01  8.279124113E+01  4.768371582E-07  0.00000E+00  9.000E+00
#rwgt            1           1   2.4471333503075929E-002           3      292485           0
</event>
<event>
      5   9999  3.19816E-02  1.71216E+01 -1.00000E+00  1.72137E-01
      21    -1     0     0   502   501  0.000000000E+00  0.000000000E+00  2.292083070E+03  2.292083070E+03  0.000000000E+00  0.00000E+00  9.000E+00
      21    -1     0     0   501   511  0.000000000E+00  0.000000000E+00 -1.563769697E+02  1.563769697E+02  0.000000000E+00  0.00000E+00  9.000E+00
      25     1     1     2     0     0 -3.039853080E+02 -2.951197461E+02  3.022568924E+02  5.352447674E+02  1.250000000E+02  0.00000E+00  9.000E+00
      25     1     1     2     0     0  3.028579422E+02  3.122041559E+02  1.840032436E+03  1.894871693E+03  1.250000000E+02  0.00000E+00  9.000E+00
      21     1     1     2   502   511  1.127365781E+00 -1.708440978E+01 -6.583227874E+00  1.834357927E+01  2.384185791E-07  0.00000E+00  9.000E+00
#rwgt            1           1   3.4542399270176410E-002           3      292572           0
</event>
<event>
      5   9999  3.19816E-02  8.20406E+00 -1.00000E+00  2.06251E-01
      21    -1     0     0   502   512  0.000000000E+00  0.000000000E+00  2.344967665E+02  2.344967665E+02  0.000000000E+00  0.00000E+00  9.000E+00
      21    -1     0     0   501   502  0.000000000E+00  0.000000000E+00 -1.594369668E+03  1.594369668E+03  0.000000000E+00  0.00000E+00  9.000E+00
      25     1     1     2     0     0  5.734883591E+00  1.301954431E+02 -7.441915681E+02  7.657870672E+02  1.250000000E+02  0.00000E+00  9.000E+00
      25     1     1     2     0     0 -1.060389628E-01 -1.242269704E+02 -8.300509374E+02  8.485528329E+02  1.250000000E+02  0.00000E+00  9.000E+00
      21     1     1     2   501   512 -5.628844628E+00 -5.968472737E+00  2.143696043E+02  2.145265341E+02  8.529922400E-06  0.00000E+00  9.000E+00
#rwgt            1           1   2.8856666753374668E-002           3      292744           0
</event>
<event>
      5   9999  3.19816E-02  6.76256E+01 -1.00000E+00  1.31984E-01
      21    -1     0     0   502   501  0.000000000E+00  0.000000000E+00  1.082750266E+02  1.082750266E+02  0.000000000E+00  0.00000E+00  9.000E+00
      21    -1     0     0   511   502  0.000000000E+00  0.000000000E+00 -1.142367274E+03  1.142367274E+03  0.000000000E+00  0.00000E+00  9.000E+00
      25     1     1     2     0     0 -5.934074755E+01  1.904974940E+02 -2.660259318E+02  3.552540161E+02  1.250000000E+02  0.00000E+00  9.000E+00
      25     1     1     2     0     0  8.221961871E+01 -1.268596114E+02 -9.325671780E+01  2.171986237E+02  1.250000000E+02  0.00000E+00  9.000E+00
      21     1     1     2   511   501 -2.287887116E+01 -6.363788253E+01 -6.748095981E+02  6.781896612E+02  7.629394531E-06  0.00000E+00  9.000E+00
#rwgt            1           1   2.9281445382069320E-002           3      293019           0
</event>
<event>
      5   9999  3.19816E-02  5.42210E+01 -1.00000E+00  1.37097E-01
       2    -1     0     0   502     0  0.000000000E+00  0.000000000E+00  1.351052469E+03  1.351052469E+03  0.000000000E+00  0.00000E+00  9.000E+00
      21    -1     0     0   501   502  0.000000000E+00  0.000000000E+00 -1.001215427E+02  1.001215427E+02  0.000000000E+00  0.00000E+00  9.000E+00
      25     1     1     2     0     0 -6.834565156E+01  1.111780588E+02  7.231182661E+01  1.946424648E+02  1.250000000E+02  0.00000E+00  9.000E+00
      25     1     1     2     0     0  4.334890712E+01 -6.306284029E+01  1.020371641E+02  1.785850846E+02  1.250000000E+02  0.00000E+00  9.000E+00
       2     1     1     2   501     0  2.499674444E+01 -4.811521852E+01  1.076581935E+03  1.077946462E+03  1.525878906E-05  0.00000E+00  9.000E+00
#rwgt            1           1   2.8415685746620217E-002           3      293084           0
</event>
<event>
      5   9999  3.19816E-02  1.28906E+02 -1.00000E+00  1.19063E-01
      21    -1     0     0   511   501  0.000000000E+00  0.000000000E+00  2.022875007E+03  2.022875007E+03  0.000000000E+00  0.00000E+00  9.000E+00
      21    -1     0     0   501   502  0.000000000E+00  0.000000000E+00 -5.618184906E+01  5.618184906E+01  0.000000000E+00  0.00000E+00  9.000E+00
      25     1     1     2     0     0  9.790258777E+01  2.684637445E+01  3.428692729E+02  3.788007165E+02  1.250000000E+02  0.00000E+00  9.000E+00
      25     1     1     2     0     0 -1.265744401E+02  9.883014950E+01  2.591277319E+02  3.294854607E+02  1.250000000E+02  0.00000E+00  9.000E+00
      21     1     1     2   511   502  2.867185237E+01 -1.256765240E+02  1.364696154E+03  1.370770679E+03  0.000000000E+00  0.00000E+00  9.000E+00
#rwgt            1           1   2.3325247398509264E-002           3      293211           0
</event>
<event>
      5   9999  3.19816E-02  9.79606E+01 -1.00000E+00  1.24232E-01
      21    -1     0     0   502   501  0.000000000E+00  0.000000000E+00  1.265897215E+03  1.265897215E+03  0.000000000E+00  0.00000E+00  9.000E+00
      21    -1     0     0   501   512  0.000000000E+00  0.000000000E+00 -1.360146998E+03  1.360146998E+03  0.000000000E+00  0.00000E+00  9.000E+00
      25     1     1     2     0     0  6.453240137E+02 -1.391346833E+02 -1.069041829E+02  6.803345111E+02  1.250000000E+02  0.00000E+00  9.000E+00
      25     1     1     2     0     0 -6.522481113E+02  4.141912984E+01  8.629990760E+02  1.089741046E+03  1.250000000E+02  0.00000E+00  9.000E+00
      21     1     1     2   502   512  6.924097612E+00  9.771555343E+01 -8.503446760E+02  8.559686563E+02  0.000000000E+00  0.00000E+00  9.000E+00
#rwgt            1           1   3.1052344349609795E-002           3      293253           0
</event>
<event>
      5   9999  3.19816E-02  8.11589E+01 -1.00000E+00  1.28048E-01
      21    -1     0     0   502   501  0.000000000E+00  0.000000000E+00  8.477890492E+02  8.477890492E+02  0.000000000E+00  0.00000E+00  9.000E+00
      21    -1     0     0   501   511  0.000000000E+00  0.000000000E+00 -1.389075185E+03  1.389075185E+03  0.000000000E+00  0.00000E+00  9.000E+00
      25     1     1     2     0     0 -1.180540440E+02 -4.049177086E+02  3.485313404E+02  5.612434439E+02  1.250000000E+02  0.00000E+00  9.000E+00
      25     1     1     2     0     0  1.605077769E+02  3.357480469E+02  2.931012246E+02  4.899212440E+02  1.250000000E+02  0.00000E+00  9.000E+00
      21     1     1     2   502   511 -4.245373288E+01  6.916966167E+01 -1.182918701E+03  1.185699546E+03  0.000000000E+00  0.00000E+00  9.000E+00
#rwgt            1           1   2.8934471976897521E-002           3      293344           0
</event>
<event>
      5   9999  3.19816E-02  1.77510E+02 -1.00000E+00  1.13567E-01
      21    -1     0     0   502   512  0.000000000E+00  0.000000000E+00  4.461431720E+02  4.461431720E+02  0.000000000E+00  0.00000E+00  9.000E+00
      21    -1     0     0   501   502  0.000000000E+00  0.000000000E+00 -1.158486407E+03  1.158486407E+03  0.000000000E+00  0.00000E+00  9.000E+00
      25     1     1     2     0     0 -4.256310735E+02 -2.756962674E+02 -5.840164093E+02  7.834988251E+02  1.250000000E+02  0.00000E+00  9.000E+00
      25     1     1     2     0     0  4.301789527E+02  9.824499439E+01 -3.205078014E+02  5.595143081E+02  1.250000000E+02  0.00000E+00  9.000E+00
      21     1     1     2   501   512 -4.547879254E+00  1.774512730E+02  1.921809755E+02  2.616164460E+02  7.629394531E-06  0.00000E+00  9.000E+00
#rwgt            2          11   4.1340880570288003E-003           3      293425           0
</event>
<event>
      5   9999  3.19816E-02  1.22302E+02 -1.00000E+00  1.20019E-01
      21    -1     0     0   511   501  0.000000000E+00  0.000000000E+00  6.567519020E+02  6.567519020E+02  0.000000000E+00  0.00000E+00  9.000E+00
      21    -1     0     0   501   502  0.000000000E+00  0.000000000E+00 -4.246365470E+02  4.246365470E+02  0.000000000E+00  0.00000E+00  9.000E+00
      25     1     1     2     0     0 -5.662510277E+01  2.755223415E+02 -1.379403511E+02  3.373003164E+02  1.250000000E+02  0.00000E+00  9.000E+00
      25     1     1     2     0     0  8.249903175E+01 -3.950559738E+02  8.095078880E+01  4.301782687E+02  1.250000000E+02  0.00000E+00  9.000E+00
      21     1     1     2   511   502 -2.587392898E+01  1.195336323E+02  2.891049173E+02  3.139098639E+02  5.394796609E-06  0.00000E+00  9.000E+00
#rwgt            1           1   3.4028244561827070E-002           3      293460           0
</event>
<event>
      5   9999  3.19816E-02  5.01901E+01 -1.00000E+00  1.38982E-01
      21    -1     0     0   512   501  0.000000000E+00  0.000000000E+00  9.440976062E+01  9.440976062E+01  0.000000000E+00  0.00000E+00  9.000E+00
      21    -1     0     0   501   502  0.000000000E+00  0.000000000E+00 -1.455458022E+03  1.455458022E+03  0.000000000E+00  0.00000E+00  9.000E+00
      25     1     1     2     0     0  2.920081601E+02  2.779068886E+01 -4.341085013E+02  5.386244321E+02  1.250000000E+02  0.00000E+00  9.000E+00
      25     1     1     2     0     0 -2.875157077E+02 -7.777931270E+01 -8.956028214E+02  9.520736932E+02  1.250000000E+02  0.00000E+00  9.000E+00
      21     1     1     2   512   502 -4.492452434E+00  4.998862384E+01 -3.133693912E+01  5.916965773E+01  1.261592536E-06  0.00000E+00  9.000E+00
#rwgt            1           1   2.6126560976214158E-002           3      293532           0
</event>
<event>
      5   9999  3.19816E-02  3.84059E+01 -1.00000E+00  1.45944E-01
       1    -1     0     0   502     0  0.000000000E+00  0.000000000E+00  1.240954291E+03  1.240954291E+03  0.000000000E+00  0.00000E+00  9.000E+00
      21    -1     0     0   501   502  0.000000000E+00  0.000000000E+00 -2.529105594E+02  2.529105594E+02  0.000000000E+00  0.00000E+00  9.000E+00
      25     1     1     2     0     0  1.145536782E+02  3.525970981E+02  2.745163764E+02  4.779450802E+02  1.250000000E+02  0.00000E+00  9.000E+00
      25     1     1     2     0     0 -9.459552043E+01 -3.854099286E+02  1.368979040E+02  4.380127415E+02  1.250000000E+02  0.00000E+00  9.000E+00
       1     1     1     2   501     0 -1.995815773E+01  3.281283057E+01  5.766294507E+02  5.779070283E+02  7.629394531E-06  0.00000E+00  9.000E+00
#rwgt            1           1   2.9860834062758086E-002           3      293634           0
</event>
<event>
      5   9999  3.19816E-02  5.24131E+01 -1.00000E+00  1.37918E-01
      21    -1     0     0   502   501  0.000000000E+00  0.000000000E+00  1.521892458E+03  1.521892458E+03  0.000000000E+00  0.00000E+00  9.000E+00
       2    -1     0     0   501     0  0.000000000E+00  0.000000000E+00 -6.003085980E+02  6.003085980E+02  0.000000000E+00  0.00000E+00  9.000E+00
      25     1     1     2     0     0  4.041551848E+02 -4.703246920E+02  1.103443840E+03  1.271911961E+03  1.250000000E+02  0.00000E+00  9.000E+00
      25     1     1     2     0     0 -3.520182546E+02  4.649511808E+02  6.312959334E+01  5.997556149E+02  1.250000000E+02  0.00000E+00  9.000E+00
       2     1     1     2   502     0 -5.213693014E+01  5.373511258E+00 -2.449895726E+02  2.505334804E+02  2.697398305E-06  0.00000E+00  9.000E+00
#rwgt            1           1   3.0858581516748907E-002           3      293798           0
</event>
<event>
      5   9999  3.19816E-02  8.24701E+01 -1.00000E+00  1.27714E-01
      21    -1     0     0   502   511  0.000000000E+00  0.000000000E+00  2.439511784E+02  2.439511784E+02  0.000000000E+00  0.00000E+00  9.000E+00
      21    -1     0     0   501   502  0.000000000E+00  0.000000000E+00 -4.306021786E+02  4.306021786E+02  0.000000000E+00  0.00000E+00  9.000E+00
      25     1     1     2     0     0 -9.237658087E+01  1.087947055E+02 -3.192047060E+02  3.713305334E+02  1.250000000E+02  0.00000E+00  9.000E+00
      25     1     1     2     0     0  1.449392244E+01 -1.359168470E+02  1.176103680E+02  2.194098032E+02  1.250000000E+02  0.00000E+00  9.000E+00
      21     1     1     2   501   511  7.788265843E+01  2.712214154E+01  1.494333777E+01  8.381302040E+01  8.920806376E-07  0.00000E+00  9.000E+00
#rwgt            1           1   2.7989590661933954E-002           3      293970           0
</event>
<event>
      5   9999  3.19816E-02  1.53540E+02 -1.00000E+00  1.15994E-01
      21    -1     0     0   502   501  0.000000000E+00  0.000000000E+00  1.288016372E+02  1.288016372E+02  0.000000000E+00  0.00000E+00  9.000E+00
       2    -1     0     0   501     0  0.000000000E+00  0.000000000E+00 -1.439426434E+03  1.439426434E+03  0.000000000E+00  0.00000E+00  9.000E+00
      25     1     1     2     0     0 -2.373961995E+02  1.289602797E+02 -5.507670609E+02  6.260647448E+02  1.250000000E+02  0.00000E+00  9.000E+00
      25     1     1     2     0     0  3.777725293E+02 -6.675928928E+01 -5.470195546E+02  6.797236789E+02  1.250000000E+02  0.00000E+00  9.000E+00
       2     1     1     2   502     0 -1.403763298E+02 -6.220099039E+01 -2.128381812E+02  2.624396474E+02  2.697398305E-06  0.00000E+00  9.000E+00
#rwgt            1           1   2.1588936866485997E-002           3      294021           0
</event>
<event>
      5   9999  3.19816E-02  1.16125E+01 -1.00000E+00  1.88540E-01
      21    -1     0     0   502   501  0.000000000E+00  0.000000000E+00  4.631126902E+02  4.631126902E+02  0.000000000E+00  0.00000E+00  9.000E+00
      21    -1     0     0   511   502  0.000000000E+00  0.000000000E+00 -2.729017094E+02  2.729017094E+02  0.000000000E+00  0.00000E+00  9.000E+00
      25     1     1     2     0     0  1.485344353E+02 -2.669039722E+02 -2.420714333E+01  3.309247568E+02  1.250000000E+02  0.00000E+00  9.000E+00
      25     1     1     2     0     0 -1.427374755E+02  2.568419327E+02  2.239830881E+02  3.900451116E+02  1.250000000E+02  0.00000E+00  9.000E+00
      21     1     1     2   511   501 -5.796959738E+00  1.006203948E+01 -9.564964058E+00  1.504453117E+01  1.192092896E-07  0.00000E+00  9.000E+00
#rwgt            1           1   2.9839439240523565E-002           3      294061           0
</event>
<event>
      5   9999  3.19816E-02  2.19683E+01 -1.00000E+00  1.63074E-01
      21    -1     0     0   502   501  0.000000000E+00  0.000000000E+00  6.608060677E+01  6.608060677E+01  0.000000000E+00  0.00000E+00  9.000E+00
      21    -1     0     0   501   512  0.000000000E+00  0.000000000E+00 -5.324625911E+02  5.324625911E+02  0.000000000E+00  0.00000E+00  9.000E+00
      25     1     1     2     0     0  9.218346085E+00 -1.189546893E+02 -2.815931938E+02  3.303860209E+02  1.250000000E+02  0.00000E+00  9.000E+00
      25     1     1     2     0     0 -2.859416041E+01  1.086016832E+02 -1.417702139E+02  2.198539177E+02  1.250000000E+02  0.00000E+00  9.000E+00
      21     1     1     2   502   512  1.937581432E+01  1.035300610E+01 -4.301857666E+01  4.830325924E+01  0.000000000E+00  0.00000E+00  9.000E+00
#rwgt            1           1   3.1579428817240573E-002           3      294197           0
</event>
<event>
      5   9999  3.19816E-02  1.80068E+02 -1.00000E+00  1.13333E-01
      21    -1     0     0   502   501  0.000000000E+00  0.000000000E+00  1.324205895E+02  1.324205895E+02  0.000000000E+00  0.00000E+00  9.000E+00
       2    -1     0     0   501     0  0.000000000E+00  0.000000000E+00 -1.871830874E+03  1.871830874E+03  0.000000000E+00  0.00000E+00  9.000E+00
      25     1     1     2     0     0 -3.256542096E+02 -9.784066529E+01 -1.948667314E+02  4.113654131E+02  1.250000000E+02  0.00000E+00  9.000E+00
      25     1     1     2     0     0  1.555841984E+02  3.867433654E+01 -9.576619503E+02  9.790013065E+02  1.250000000E+02  0.00000E+00  9.000E+00
       2     1     1     2   502     0  1.700700113E+02  5.916632875E+01 -5.868816031E+02  6.138847442E+02  7.629394531E-06  0.00000E+00  9.000E+00
#rwgt            1           1   2.9279263675464660E-002           3      294337           0
</event>
<event>
      5   9999  3.19816E-02  5.42494E+01 -1.00000E+00  1.37084E-01
      21    -1     0     0   502   501  0.000000000E+00  0.000000000E+00  3.779965961E+02  3.779965961E+02  0.000000000E+00  0.00000E+00  9.000E+00
      21    -1     0     0   511   502  0.000000000E+00  0.000000000E+00 -3.248258706E+02  3.248258706E+02  0.000000000E+00  0.00000E+00  9.000E+00
      25     1     1     2     0     0  1.154725089E+02 -4.488942065E+01  3.093638671E+02  3.559212871E+02  1.250000000E+02  0.00000E+00  9.000E+00
      25     1     1     2     0     0 -6.190170067E+01  3.633587907E+01 -2.546672440E+02  2.926303501E+02  1.250000000E+02  0.00000E+00  9.000E+00
      21     1     1     2   511   501 -5.357080822E+01  8.553541581E+00 -1.525897580E+00  5.427082946E+01  6.222907608E-07  0.00000E+00  9.000E+00
#rwgt            1           1   2.4706213242208522E-002           3      294401           0
</event>
<event>
      5   9999  3.19816E-02  4.65427E+01 -1.00000E+00  1.40875E-01
      21    -1     0     0   502   501  0.000000000E+00  0.000000000E+00  3.101266847E+02  3.101266847E+02  0.000000000E+00  0.00000E+00  9.000E+00
      21    -1     0     0   512   502  0.000000000E+00  0.000000000E+00 -1.627994841E+03  1.627994841E+03  0.000000000E+00  0.00000E+00  9.000E+00
      25     1     1     2     0     0 -6.274032891E+02  1.178728883E+02 -2.846088401E+02  7.100395037E+02  1.250000000E+02  0.00000E+00  9.000E+00
      25     1     1     2     0     0  5.881651342E+02 -9.284101919E+01 -8.952032686E+02  1.082391598E+03  1.250000000E+02  0.00000E+00  9.000E+00
      21     1     1     2   512   501  3.923815486E+01 -2.503186912E+01 -1.380560479E+02  1.456904239E+02  2.697398305E-06  0.00000E+00  9.000E+00
#rwgt            1           1   3.0199140970940785E-002           3      294508           0
</event>
<event>
      5   9999  3.19816E-02  1.17351E+01 -1.00000E+00  1.88053E-01
      21    -1     0     0   502   501  0.000000000E+00  0.000000000E+00  1.800015958E+02  1.800015958E+02  0.000000000E+00  0.00000E+00  9.000E+00
       1    -1     0     0   501     0  0.000000000E+00  0.000000000E+00 -1.511909285E+03  1.511909285E+03  0.000000000E+00  0.00000E+00  9.000E+00
      25     1     1     2     0     0  1.025575229E+02  4.237447896E+01 -2.902639975E+02  3.349504892E+02  1.250000000E+02  0.00000E+00  9.000E+00
      25     1     1     2     0     0 -1.142290363E+02 -4.359414564E+01  1.091382573E+02  2.061186102E+02  1.250000000E+02  0.00000E+00  9.000E+00
       1     1     1     2   502     0  1.167151341E+01  1.219666686E+00 -1.150781949E+03  1.150841781E+03  0.000000000E+00  0.00000E+00  9.000E+00
#rwgt            1           1   2.6370267967598768E-002           3      294631           0
</event>
<event>
      5   9999  3.19816E-02  1.51025E+03 -1.00000E+00  8.68898E-02
       2    -1     0     0   502     0  0.000000000E+00  0.000000000E+00  3.702694118E+03  3.702694118E+03  0.000000000E+00  0.00000E+00  9.000E+00
      21    -1     0     0   501   502  0.000000000E+00  0.000000000E+00 -7.164804434E+02  7.164804434E+02  0.000000000E+00  0.00000E+00  9.000E+00
      25     1     1     2     0     0  3.745824165E+02 -9.148830133E+02  7.554313717E+02  1.250449708E+03  1.250000000E+02  0.00000E+00  9.000E+00
      25     1     1     2     0     0  6.092904091E+02 -2.309164898E+02  1.090003470E+03  1.276044589E+03  1.250000000E+02  0.00000E+00  9.000E+00
       2     1     1     2   501     0 -9.838728256E+02  1.145799503E+03  1.140778832E+03  1.892680264E+03  3.051757812E-05  0.00000E+00  9.000E+00
#rwgt            2          18   4.5165871509434969E-004           3      294996           0
</event>
<event>
      5   9999  3.19816E-02  2.58898E+01 -1.00000E+00  1.57622E-01
      21    -1     0     0   502   501  0.000000000E+00  0.000000000E+00  4.810389768E+01  4.810389768E+01  0.000000000E+00  0.00000E+00  9.000E+00
      21    -1     0     0   511   502  0.000000000E+00  0.000000000E+00 -1.291310917E+03  1.291310917E+03  0.000000000E+00  0.00000E+00  9.000E+00
      25     1     1     2     0     0 -7.941038731E+00  2.340927366E+01 -9.336658584E+02  9.423205342E+02  1.250000000E+02  0.00000E+00  9.000E+00
      25     1     1     2     0     0 -1.768402051E+01 -1.971653636E+01 -5.150913701E+01  1.377666781E+02  1.250000000E+02  0.00000E+00  9.000E+00
      21     1     1     2   511   501  2.562505924E+01 -3.692737301E+00 -2.580320241E+02  2.593276026E+02  5.394796609E-06  0.00000E+00  9.000E+00
#rwgt            1           1   2.8593669195147324E-002           3      295015           0
</event>
<event>
      5   9999  3.43621E-02  4.00167E+01 -1.00000E+00  1.44829E-01
      21    -1     0     0   502   501  0.000000000E+00  0.000000000E+00  1.941399211E+03  1.941399211E+03  0.000000000E+00  0.00000E+00  9.000E+00
      21    -1     0     0   501   512  0.000000000E+00  0.000000000E+00 -1.616379504E+01  1.616379504E+01  0.000000000E+00  0.00000E+00  9.000E+00
      25     1     1     2     0     0  2.413287246E+01  5.118334701E+01  4.502440430E+02  4.706876128E+02  1.250000000E+02  0.00000E+00  9.000E+00
      25     1     1     2     0     0 -2.327488765E+01 -1.117581235E+01  1.340336551E+03  1.346400271E+03  1.250000000E+02  0.00000E+00  9.000E+00
      21     1     1     2   502   512 -8.579848135E-01 -4.000753466E+01  1.346548217E+02  1.404751223E+02  0.000000000E+00  0.00000E+00  9.000E+00
#rwgt            1           1  0.17252657040602951                3      295135           0
</event>
<event>
      5   9999  3.19816E-02  4.25499E+01 -1.00000E+00  1.43195E-01
      21    -1     0     0   502   501  0.000000000E+00  0.000000000E+00  4.559146656E+02  4.559146656E+02  0.000000000E+00  0.00000E+00  9.000E+00
      21    -1     0     0   511   502  0.000000000E+00  0.000000000E+00 -9.682183894E+02  9.682183894E+02  0.000000000E+00  0.00000E+00  9.000E+00
      25     1     1     2     0     0  1.559593349E+02 -5.349132699E+01  1.011230704E+02  2.302944020E+02  1.250000000E+02  0.00000E+00  9.000E+00
      25     1     1     2     0     0 -1.555645521E+02  1.094329915E+01  2.552123275E+02  3.241580136E+02  1.250000000E+02  0.00000E+00  9.000E+00
      21     1     1     2   511   501 -3.947828133E-01  4.254802783E+01 -8.686391218E+02  8.696806393E+02  0.000000000E+00  0.00000E+00  9.000E+00
#rwgt            1           1   2.5594274637179476E-002           3      295203           0
</event>
<event>
      5   9999  3.19816E-02  3.70386E+01 -1.00000E+00  1.46943E-01
      21    -1     0     0   502   501  0.000000000E+00  0.000000000E+00  5.648093761E+02  5.648093761E+02  0.000000000E+00  0.00000E+00  9.000E+00
      21    -1     0     0   512   502  0.000000000E+00  0.000000000E+00 -1.922898134E+02  1.922898134E+02  0.000000000E+00  0.00000E+00  9.000E+00
      25     1     1     2     0     0  5.861464694E+00  2.343559790E+02  3.307063129E+02  4.242036622E+02  1.250000000E+02  0.00000E+00  9.000E+00
      25     1     1     2     0     0  1.640588074E+01 -2.047582352E+02  1.028254120E+02  2.615208465E+02  1.250000000E+02  0.00000E+00  9.000E+00
      21     1     1     2   512   501 -2.226734544E+01 -2.959774377E+01 -6.101216222E+01  7.137468072E+01  1.507891493E-06  0.00000E+00  9.000E+00
#rwgt            1           1   3.3434353996575350E-002           3      295272           0
</event>
<event>
      5   9999  3.19816E-02  7.09082E+01 -1.00000E+00  1.30938E-01
       2    -1     0     0   502     0  0.000000000E+00  0.000000000E+00  1.629759301E+03  1.629759301E+03  0.000000000E+00  0.00000E+00  9.000E+00
      21    -1     0     0   501   502  0.000000000E+00  0.000000000E+00 -7.421269947E+02  7.421269947E+02  0.000000000E+00  0.00000E+00  9.000E+00
      25     1     1     2     0     0  2.701731909E+02 -1.472132090E+02 -1.634277894E+00  3.321038284E+02  1.250000000E+02  0.00000E+00  9.000E+00
      25     1     1     2     0     0 -2.321177503E+02  8.738216124E+01 -5.408044549E+02  6.079545629E+02  1.250000000E+02  0.00000E+00  9.000E+00
       2     1     1     2   501     0 -3.805544056E+01  5.983104775E+01  1.430071039E+03  1.431827904E+03  0.000000000E+00  0.00000E+00  9.000E+00
#rwgt            1           1   2.7220989038567026E-002           3      295436           0
</event>
<event>
      5   9999  3.19816E-02  8.02145E+01 -1.00000E+00  1.28293E-01
      21    -1     0     0   502   501  0.000000000E+00  0.000000000E+00  3.039372832E+02  3.039372832E+02  0.000000000E+00  0.00000E+00  9.000E+00
       3    -1     0     0   501     0  0.000000000E+00  0.000000000E+00 -2.419890205E+03  2.419890205E+03  0.000000000E+00  0.00000E+00  9.000E+00
      25     1     1     2     0     0 -2.709197686E+02  4.904057601E+01 -1.839251279E+01  3.029286775E+02  1.250000000E+02  0.00000E+00  9.000E+00
      25     1     1     2     0     0  2.078969920E+02 -9.866416689E+01  5.437841251E+01  2.674654909E+02  1.250000000E+02  0.00000E+00  9.000E+00
       3     1     1     2   502     0  6.302277665E+01  4.962359088E+01 -2.151938822E+03  2.153433320E+03  0.000000000E+00  0.00000E+00  9.000E+00
#rwgt            1           1   2.8214815886246612E-002           3      295526           0
</event>
<event>
      5   9999  3.19816E-02  4.84091E+01 -1.00000E+00  1.39882E-01
      21    -1     0     0   502   501  0.000000000E+00  0.000000000E+00  1.845160715E+03  1.845160715E+03  0.000000000E+00  0.00000E+00  9.000E+00
      21    -1     0     0   511   502  0.000000000E+00  0.000000000E+00 -9.459635663E+02  9.459635663E+02  0.000000000E+00  0.00000E+00  9.000E+00
      25     1     1     2     0     0 -1.065734182E+03 -5.697142913E+02  5.387131651E+01  1.216096558E+03  1.250000000E+02  0.00000E+00  9.000E+00
      25     1     1     2     0     0  1.096333774E+03  6.072256544E+02  8.592380258E+02  1.524659216E+03  1.250000000E+02  0.00000E+00  9.000E+00
      21     1     1     2   511   501 -3.059959159E+01 -3.751136309E+01 -1.391219375E+01  5.036850704E+01  6.951036328E-07  0.00000E+00  9.000E+00
#rwgt            2          11   2.1622475107955379E-002           3      295641           0
</event>
<event>
      5   9999  3.19816E-02  1.85090E+01 -1.00000E+00  1.69194E-01
      21    -1     0     0   502   501  0.000000000E+00  0.000000000E+00  2.184942994E+03  2.184942994E+03  0.000000000E+00  0.00000E+00  9.000E+00
      21    -1     0     0   501   512  0.000000000E+00  0.000000000E+00 -2.844955103E+02  2.844955103E+02  0.000000000E+00  0.00000E+00  9.000E+00
      25     1     1     2     0     0 -1.870824543E+02  5.244737995E+02  2.067675977E+02  6.070011949E+02  1.250000000E+02  0.00000E+00  9.000E+00
      25     1     1     2     0     0  1.835939683E+02 -5.426510315E+02  1.727273552E+03  1.824082183E+03  1.250000000E+02  0.00000E+00  9.000E+00
      21     1     1     2   502   512  3.488485988E+00  1.817723193E+01 -3.359366621E+01  3.835512618E+01  6.743495762E-07  0.00000E+00  9.000E+00
#rwgt            1           1   2.7647993096172111E-002           3      295676           0
</event>
<event>
      5   9999  3.19816E-02  8.44490E+01 -1.00000E+00  1.27222E-01
      21    -1     0     0   502   501  0.000000000E+00  0.000000000E+00  1.114514503E+03  1.114514503E+03  0.000000000E+00  0.00000E+00  9.000E+00
      21    -1     0     0   501   511  0.000000000E+00  0.000000000E+00 -1.787190058E+02  1.787190058E+02  0.000000000E+00  0.00000E+00  9.000E+00
      25     1     1     2     0     0  3.782748876E+02 -9.251647450E+01  2.989632053E+02  5.066114752E+02  1.250000000E+02  0.00000E+00  9.000E+00
      25     1     1     2     0     0 -2.949430510E+02  1.062072198E+02  6.115137627E+02  6.984593466E+02  1.250000000E+02  0.00000E+00  9.000E+00
      21     1     1     2   502   511 -8.333183659E+01 -1.369074529E+01  2.531852951E+01  8.816268730E+01  2.384185791E-06  0.00000E+00  9.000E+00
#rwgt            1           1   2.9559942941464815E-002           3      295848           0
</event>
<event>
      5   9999  3.19816E-02  7.56583E+01 -1.00000E+00  1.29533E-01
      21    -1     0     0   512   501  0.000000000E+00  0.000000000E+00  5.190764338E+02  5.190764338E+02  0.000000000E+00  0.00000E+00  9.000E+00
      21    -1     0     0   501   502  0.000000000E+00  0.000000000E+00 -3.636303598E+02  3.636303598E+02  0.000000000E+00  0.00000E+00  9.000E+00
      25     1     1     2     0     0 -3.366768394E+02  4.610804415E+01  1.539715094E+02  3.934583480E+02  1.250000000E+02  0.00000E+00  9.000E+00
      25     1     1     2     0     0  3.454680531E+02 -1.212538552E+02 -6.033007014E+01  3.915550925E+02  1.250000000E+02  0.00000E+00  9.000E+00
      21     1     1     2   512   502 -8.791213757E+00  7.514581104E+01  6.180463473E+01  9.769335305E+01  6.743495762E-07  0.00000E+00  9.000E+00
#rwgt            1           1   3.1525935240952110E-002           3      295949           0
</event>
<event>
      5   9999  3.19816E-02  1.07859E+02 -1.00000E+00  1.22368E-01
      21    -1     0     0   502   511  0.000000000E+00  0.000000000E+00  2.764852458E+02  2.764852458E+02  0.000000000E+00  0.00000E+00  9.000E+00
      21    -1     0     0   501   502  0.000000000E+00  0.000000000E+00 -4.120238807E+02  4.120238807E+02  0.000000000E+00  0.00000E+00  9.000E+00
      25     1     1     2     0     0  1.342329871E+00 -1.894802103E+02 -3.347172983E+01  2.294556790E+02  1.250000000E+02  0.00000E+00  9.000E+00
      25     1     1     2     0     0 -1.066052931E+02  1.659600624E+02 -2.044242622E+02  3.103573905E+02  1.250000000E+02  0.00000E+00  9.000E+00
      21     1     1     2   501   511  1.052629633E+02  2.352014790E+01  1.023573571E+02  1.486960570E+02  2.336015456E-06  0.00000E+00  9.000E+00
#rwgt            1           1   2.7378113707656224E-002           3      296029           0
</event>
<event>
      5   9999  3.19816E-02  2.11374E+01 -1.00000E+00  1.64411E-01
      21    -1     0     0   512   501  0.000000000E+00  0.000000000E+00  1.594114322E+03  1.594114322E+03  0.000000000E+00  0.00000E+00  9.000E+00
      21    -1     0     0   501   502  0.000000000E+00  0.000000000E+00 -4.626537813E+01  4.626537813E+01  0.000000000E+00  0.00000E+00  9.000E+00
      25     1     1     2     0     0 -3.792847011E+01  1.664426435E+02  4.484781280E+02  4.958823991E+02  1.250000000E+02  0.00000E+00  9.000E+00
      25     1     1     2     0     0  4.988103808E+01 -1.838760735E+02  5.582639978E+02  6.029777936E+02  1.250000000E+02  0.00000E+00  9.000E+00
      21     1     1     2   512   502 -1.195256797E+01  1.743342997E+01  5.411068179E+02  5.415195072E+02  1.321449896E-05  0.00000E+00  9.000E+00
#rwgt            1           1   2.7609875655357111E-002           3      296116           0
</event>
<event>
      5   9999  3.19816E-02  9.19385E+01 -1.00000E+00  1.25492E-01
      21    -1     0     0   502   501  0.000000000E+00  0.000000000E+00  1.619930740E+03  1.619930740E+03  0.000000000E+00  0.00000E+00  9.000E+00
      21    -1     0     0   501   511  0.000000000E+00  0.000000000E+00 -1.934784902E+02  1.934784902E+02  0.000000000E+00  0.00000E+00  9.000E+00
      25     1     1     2     0     0  2.805495670E+02 -3.445820179E+02  4.686740244E+02  6.578184915E+02  1.250000000E+02  0.00000E+00  9.000E+00
      25     1     1     2     0     0 -3.089207590E+02  4.320335183E+02  8.786969531E+02  1.034320227E+03  1.250000000E+02  0.00000E+00  9.000E+00
      21     1     1     2   502   511  2.837119204E+01 -8.745150036E+01  7.908127249E+01  1.212705121E+02  1.348699152E-06  0.00000E+00  9.000E+00
#rwgt            1           1   2.5490560781383679E-002           3      296264           0
</event>
<event>
      5   9999  3.19816E-02  1.08520E+01 -1.00000E+00  1.91740E-01
      21    -1     0     0   502   501  0.000000000E+00  0.000000000E+00  8.336234744E+02  8.336234744E+02  0.000000000E+00  0.00000E+00  9.000E+00
      21    -1     0     0   512   502  0.000000000E+00  0.000000000E+00 -2.536279811E+02  2.536279811E+02  0.000000000E+00  0.00000E+00  9.000E+00
      25     1     1     2     0     0  2.235415386E+02  2.819213765E+02  2.806689132E+02  4.731284401E+02  1.250000000E+02  0.00000E+00  9.000E+00
      25     1     1     2     0     0 -2.325000812E+02 -2.880459398E+02  3.726947635E+02  5.399566074E+02  1.250000000E+02  0.00000E+00  9.000E+00
      21     1     1     2   512   501  8.958542591E+00  6.124563315E+00 -7.336818326E+01  7.416640800E+01  1.651812370E-06  0.00000E+00  9.000E+00
#rwgt            1           1   1.6642835841325792E-002           3      296425           0
</event>
<event>
      5   9999  3.19816E-02  4.70336E+01 -1.00000E+00  1.40608E-01
      21    -1     0     0   502   501  0.000000000E+00  0.000000000E+00  4.374653979E+02  4.374653979E+02  0.000000000E+00  0.00000E+00  9.000E+00
       2    -1     0     0   501     0  0.000000000E+00  0.000000000E+00 -2.973940043E+03  2.973940043E+03  0.000000000E+00  0.00000E+00  9.000E+00
      25     1     1     2     0     0 -3.105458724E+02  7.968551134E+01  2.489782374E+02  4.247395464E+02  1.250000000E+02  0.00000E+00  9.000E+00
      25     1     1     2     0     0  2.760904792E+02 -1.117009253E+02 -1.593956160E+02  3.601874676E+02  1.250000000E+02  0.00000E+00  9.000E+00
       2     1     1     2   502     0  3.445539321E+01  3.201541397E+01 -2.626057267E+03  2.626478427E+03  0.000000000E+00  0.00000E+00  9.000E+00
#rwgt            1           1   2.8120205422967975E-002           3      296741           0
</event>
<event>
      5   9999  3.19816E-02  6.82266E+01 -1.00000E+00  1.31788E-01
      21    -1     0     0   502   511  0.000000000E+00  0.000000000E+00  1.295907893E+03  1.295907893E+03  0.000000000E+00  0.00000E+00  9.000E+00
      21    -1     0     0   501   502  0.000000000E+00  0.000000000E+00 -2.390728961E+02  2.390728961E+02  0.000000000E+00  0.00000E+00  9.000E+00
      25     1     1     2     0     0  1.694085109E+02  1.000618655E+02 -1.603912227E+02  2.829522306E+02  1.250000000E+02  0.00000E+00  9.000E+00
      25     1     1     2     0     0 -1.066200695E+02 -1.267542814E+02  6.935774983E+02  7.239538889E+02  1.250000000E+02  0.00000E+00  9.000E+00
      21     1     1     2   501   511 -6.278844135E+01  2.669241591E+01  5.236487216E+02  5.280746700E+02  7.629394531E-06  0.00000E+00  9.000E+00
#rwgt            1           1   2.2178158497919948E-002           3      296864           0
</event>
<event>
      5   9999  3.19816E-02  6.07373E+01 -1.00000E+00  1.34421E-01
      21    -1     0     0   502   501  0.000000000E+00  0.000000000E+00  1.145665119E+03  1.145665119E+03  0.000000000E+00  0.00000E+00  9.000E+00
      21    -1     0     0   512   502  0.000000000E+00  0.000000000E+00 -5.178041728E+02  5.178041728E+02  0.000000000E+00  0.00000E+00  9.000E+00
      25     1     1     2     0     0  6.567496953E+02  1.865754923E+02  2.425425690E+02  7.352431396E+02  1.250000000E+02  0.00000E+00  9.000E+00
      25     1     1     2     0     0 -6.233960434E+02 -1.358157209E+02  4.852590968E+02  8.112767271E+02  1.250000000E+02  0.00000E+00  9.000E+00
      21     1     1     2   512   501 -3.335365189E+01 -5.075977134E+01 -9.994071983E+01  1.169494248E+02  2.336015456E-06  0.00000E+00  9.000E+00
#rwgt            1           1   2.8663733572987918E-002           3      296950           0
</event>
<event>
      5   9999  3.19816E-02  1.81271E+02 -1.00000E+00  1.13225E-01
      21    -1     0     0   502   501  0.000000000E+00  0.000000000E+00  7.517730935E+02  7.517730935E+02  0.000000000E+00  0.00000E+00  9.000E+00
      21    -1     0     0   501   511  0.000000000E+00  0.000000000E+00 -1.641415021E+02  1.641415021E+02  0.000000000E+00  0.00000E+00  9.000E+00
      25     1     1     2     0     0 -1.476358748E+02 -1.798808112E+02  5.209564762E+02  5.841011110E+02  1.250000000E+02  0.00000E+00  9.000E+00
      25     1     1     2     0     0  1.882644316E+01  5.233713832E+01  6.269958387E+01  1.504986672E+02  1.250000000E+02  0.00000E+00  9.000E+00
      21     1     1     2   502   511  1.288094316E+02  1.275436729E+02  3.975531337E+00  1.813148174E+02  3.195109193E-06  0.00000E+00  9.000E+00
#rwgt            1           1   2.5404776063611238E-002           3      297054           0
</event>
<event>
      5   9999  3.19816E-02  1.78880E+01 -1.00000E+00  1.70470E-01
      21    -1     0     0   512   501  0.000000000E+00  0.000000000E+00  5.500853457E+02  5.500853457E+02  0.000000000E+00  0.00000E+00  9.000E+00
      21    -1     0     0   501   502  0.000000000E+00  0.000000000E+00 -1.080225050E+03  1.080225050E+03  0.000000000E+00  0.00000E+00  9.000E+00
      25     1     1     2     0     0  3.814889088E+02 -3.022911152E+02  7.703103908E+01  5.084018950E+02  1.250000000E+02  0.00000E+00  9.000E+00
      25     1     1     2     0     0 -3.700303615E+02  3.160272922E+02 -7.910761946E+02  9.371351362E+02  1.250000000E+02  0.00000E+00  9.000E+00
      21     1     1     2   512   502 -1.145854727E+01 -1.373617703E+01  1.839054518E+02  1.847733641E+02  3.814697266E-06  0.00000E+00  9.000E+00
#rwgt            1           1   3.0101420677050121E-002           3      297132           0
</event>
<event>
      5   9999  3.19816E-02  5.10210E+01 -1.00000E+00  1.38576E-01
      21    -1     0     0   502   511  0.000000000E+00  0.000000000E+00  1.124964004E+02  1.124964004E+02  0.000000000E+00  0.00000E+00  9.000E+00
      21    -1     0     0   501   502  0.000000000E+00  0.000000000E+00 -2.924438853E+03  2.924438853E+03  0.000000000E+00  0.00000E+00  9.000E+00
      25     1     1     2     0     0  4.301223846E+02 -2.142894511E+02 -2.027524418E+03  2.087439939E+03  1.250000000E+02  0.00000E+00  9.000E+00
      25     1     1     2     0     0 -4.304193456E+02  1.632692803E+02 -7.466413337E+02  8.860112596E+02  1.250000000E+02  0.00000E+00  9.000E+00
      21     1     1     2   501   511  2.969610014E-01  5.102017085E+01 -3.777670041E+01  6.348405401E+01  0.000000000E+00  0.00000E+00  9.000E+00
#rwgt            1           1   7.4577367093988545E-002           3      297364           0
</event>
<event>
      5   9999  3.19816E-02  7.45090E+01 -1.00000E+00  1.29862E-01
      -2    -1     0     0     0   501  0.000000000E+00  0.000000000E+00  2.414782222E+02  2.414782222E+02  0.000000000E+00  0.00000E+00  9.000E+00
      21    -1     0     0   501   502  0.000000000E+00  0.000000000E+00 -1.631537305E+02  1.631537305E+02  0.000000000E+00  0.00000E+00  9.000E+00
      25     1     1     2     0     0  2.180928390E+01 -7.316798291E+01  1.327287835E+02  1.976641813E+02  1.250000000E+02  0.00000E+00  9.000E+00
      25     1     1     2     0     0  5.395417164E+00  3.803084862E+00 -3.331459768E+01  1.295316039E+02  1.250000000E+02  0.00000E+00  9.000E+00
      -2     1     1     2     0   502 -2.720470106E+01  6.936489804E+01 -2.108969423E+01  7.743616754E+01  1.305872339E-06  0.00000E+00  9.000E+00
#rwgt            1           1   5.3021167023056655E-002           3      297474           0
</event>
<event>
      5   9999  3.19816E-02  2.48682E+01 -1.00000E+00  1.58923E-01
      21    -1     0     0   502   501  0.000000000E+00  0.000000000E+00  7.109134971E+02  7.109134971E+02  0.000000000E+00  0.00000E+00  9.000E+00
      21    -1     0     0   501   511  0.000000000E+00  0.000000000E+00 -6.698007641E+01  6.698007641E+01  0.000000000E+00  0.00000E+00  9.000E+00
      25     1     1     2     0     0  6.334794386E+01  7.814367130E+01  1.517006129E+02  2.208109402E+02  1.250000000E+02  0.00000E+00  9.000E+00
      25     1     1     2     0     0 -3.882106139E+01 -8.224959645E+01  5.057013455E+02  5.288014011E+02  1.250000000E+02  0.00000E+00  9.000E+00
      21     1     1     2   502   511 -2.452688246E+01  4.105925156E+00 -1.346853777E+01  2.828123220E+01  6.951036328E-07  0.00000E+00  9.000E+00
#rwgt            1           1   3.4956725696017980E-002           3      297519           0
</event>
<event>
      5   9999  3.19816E-02  3.46081E+01 -1.00000E+00  1.48851E-01
      21    -1     0     0   502   501  0.000000000E+00  0.000000000E+00  2.697969074E+02  2.697969074E+02  0.000000000E+00  0.00000E+00  9.000E+00
      21    -1     0     0   512   502  0.000000000E+00  0.000000000E+00 -2.888225435E+02  2.888225435E+02  0.000000000E+00  0.00000E+00  9.000E+00
      25     1     1     2     0     0 -1.936492150E+02 -5.265595599E+00  5.230965596E+01  2.364086400E+02  1.250000000E+02  0.00000E+00  9.000E+00
      25     1     1     2     0     0  1.931009676E+02  3.986937792E+01  1.015246473E+01  2.336784618E+02  1.250000000E+02  0.00000E+00  9.000E+00
      21     1     1     2   512   501  5.482473760E-01 -3.460378232E+01 -8.148775677E+01  8.853234905E+01  1.348699152E-06  0.00000E+00  9.000E+00
#rwgt            1           1   2.8314999174569214E-002           3      297669           0
</event>
<event>
      5   9999  3.19816E-02  1.12167E+01 -1.00000E+00  1.90164E-01
      21    -1     0     0   511   501  0.000000000E+00  0.000000000E+00  1.591049211E+03  1.591049211E+03  0.000000000E+00  0.00000E+00  9.000E+00
      21    -1     0     0   501   502  0.000000000E+00  0.000000000E+00 -6.931591695E+01  6.931591695E+01  0.000000000E+00  0.00000E+00  9.000E+00
      25     1     1     2     0     0 -6.012464849E+00  8.497890290E+01  3.093198848E+02  3.443273948E+02  1.250000000E+02  0.00000E+00  9.000E+00
      25     1     1     2     0     0  7.796089618E-01 -7.505766106E+01  5.084707652E+01  1.544172447E+02  1.250000000E+02  0.00000E+00  9.000E+00
      21     1     1     2   511   502  5.232855887E+00 -9.921241832E+00  1.161566333E+03  1.161620489E+03  1.525878906E-05  0.00000E+00  9.000E+00
#rwgt            1           1   2.1853791482927609E-002           3      297742           0
</event>
<event>
      5   9999  3.19816E-02  9.23384E+00 -1.00000E+00  1.99846E-01
      21    -1     0     0   502   501  0.000000000E+00  0.000000000E+00  1.178234264E+02  1.178234264E+02  0.000000000E+00  0.00000E+00  9.000E+00
      21    -1     0     0   501   512  0.000000000E+00  0.000000000E+00 -2.474996207E+03  2.474996207E+03  0.000000000E+00  0.00000E+00  9.000E+00
      25     1     1     2     0     0  3.024450758E+02  4.051372630E+02 -1.272884253E+03  1.375306710E+03  1.250000000E+02  0.00000E+00  9.000E+00
      25     1     1     2     0     0 -2.965089553E+02 -4.122101854E+02 -9.625770330E+02  1.095451661E+03  1.250000000E+02  0.00000E+00  9.000E+00
      21     1     1     2   502   512 -5.936120463E+00  7.072922460E+00 -1.217114946E+02  1.220612620E+02  0.000000000E+00  0.00000E+00  9.000E+00
#rwgt            1           1   2.7348942206660381E-002           3      297888           0
</event>
<event>
      5   9999  3.19816E-02  1.70341E+02 -1.00000E+00  1.14246E-01
      21    -1     0     0   502   501  0.000000000E+00  0.000000000E+00  2.580276987E+02  2.580276987E+02  0.000000000E+00  0.00000E+00  9.000E+00
      21    -1     0     0   501   511  0.000000000E+00  0.000000000E+00 -3.453769213E+02  3.453769213E+02  0.000000000E+00  0.00000E+00  9.000E+00
      25     1     1     2     0     0 -1.274846600E+02 -4.907573160E+01  1.070208528E+02  2.138673161E+02  1.250000000E+02  0.00000E+00  9.000E+00
      25     1     1     2     0     0  4.645548279E+01 -1.007588794E+02 -1.009729467E+02  1.952716048E+02  1.250000000E+02  0.00000E+00  9.000E+00
      21     1     1     2   502   511  8.102917718E+01  1.498346110E+02 -9.339712865E+01  1.942656991E+02  4.473129043E-06  0.00000E+00  9.000E+00
#rwgt            1           1   2.7995116357400547E-002           3      298196           0
</event>
<event>
      5   9999  3.19816E-02  2.13539E+02 -1.00000E+00  1.10622E-01
      21    -1     0     0   502   501  0.000000000E+00  0.000000000E+00  9.138323264E+02  9.138323264E+02  0.000000000E+00  0.00000E+00  9.000E+00
      -2    -1     0     0     0   502  0.000000000E+00  0.000000000E+00 -6.152194595E+02  6.152194595E+02  0.000000000E+00  0.00000E+00  9.000E+00
      25     1     1     2     0     0 -2.206882130E+02  6.638028345E+01 -1.247636210E+02  2.903456398E+02  1.250000000E+02  0.00000E+00  9.000E+00
      25     1     1     2     0     0  3.384903243E+02 -2.444860619E+02  7.388061676E+02  8.577929164E+02  1.250000000E+02  0.00000E+00  9.000E+00
      -2     1     1     2     0   501 -1.178021112E+02  1.781057784E+02 -3.154296798E+02  3.809132298E+02  3.814697266E-06  0.00000E+00  9.000E+00
#rwgt            1           1   2.8957798294996309E-002           3      298246           0
</event>
<event>
      5   9999  3.19816E-02  8.65803E+01 -1.00000E+00  1.26710E-01
      21    -1     0     0   502   501  0.000000000E+00  0.000000000E+00  3.691381800E+02  3.691381800E+02  0.000000000E+00  0.00000E+00  9.000E+00
      21    -1     0     0   501   511  0.000000000E+00  0.000000000E+00 -2.682716622E+03  2.682716622E+03  0.000000000E+00  0.00000E+00  9.000E+00
      25     1     1     2     0     0 -8.206082593E+01 -8.658176210E+02 -1.331334758E+03  1.595133653E+03  1.250000000E+02  0.00000E+00  9.000E+00
      25     1     1     2     0     0  1.174322311E+02  7.867922233E+02 -4.600887232E+02  9.274367712E+02  1.250000000E+02  0.00000E+00  9.000E+00
      21     1     1     2   502   511 -3.537140521E+01  7.902539772E+01 -5.221549603E+02  5.292843776E+02  0.000000000E+00  0.00000E+00  9.000E+00
#rwgt            1           1   2.1497224167939234E-002           3      298299           0
</event>
<event>
      5   9999  3.19816E-02  2.85062E+02 -1.00000E+00  1.06318E-01
      21    -1     0     0   502   512  0.000000000E+00  0.000000000E+00  1.618281909E+03  1.618281909E+03  0.000000000E+00  0.00000E+00  9.000E+00
      21    -1     0     0   501   502  0.000000000E+00  0.000000000E+00 -2.698566902E+02  2.698566902E+02  0.000000000E+00  0.00000E+00  9.000E+00
      25     1     1     2     0     0 -9.278953012E+00 -4.634149315E+02  8.579782042E+02  9.831536485E+02  1.250000000E+02  0.00000E+00  9.000E+00
      25     1     1     2     0     0  2.507854057E+02  3.119713880E+02  1.173449660E+02  4.354472502E+02  1.250000000E+02  0.00000E+00  9.000E+00
      21     1     1     2   501   512 -2.415064527E+02  1.514435435E+02  3.731020491E+02  4.695377009E+02  0.000000000E+00  0.00000E+00  9.000E+00
#rwgt            1           1   3.0875482536796905E-002           3      298418           0
</event>
<event>
      5   9999  3.19816E-02  1.69513E+02 -1.00000E+00  1.14327E-01
       2    -1     0     0   502     0  0.000000000E+00  0.000000000E+00  3.395156862E+03  3.395156862E+03  0.000000000E+00  0.00000E+00  9.000E+00
      21    -1     0     0   501   502  0.000000000E+00  0.000000000E+00 -5.258403732E+01  5.258403732E+01  0.000000000E+00  0.00000E+00  9.000E+00
      25     1     1     2     0     0 -1.891465054E+02  2.719118856E+02  1.068173910E+03  1.125314612E+03  1.250000000E+02  0.00000E+00  9.000E+00
      25     1     1     2     0     0  1.965548095E+01 -2.691985437E+02  1.321035790E+03  1.354110318E+03  1.250000000E+02  0.00000E+00  9.000E+00
       2     1     1     2   501     0  1.694910244E+02 -2.713341951E+00  9.533631242E+02  9.683159692E+02  1.525878906E-05  0.00000E+00  9.000E+00
#rwgt            1           1   6.9173445845377268E-002           3      298448           0
</event>
<event>
      5   9999  3.19816E-02  1.86189E+01 -1.00000E+00  1.68975E-01
      21    -1     0     0   502   501  0.000000000E+00  0.000000000E+00  2.275400089E+02  2.275400089E+02  0.000000000E+00  0.00000E+00  9.000E+00
      21    -1     0     0   501   511  0.000000000E+00  0.000000000E+00 -8.450865998E+02  8.450865998E+02  0.000000000E+00  0.00000E+00  9.000E+00
      25     1     1     2     0     0  3.584705141E+02  7.159186449E+01 -2.827565588E+02  4.787512675E+02  1.250000000E+02  0.00000E+00  9.000E+00
      25     1     1     2     0     0 -3.735603017E+02 -6.068486559E+01 -1.788967341E+02  4.368741162E+02  1.250000000E+02  0.00000E+00  9.000E+00
      21     1     1     2   502   511  1.508978754E+01 -1.090699890E+01 -1.558932980E+02  1.570012251E+02  3.303624740E-06  0.00000E+00  9.000E+00
#rwgt            1           1   2.6004884697648736E-002           3      298504           0
</event>
<event>
      5   9999  3.19816E-02  5.40151E+01 -1.00000E+00  1.37188E-01
      21    -1     0     0   502   501  0.000000000E+00  0.000000000E+00  8.165026861E+02  8.165026861E+02  0.000000000E+00  0.00000E+00  9.000E+00
      21    -1     0     0   501   512  0.000000000E+00  0.000000000E+00 -4.299129926E+02  4.299129926E+02  0.000000000E+00  0.00000E+00  9.000E+00
      25     1     1     2     0     0 -8.138567524E+01 -7.932260504E+01 -2.756841950E+02  3.233302942E+02  1.250000000E+02  0.00000E+00  9.000E+00
      25     1     1     2     0     0  1.319448041E+02  6.031188398E+01  7.748810901E+02  7.981933716E+02  1.250000000E+02  0.00000E+00  9.000E+00
      21     1     1     2   502   512 -5.055912886E+01  1.901072107E+01 -1.126072016E+02  1.248920128E+02  2.697398305E-06  0.00000E+00  9.000E+00
#rwgt            1           1   2.7242705581479742E-002           3      298750           0
</event>
<event>
      5   9999  3.19816E-02  4.32274E+01 -1.00000E+00  1.42781E-01
      21    -1     0     0   511   501  0.000000000E+00  0.000000000E+00  2.322253628E+02  2.322253628E+02  0.000000000E+00  0.00000E+00  9.000E+00
      21    -1     0     0   501   502  0.000000000E+00  0.000000000E+00 -2.342899785E+03  2.342899785E+03  0.000000000E+00  0.00000E+00  9.000E+00
      25     1     1     2     0     0  5.381267851E+02  2.602846324E+02 -3.721539288E+02  7.151587750E+02  1.250000000E+02  0.00000E+00  9.000E+00
      25     1     1     2     0     0 -4.948995739E+02 -2.601523131E+02 -1.720057746E+03  1.812961242E+03  1.250000000E+02  0.00000E+00  9.000E+00
      21     1     1     2   511   502 -4.322721115E+01 -1.323193323E-01 -1.846274716E+01  4.700513084E+01  1.168007728E-06  0.00000E+00  9.000E+00
#rwgt            1           1   2.6261920975935313E-002           3      298916           0
</event>
<event>
      5   9999  3.19816E-02  1.53644E+02 -1.00000E+00  1.15982E-01
      21    -1     0     0   502   512  0.000000000E+00  0.000000000E+00  1.634492438E+02  1.634492438E+02  0.000000000E+00  0.00000E+00  9.000E+00
      21    -1     0     0   501   502  0.000000000E+00  0.000000000E+00 -6.966227634E+02  6.966227634E+02  0.000000000E+00  0.00000E+00  9.000E+00
      25     1     1     2     0     0 -4.345870247E+00 -3.029878649E+01 -4.419741431E+01  1.360709906E+02  1.250000000E+02  0.00000E+00  9.000E+00
      25     1     1     2     0     0  1.575051386E+02  1.810130293E+01 -5.281657904E+02  5.654375545E+02  1.250000000E+02  0.00000E+00  9.000E+00
      21     1     1     2   501   512 -1.531592684E+02  1.219748355E+01  3.918968518E+01  1.585634621E+02  2.286830675E-06  0.00000E+00  9.000E+00
#rwgt            1           1   2.9995410583063653E-002           3      299095           0
</event>
<event>
      5   9999  3.19816E-02  3.75087E+02 -1.00000E+00  1.02533E-01
       1    -1     0     0   502     0  0.000000000E+00  0.000000000E+00  2.159732047E+03  2.159732047E+03  0.000000000E+00  0.00000E+00  9.000E+00
      21    -1     0     0   501   502  0.000000000E+00  0.000000000E+00 -1.520549212E+02  1.520549212E+02  0.000000000E+00  0.00000E+00  9.000E+00
      25     1     1     2     0     0 -2.543254452E+02  4.560834990E+02  9.980885166E+02  1.133357524E+03  1.250000000E+02  0.00000E+00  9.000E+00
      25     1     1     2     0     0  1.746383381E+02 -8.955933156E+01  3.921026846E+02  4.559483943E+02  1.250000000E+02  0.00000E+00  9.000E+00
       1     1     1     2   501     0  7.968710710E+01 -3.665241675E+02  6.174859245E+02  7.224810498E+02  7.629394531E-06  0.00000E+00  9.000E+00
#rwgt            2          17   5.0897367314928059E-004           3      299158           0
</event>
<event>
      5   9999  3.19816E-02  3.72413E+01 -1.00000E+00  1.46792E-01
      21    -1     0     0   502   511  0.000000000E+00  0.000000000E+00  3.511837012E+01  3.511837012E+01  0.000000000E+00  0.00000E+00  9.000E+00
      21    -1     0     0   501   502  0.000000000E+00  0.000000000E+00 -1.753805040E+03  1.753805040E+03  0.000000000E+00  0.00000E+00  9.000E+00
      25     1     1     2     0     0 -8.206241058E+01  1.317482470E+02 -1.139212523E+03  1.156512868E+03  1.250000000E+02  0.00000E+00  9.000E+00
      25     1     1     2     0     0  1.190661295E+02 -1.275484361E+02 -5.152633647E+02  5.581815850E+02  1.250000000E+02  0.00000E+00  9.000E+00
      21     1     1     2   501   511 -3.700371894E+01 -4.199810866E+00 -6.421078202E+01  7.422895765E+01  1.651812370E-06  0.00000E+00  9.000E+00
#rwgt            1           1   2.5867409166253592E-002           3      299207           0
</event>
<event>
      5   9999  3.19816E-02  2.44572E+01 -1.00000E+00  1.59468E-01
      21    -1     0     0   502   512  0.000000000E+00  0.000000000E+00  2.217919852E+02  2.217919852E+02  0.000000000E+00  0.00000E+00  9.000E+00
      21    -1     0     0   501   502  0.000000000E+00  0.000000000E+00 -2.651806890E+02  2.651806890E+02  0.000000000E+00  0.00000E+00  9.000E+00
      25     1     1     2     0     0 -3.994345830E+01  3.289764247E+01 -2.108559532E+02  2.505253834E+02  1.250000000E+02  0.00000E+00  9.000E+00
      25     1     1     2     0     0  1.581288328E+01 -2.891402767E+01  9.630874125E+01  1.612031076E+02  1.250000000E+02  0.00000E+00  9.000E+00
      21     1     1     2   501   512  2.413057502E+01 -3.983614795E+00  7.115850803E+01  7.524418318E+01  0.000000000E+00  0.00000E+00  9.000E+00
#rwgt            1           1   2.2152552353836827E-002           3      299316           0
</event>
<event>
      5   9999  3.19816E-02  3.16749E+02 -1.00000E+00  1.04831E-01
      21    -1     0     0   502   511  0.000000000E+00  0.000000000E+00  5.822852134E+02  5.822852134E+02  0.000000000E+00  0.00000E+00  9.000E+00
      21    -1     0     0   501   502  0.000000000E+00  0.000000000E+00 -8.489273567E+02  8.489273567E+02  0.000000000E+00  0.00000E+00  9.000E+00
      25     1     1     2     0     0  2.543213395E+02 -4.550171872E+02  1.334844502E+02  5.524156794E+02  1.250000000E+02  0.00000E+00  9.000E+00
      25     1     1     2     0     0 -3.733041869E+02  1.614650757E+02 -3.640764728E+02  5.600032720E+02  1.250000000E+02  0.00000E+00  9.000E+00
      21     1     1     2   501   511  1.189828474E+02  2.935521114E+02 -3.605012067E+01  3.187936187E+02  2.523185073E-06  0.00000E+00  9.000E+00
#rwgt            1           1   2.9697363154597738E-002           3      299452           0
</event>
<event>
      5   9999  3.19816E-02  6.38057E+01 -1.00000E+00  1.33291E-01
      21    -1     0     0   502   501  0.000000000E+00  0.000000000E+00  1.578311593E+02  1.578311593E+02  0.000000000E+00  0.00000E+00  9.000E+00
      21    -1     0     0   501   512  0.000000000E+00  0.000000000E+00 -1.203841280E+03  1.203841280E+03  0.000000000E+00  0.00000E+00  9.000E+00
      25     1     1     2     0     0 -9.967152514E+01 -2.256879769E+02 -1.950130214E+02  3.384147668E+02  1.250000000E+02  0.00000E+00  9.000E+00
      25     1     1     2     0     0  1.082360112E+02  1.624596636E+02 -7.354454164E+01  2.431912334E+02  1.250000000E+02  0.00000E+00  9.000E+00
      21     1     1     2   502   512 -8.564486084E+00  6.322831340E+01 -7.774525579E+02  7.800664393E+02  0.000000000E+00  0.00000E+00  9.000E+00
#rwgt            1           1   2.7696929117858069E-002           3      299498           0
</event>
<event>
      5   9999  3.19816E-02  1.50160E+01 -1.00000E+00  1.77340E-01
      21    -1     0     0   511   501  0.000000000E+00  0.000000000E+00  1.019126155E+03  1.019126155E+03  0.000000000E+00  0.00000E+00  9.000E+00
      21    -1     0     0   501   502  0.000000000E+00  0.000000000E+00 -4.774263105E+02  4.774263105E+02  0.000000000E+00  0.00000E+00  9.000E+00
      25     1     1     2     0     0 -4.129367466E+01 -6.602633167E+02  8.359990441E+01  6.784296271E+02  1.250000000E+02  0.00000E+00  9.000E+00
      25     1     1     2     0     0  3.120393270E+01  6.491422181E+02  4.405588469E+02  7.950323278E+02  1.250000000E+02  0.00000E+00  9.000E+00
      21     1     1     2   511   502  1.008974196E+01  1.112109864E+01  1.754109317E+01  2.309051054E+01  2.384185791E-07  0.00000E+00  9.000E+00
#rwgt            1           1   3.0236677076437048E-002           3      299564           0
</event>
<event>
      5   9999  3.19816E-02  1.70989E+01 -1.00000E+00  1.72188E-01
      21    -1     0     0   502   512  0.000000000E+00  0.000000000E+00  9.513388781E+02  9.513388781E+02  0.000000000E+00  0.00000E+00  9.000E+00
      21    -1     0     0   501   502  0.000000000E+00  0.000000000E+00 -1.233202234E+02  1.233202234E+02  0.000000000E+00  0.00000E+00  9.000E+00
      25     1     1     2     0     0  1.358338227E+02 -2.692952657E+02  3.452308844E+02  4.751632678E+02  1.250000000E+02  0.00000E+00  9.000E+00
      25     1     1     2     0     0 -1.518924222E+02  2.751682619E+02  4.617058384E+02  5.723514318E+02  1.250000000E+02  0.00000E+00  9.000E+00
      21     1     1     2   501   512  1.605859949E+01 -5.872996192E+00  2.108193187E+01  2.714440188E+01  4.768371582E-07  0.00000E+00  9.000E+00
#rwgt            1           1   3.2736066151677720E-002           3      299849           0
</event>
<event>
      5   9999  3.19816E-02  4.18927E+01 -1.00000E+00  1.43606E-01
      21    -1     0     0   502   501  0.000000000E+00  0.000000000E+00  5.781869642E+02  5.781869642E+02  0.000000000E+00  0.00000E+00  9.000E+00
      21    -1     0     0   501   511  0.000000000E+00  0.000000000E+00 -1.334340141E+02  1.334340141E+02  0.000000000E+00  0.00000E+00  9.000E+00
      25     1     1     2     0     0 -3.675476351E+01  4.744833154E+01 -5.381836185E+01  1.487402867E+02  1.250000000E+02  0.00000E+00  9.000E+00
      25     1     1     2     0     0  3.849181109E+01 -5.591635441E+00  5.039208616E+02  5.206477894E+02  1.250000000E+02  0.00000E+00  9.000E+00
      21     1     1     2   502   511 -1.737047580E+00 -4.185669610E+01 -5.349549591E+00  4.223290214E+01  7.102713160E-07  0.00000E+00  9.000E+00
#rwgt            1           1   2.5270085647060642E-002           3      300027           0
</event>
<event>
      5   9999  3.19816E-02  7.49943E+01 -1.00000E+00  1.29723E-01
      21    -1     0     0   502   512  0.000000000E+00  0.000000000E+00  6.049905713E+02  6.049905713E+02  0.000000000E+00  0.00000E+00  9.000E+00
      21    -1     0     0   501   502  0.000000000E+00  0.000000000E+00 -1.520945963E+02  1.520945963E+02  0.000000000E+00  0.00000E+00  9.000E+00
      25     1     1     2     0     0  5.439990541E+00  1.567829431E+02  4.187932156E+02  4.643524978E+02  1.250000000E+02  0.00000E+00  9.000E+00
      25     1     1     2     0     0 -6.742809376E+01 -1.145737256E+02 -4.053429508E+01  1.869270326E+02  1.250000000E+02  0.00000E+00  9.000E+00
      21     1     1     2   501   512  6.198810322E+01 -4.220921748E+01  7.463705442E+01  1.058056372E+02  1.651812370E-06  0.00000E+00  9.000E+00
#rwgt            1           1   3.0245922565584241E-002           3      300144           0
</event>
<event>
      5   9999  3.19816E-02  1.02006E+02 -1.00000E+00  1.23441E-01
      21    -1     0     0   502   511  0.000000000E+00  0.000000000E+00  1.595980115E+03  1.595980115E+03  0.000000000E+00  0.00000E+00  9.000E+00
      21    -1     0     0   501   502  0.000000000E+00  0.000000000E+00 -2.372472087E+02  2.372472087E+02  0.000000000E+00  0.00000E+00  9.000E+00
      25     1     1     2     0     0  2.106077548E+02 -2.056700172E+02  1.195745804E+03  1.237775751E+03  1.250000000E+02  0.00000E+00  9.000E+00
      25     1     1     2     0     0 -1.211969407E+02  1.565689720E+02 -1.420083851E+02  2.738501832E+02  1.250000000E+02  0.00000E+00  9.000E+00
      21     1     1     2   501   511 -8.941081408E+01  4.910104522E+01  3.049954871E+02  3.216013891E+02  0.000000000E+00  0.00000E+00  9.000E+00
#rwgt            1           1   3.1415288141758375E-002           3      300210           0
</event>
<event>
      5   9999  3.19816E-02  3.54432E+01 -1.00000E+00  1.48175E-01
      21    -1     0     0   502   501  0.000000000E+00  0.000000000E+00  5.837210331E+02  5.837210331E+02  0.000000000E+00  0.00000E+00  9.000E+00
      21    -1     0     0   501   512  0.000000000E+00  0.000000000E+00 -3.633546867E+02  3.633546867E+02  0.000000000E+00  0.00000E+00  9.000E+00
      25     1     1     2     0     0  3.037337910E+02 -2.577829515E+02 -7.949548913E+01  4.250303503E+02  1.250000000E+02  0.00000E+00  9.000E+00
      25     1     1     2     0     0 -2.760670339E+02  2.356296476E+02  2.990194325E+02  4.865921897E+02  1.250000000E+02  0.00000E+00  9.000E+00
      21     1     1     2   502   512 -2.766675703E+01  2.215330390E+01  8.424030727E-01  3.545317985E+01  1.825012075E-08  0.00000E+00  9.000E+00
#rwgt            1           1   2.6565405122196996E-002           3      300273           0
</event>
<event>
      5   9999  3.19816E-02  6.30362E+01 -1.00000E+00  1.33568E-01
      21    -1     0     0   502   501  0.000000000E+00  0.000000000E+00  5.040396869E+02  5.040396869E+02  0.000000000E+00  0.00000E+00  9.000E+00
      21    -1     0     0   511   502  0.000000000E+00  0.000000000E+00 -7.751422768E+01  7.751422768E+01  0.000000000E+00  0.00000E+00  9.000E+00
      25     1     1     2     0     0 -1.312515456E+02 -2.788904155E+01  2.097983514E+02  2.786487307E+02  1.250000000E+02  0.00000E+00  9.000E+00
      25     1     1     2     0     0  6.941294508E+01  4.011826645E+01  1.558615087E+02  2.152799158E+02  1.250000000E+02  0.00000E+00  9.000E+00
      21     1     1     2   511   501  6.183860051E+01 -1.222922489E+01  6.086559908E+01  8.762526808E+01  1.507891493E-06  0.00000E+00  9.000E+00
#rwgt            1           1   2.9479685122505407E-002           3      300492           0
</event>
<event>
      5   9999  3.19816E-02  2.06712E+02 -1.00000E+00  1.11129E-01
      21    -1     0     0   502   501  0.000000000E+00  0.000000000E+00  9.014526804E+02  9.014526804E+02  0.000000000E+00  0.00000E+00  9.000E+00
       1    -1     0     0   501     0  0.000000000E+00  0.000000000E+00 -4.711338400E+02  4.711338400E+02  0.000000000E+00  0.00000E+00  9.000E+00
      25     1     1     2     0     0 -1.673196600E+02  5.262593647E+02  3.212166798E+02  6.509607845E+02  1.250000000E+02  0.00000E+00  9.000E+00
      25     1     1     2     0     0  8.311410542E+01 -3.374758360E+02  2.717862392E+02  4.585745896E+02  1.250000000E+02  0.00000E+00  9.000E+00
       1     1     1     2   502     0  8.420555453E+01 -1.887835287E+02 -1.626840786E+02  2.630511463E+02  3.303624740E-06  0.00000E+00  9.000E+00
#rwgt            1           1   2.5703686603206471E-002           3      300548           0
</event>
<event>
      5   9999  3.19816E-02  1.02628E+02 -1.00000E+00  1.23323E-01
      21    -1     0     0   502   511  0.000000000E+00  0.000000000E+00  8.206680466E+02  8.206680466E+02  0.000000000E+00  0.00000E+00  9.000E+00
      21    -1     0     0   501   502  0.000000000E+00  0.000000000E+00 -3.637494443E+02  3.637494443E+02  0.000000000E+00  0.00000E+00  9.000E+00
      25     1     1     2     0     0 -9.251651747E+01  4.149856663E+02  3.595646862E+01  4.446237475E+02  1.250000000E+02  0.00000E+00  9.000E+00
      25     1     1     2     0     0  1.889933649E+02 -4.499806181E+02  3.708537599E+02  6.255865726E+02  1.250000000E+02  0.00000E+00  9.000E+00
      21     1     1     2   501   511 -9.647684744E+01  3.499495180E+01  5.010837377E+01  1.142071708E+02  1.168007728E-06  0.00000E+00  9.000E+00
#rwgt            1           1   2.8887471921058099E-002           3      300622           0
</event>
<event>
      5   9999  3.19816E-02  6.15456E+02 -1.00000E+00  9.63546E-02
       2    -1     0     0   502     0  0.000000000E+00  0.000000000E+00  2.301539849E+03  2.301539849E+03  0.000000000E+00  0.00000E+00  9.000E+00
      21    -1     0     0   501   502  0.000000000E+00  0.000000000E+00 -4.291068607E+02  4.291068607E+02  0.000000000E+00  0.00000E+00  9.000E+00
      25     1     1     2     0     0  4.161079613E+02  1.087456122E+02  2.970987478E+02  5.374607982E+02  1.250000000E+02  0.00000E+00  9.000E+00
      25     1     1     2     0     0  1.970024959E+02 -5.506694055E+01 -2.012604141E+02  3.130065584E+02  1.250000000E+02  0.00000E+00  9.000E+00
       2     1     1     2   501     0 -6.131104572E+02 -5.367867164E+01  1.776594655E+03  1.880179353E+03  2.157918644E-05  0.00000E+00  9.000E+00
#rwgt            2          18   2.6092635874131118E-003           3      300697           0
</event>
<event>
      5   9999  3.28396E-02  7.83959E+00 -1.00000E+00  2.08827E-01
      21    -1     0     0   502   501  0.000000000E+00  0.000000000E+00  3.957416332E+01  3.957416332E+01  0.000000000E+00  0.00000E+00  9.000E+00
      21    -1     0     0   511   502  0.000000000E+00  0.000000000E+00 -7.482247301E+02  7.482247301E+02  0.000000000E+00  0.00000E+00  9.000E+00
      25     1     1     2     0     0 -8.929979356E+01 -6.170864412E+00 -3.239331952E+02  3.585669360E+02  1.250000000E+02  0.00000E+00  9.000E+00
      25     1     1     2     0     0  8.652875630E+01  1.350438748E+01 -2.407604338E+02  2.850617137E+02  1.250000000E+02  0.00000E+00  9.000E+00
      21     1     1     2   511   501  2.771037262E+00 -7.333523072E+00 -1.439569378E+02  1.441702436E+02  1.907348633E-06  0.00000E+00  9.000E+00
#rwgt            1           1   8.5489017667711747E-002           3      300716           0
</event>
<event>
      5   9999  3.19816E-02  2.12687E+01 -1.00000E+00  1.64195E-01
      21    -1     0     0   502   512  0.000000000E+00  0.000000000E+00  1.018920278E+03  1.018920278E+03  0.000000000E+00  0.00000E+00  9.000E+00
      21    -1     0     0   501   502  0.000000000E+00  0.000000000E+00 -7.050404556E+02  7.050404556E+02  0.000000000E+00  0.00000E+00  9.000E+00
      25     1     1     2     0     0 -5.305187241E+02  4.812797756E+02 -2.601103617E+02  7.722452585E+02  1.250000000E+02  0.00000E+00  9.000E+00
      25     1     1     2     0     0  5.434258640E+02 -4.643752132E+02  5.173030524E+02  8.911697124E+02  1.250000000E+02  0.00000E+00  9.000E+00
      21     1     1     2   501   512 -1.290713993E+01 -1.690456244E+01  5.668713170E+01  6.054576280E+01  0.000000000E+00  0.00000E+00  9.000E+00
#rwgt            1           1   2.2534524284303185E-002           3      300908           0
</event>
<event>
      5   9999  3.19816E-02  7.16369E+01 -1.00000E+00  1.30714E-01
      21    -1     0     0   511   501  0.000000000E+00  0.000000000E+00  1.318213057E+03  1.318213057E+03  0.000000000E+00  0.00000E+00  9.000E+00
      21    -1     0     0   501   502  0.000000000E+00  0.000000000E+00 -4.757275687E+02  4.757275687E+02  0.000000000E+00  0.00000E+00  9.000E+00
      25     1     1     2     0     0 -5.828137572E+02 -1.577327976E+01  8.964656630E+02  1.076659815E+03  1.250000000E+02  0.00000E+00  9.000E+00
      25     1     1     2     0     0  5.308131655E+02 -3.349928310E+01 -1.775174821E+02  5.744756523E+02  1.250000000E+02  0.00000E+00  9.000E+00
      21     1     1     2   511   502  5.200059176E+01  4.927256286E+01  1.235373075E+02  1.428051586E+02  1.348699152E-06  0.00000E+00  9.000E+00
#rwgt            1           1   3.1978751024673770E-002           3      301112           0
</event>
<event>
      5   9999  3.19816E-02  1.74864E+02 -1.00000E+00  1.13813E-01
      21    -1     0     0   502   512  0.000000000E+00  0.000000000E+00  4.766981455E+02  4.766981455E+02  0.000000000E+00  0.00000E+00  9.000E+00
      21    -1     0     0   501   502  0.000000000E+00  0.000000000E+00 -1.641277135E+03  1.641277135E+03  0.000000000E+00  0.00000E+00  9.000E+00
      25     1     1     2     0     0  2.350303327E+02  4.205941619E+02 -4.140514844E+01  4.994778200E+02  1.250000000E+02  0.00000E+00  9.000E+00
      25     1     1     2     0     0 -3.862499701E+02 -5.084013320E+02 -1.245434680E+03  1.405131131E+03  1.250000000E+02  0.00000E+00  9.000E+00
      21     1     1     2   501   512  1.512196374E+02  8.780717011E+01  1.222608387E+02  2.133663294E+02  2.336015456E-06  0.00000E+00  9.000E+00
#rwgt            1           1   2.8195970573385958E-002           3      301234           0
</event>
<event>
      5   9999  3.19816E-02  8.27497E+01 -1.00000E+00  1.27643E-01
      21    -1     0     0   502   511  0.000000000E+00  0.000000000E+00  8.934262651E+02  8.934262651E+02  0.000000000E+00  0.00000E+00  9.000E+00
      21    -1     0     0   501   502  0.000000000E+00  0.000000000E+00 -3.110846794E+02  3.110846794E+02  0.000000000E+00  0.00000E+00  9.000E+00
      25     1     1     2     0     0  3.767116265E+02 -1.044849680E+02  1.216113446E+02  4.280690099E+02  1.250000000E+02  0.00000E+00  9.000E+00
      25     1     1     2     0     0 -3.056484029E+02  1.468823340E+02  5.890328225E+01  3.661829637E+02  1.250000000E+02  0.00000E+00  9.000E+00
      21     1     1     2   501   511 -7.106322357E+01 -4.239736602E+01  4.018269588E+02  4.102589709E+02  7.629394531E-06  0.00000E+00  9.000E+00
#rwgt            1           1   2.5810408987946443E-002           3      301328           0
</event>
<event>
      5   9999  3.19816E-02  2.16892E+01 -1.00000E+00  1.63515E-01
      21    -1     0     0   502   512  0.000000000E+00  0.000000000E+00  4.143122817E+02  4.143122817E+02  0.000000000E+00  0.00000E+00  9.000E+00
      21    -1     0     0   501   502  0.000000000E+00  0.000000000E+00 -2.886837324E+02  2.886837324E+02  0.000000000E+00  0.00000E+00  9.000E+00
      25     1     1     2     0     0  1.021355295E+02  2.677633526E+02 -3.085700854E+01  3.141751650E+02  1.250000000E+02  0.00000E+00  9.000E+00
      25     1     1     2     0     0 -8.938867816E+01 -2.853115172E+02  1.184462632E+02  3.450326287E+02  1.250000000E+02  0.00000E+00  9.000E+00
      21     1     1     2   501   512 -1.274685130E+01  1.754816460E+01  3.803929467E+01  4.378822031E+01  9.536743164E-07  0.00000E+00  9.000E+00
#rwgt            1           1   2.8620333951747665E-002           3      301425           0
</event>
<event>
      5   9999  3.19816E-02  2.67419E+01 -1.00000E+00  1.56591E-01
      21    -1     0     0   511   501  0.000000000E+00  0.000000000E+00  1.594387342E+03  1.594387342E+03  0.000000000E+00  0.00000E+00  9.000E+00
      21    -1     0     0   501   502  0.000000000E+00  0.000000000E+00 -2.674994212E+02  2.674994212E+02  0.000000000E+00  0.00000E+00  9.000E+00
      25     1     1     2     0     0 -5.203726092E+02  7.778220785E+01  8.832378623E+02  1.035650446E+03  1.250000000E+02  0.00000E+00  9.000E+00
      25     1     1     2     0     0  5.433362778E+02 -6.407820768E+01  2.228573527E+02  6.038300482E+02  1.250000000E+02  0.00000E+00  9.000E+00
      21     1     1     2   511   502 -2.296366855E+01 -1.370400017E+01  2.207927056E+02  2.224062691E+02  0.000000000E+00  0.00000E+00  9.000E+00
#rwgt            1           1   3.5009698139768682E-002           3      301545           0
</event>
<event>
      5   9999  3.19816E-02  4.97534E+01 -1.00000E+00  1.39198E-01
      21    -1     0     0   502   512  0.000000000E+00  0.000000000E+00  2.412281810E+02  2.412281810E+02  0.000000000E+00  0.00000E+00  9.000E+00
      21    -1     0     0   501   502  0.000000000E+00  0.000000000E+00 -3.239098558E+02  3.239098558E+02  0.000000000E+00  0.00000E+00  9.000E+00
      25     1     1     2     0     0 -5.897637321E-01  1.290845899E+02 -1.076627363E+02  2.094742083E+02  1.250000000E+02  0.00000E+00  9.000E+00
      25     1     1     2     0     0  4.684915314E+01 -1.474004477E+02 -9.894814024E+01  2.221203943E+02  1.250000000E+02  0.00000E+00  9.000E+00
      21     1     1     2   501   512 -4.625938941E+01  1.831585780E+01  1.239292018E+02  1.335434342E+02  1.348699152E-06  0.00000E+00  9.000E+00
#rwgt            1           1   3.8515332516519382E-002           3      301685           0
</event>
<event>
      5   9999  3.19816E-02  2.87881E+01 -1.00000E+00  1.54294E-01
      21    -1     0     0   502   511  0.000000000E+00  0.000000000E+00  2.375557256E+02  2.375557256E+02  0.000000000E+00  0.00000E+00  9.000E+00
      21    -1     0     0   501   502  0.000000000E+00  0.000000000E+00 -1.255311132E+02  1.255311132E+02  0.000000000E+00  0.00000E+00  9.000E+00
      25     1     1     2     0     0  8.634667445E+00 -3.395264492E+01 -3.933087831E+01  1.356438630E+02  1.250000000E+02  0.00000E+00  9.000E+00
      25     1     1     2     0     0 -1.331365884E+01  6.235794683E+01  1.327452057E+02  1.931632902E+02  1.250000000E+02  0.00000E+00  9.000E+00
      21     1     1     2   501   511  4.678991392E+00 -2.840530191E+01  1.861028500E+01  3.427968560E+01  0.000000000E+00  0.00000E+00  9.000E+00
#rwgt            1           1   6.4073367468345827E-002           3      301777           0
</event>
<event>
      5   9999  3.19816E-02  1.28600E+02 -1.00000E+00  1.19106E-01
      21    -1     0     0   502   512  0.000000000E+00  0.000000000E+00  6.563687898E+02  6.563687898E+02  0.000000000E+00  0.00000E+00  9.000E+00
      21    -1     0     0   501   502  0.000000000E+00  0.000000000E+00 -6.672905543E+02  6.672905543E+02  0.000000000E+00  0.00000E+00  9.000E+00
      25     1     1     2     0     0 -6.138823838E+01 -3.489474746E+00  1.677876889E+02  2.180788866E+02  1.250000000E+02  0.00000E+00  9.000E+00
      25     1     1     2     0     0  1.185460205E+02  1.186885809E+02 -6.155897804E+02  6.501660680E+02  1.250000000E+02  0.00000E+00  9.000E+00
      21     1     1     2   501   512 -5.715778211E+01 -1.151991062E+02  4.368803269E+02  4.554143895E+02  0.000000000E+00  0.00000E+00  9.000E+00
#rwgt            1           1   2.7232521622558174E-002           3      301860           0
</event>
<event>
      5   9999  3.19816E-02  4.14754E+02 -1.00000E+00  1.01214E-01
       1    -1     0     0   502     0  0.000000000E+00  0.000000000E+00  5.852835840E+03  5.852835840E+03  0.000000000E+00  0.00000E+00  9.000E+00
      21    -1     0     0   501   502  0.000000000E+00  0.000000000E+00 -7.797161842E+02  7.797161842E+02  0.000000000E+00  0.00000E+00  9.000E+00
      25     1     1     2     0     0 -2.575299439E+01 -1.994346135E+02  1.701093792E+03  1.717493078E+03  1.250000000E+02  0.00000E+00  9.000E+00
      25     1     1     2     0     0 -1.463195187E+02 -1.779407496E+02 -7.385151331E+02  7.836465490E+02  1.250000000E+02  0.00000E+00  9.000E+00
       1     1     1     2   501     0  1.720725131E+02  3.773753631E+02  4.110540997E+03  4.131412398E+03  8.631674575E-05  0.00000E+00  9.000E+00
#rwgt            2          17   2.1289214760875928E-005           3      301962           0
</event>
<event>
      5   9999  3.19816E-02  7.13629E+01 -1.00000E+00  1.30798E-01
      21    -1     0     0   511   501  0.000000000E+00  0.000000000E+00  1.331177020E+03  1.331177020E+03  0.000000000E+00  0.00000E+00  9.000E+00
      21    -1     0     0   501   502  0.000000000E+00  0.000000000E+00 -2.116232398E+02  2.116232398E+02  0.000000000E+00  0.00000E+00  9.000E+00
      25     1     1     2     0     0 -3.073626513E+02 -8.250585685E+01  5.179928600E+02  6.206614366E+02  1.250000000E+02  0.00000E+00  9.000E+00
      25     1     1     2     0     0  3.310920753E+02  1.520375284E+01  4.047601927E+01  3.565339038E+02  1.250000000E+02  0.00000E+00  9.000E+00
      21     1     1     2   511   502 -2.372942393E+01  6.730210401E+01  5.610849009E+02  5.656049194E+02  0.000000000E+00  0.00000E+00  9.000E+00
#rwgt            1           1   2.5800710310828576E-002           3      301981           0
</event>
<event>
      5   9999  3.19816E-02  3.55789E+01 -1.00000E+00  1.48067E-01
      21    -1     0     0   502   512  0.000000000E+00  0.000000000E+00  5.025612350E+02  5.025612350E+02  0.000000000E+00  0.00000E+00  9.000E+00
      21    -1     0     0   501   502  0.000000000E+00  0.000000000E+00 -7.416520461E+02  7.416520461E+02  0.000000000E+00  0.00000E+00  9.000E+00
      25     1     1     2     0     0  1.961689569E+02  2.696002891E+02  2.493595855E+02  4.347088432E+02  1.250000000E+02  0.00000E+00  9.000E+00
      25     1     1     2     0     0 -1.651238635E+02 -2.522203676E+02 -6.051286672E+02  6.875221510E+02  1.250000000E+02  0.00000E+00  9.000E+00
      21     1     1     2   501   512 -3.104509345E+01 -1.737992141E+01  1.166782706E+02  1.219822869E+02  0.000000000E+00  0.00000E+00  9.000E+00
#rwgt            1           1   3.2217098991642115E-002           3      302109           0
</event>
<event>
      5   9999  3.19816E-02  4.05860E+01 -1.00000E+00  1.44449E-01
       1    -1     0     0   502     0  0.000000000E+00  0.000000000E+00  9.850424396E+01  9.850424396E+01  0.000000000E+00  0.00000E+00  9.000E+00
      21    -1     0     0   501   502  0.000000000E+00  0.000000000E+00 -6.082100586E+02  6.082100586E+02  0.000000000E+00  0.00000E+00  9.000E+00
      25     1     1     2     0     0  5.874996339E+00  3.047045795E+01 -4.818887632E+01  1.375141163E+02  1.250000000E+02  0.00000E+00  9.000E+00
      25     1     1     2     0     0 -3.209684429E+01  5.076210643E-01 -4.981076815E+02  5.145548829E+02  1.250000000E+02  0.00000E+00  9.000E+00
       1     1     1     2   501     0  2.622184795E+01 -3.097807901E+01  3.659074321E+01  5.464530335E+01  6.743495762E-07  0.00000E+00  9.000E+00
#rwgt            1           1   3.1966967435019256E-002           3      302277           0
</event>
<event>
      5   9999  3.19816E-02  1.00545E+03 -1.00000E+00  9.09346E-02
       1    -1     0     0   502     0  0.000000000E+00  0.000000000E+00  2.605327478E+03  2.605327478E+03  0.000000000E+00  0.00000E+00  9.000E+00
      21    -1     0     0   501   502  0.000000000E+00  0.000000000E+00 -2.397774638E+03  2.397774638E+03  0.000000000E+00  0.00000E+00  9.000E+00
      25     1     1     2     0     0  3.440623648E+02  3.481215130E+02 -1.383574559E+03  1.472912441E+03  1.250000000E+02  0.00000E+00  9.000E+00
      25     1     1     2     0     0  5.371992232E+02 -8.321701016E+02 -5.678643548E+02  1.148557795E+03  1.250000000E+02  0.00000E+00  9.000E+00
       1     1     1     2   501     0 -8.812615880E+02  4.840485886E+02  2.158991754E+03  2.381631881E+03  0.000000000E+00  0.00000E+00  9.000E+00
#rwgt            2          17   6.6909325616176004E-004           3      302385           0
</event>
<event>
      5   9999  3.19816E-02  4.86752E+01 -1.00000E+00  1.39744E-01
      21    -1     0     0   502   501  0.000000000E+00  0.000000000E+00  1.170859806E+03  1.170859806E+03  0.000000000E+00  0.00000E+00  9.000E+00
      21    -1     0     0   501   511  0.000000000E+00  0.000000000E+00 -4.352541196E+02  4.352541196E+02  0.000000000E+00  0.00000E+00  9.000E+00
      25     1     1     2     0     0  4.871452269E+01  5.913909442E+02  5.480549079E+02  8.173772297E+02  1.250000000E+02  0.00000E+00  9.000E+00
      25     1     1     2     0     0 -9.654591397E+01 -6.004149179E+02  2.824579988E+02  6.820752951E+02  1.250000000E+02  0.00000E+00  9.000E+00
      21     1     1     2   502   511  4.783139128E+01  9.023973728E+00 -9.490721988E+01  1.066614011E+02  1.348699152E-06  0.00000E+00  9.000E+00
#rwgt            1           1   3.0007388414836120E-002           3      302404           0
</event>
<event>
      5   9999  3.19816E-02  7.69885E+01 -1.00000E+00  1.29161E-01
      21    -1     0     0   502   501  0.000000000E+00  0.000000000E+00  7.190320614E+01  7.190320614E+01  0.000000000E+00  0.00000E+00  9.000E+00
      21    -1     0     0   501   512  0.000000000E+00  0.000000000E+00 -2.134232979E+03  2.134232979E+03  0.000000000E+00  0.00000E+00  9.000E+00
      25     1     1     2     0     0 -8.144440795E+01  2.839744171E+02 -5.353439194E+02  6.240935613E+02  1.250000000E+02  0.00000E+00  9.000E+00
      25     1     1     2     0     0  5.517813541E+00 -2.712313274E+02 -8.552813582E+02  9.059404400E+02  1.250000000E+02  0.00000E+00  9.000E+00
      21     1     1     2   502   512  7.592659440E+01 -1.274308975E+01 -6.717044951E+02  6.761021837E+02  1.078959322E-05  0.00000E+00  9.000E+00
#rwgt            1           1   3.0190881446268057E-002           3      302559           0
</event>
<event>
      5   9999  3.19816E-02  2.94164E+02 -1.00000E+00  1.05870E-01
      21    -1     0     0   502   501  0.000000000E+00  0.000000000E+00  1.418625088E+03  1.418625088E+03  0.000000000E+00  0.00000E+00  9.000E+00
      21    -1     0     0   511   502  0.000000000E+00  0.000000000E+00 -6.551797601E+02  6.551797601E+02  0.000000000E+00  0.00000E+00  9.000E+00
      25     1     1     2     0     0 -8.224336590E+02 -1.305507960E+02  6.755243626E+02  1.079536381E+03  1.250000000E+02  0.00000E+00  9.000E+00
      25     1     1     2     0     0  6.735152255E+02 -1.231339364E+02  7.123175492E+01  6.996311086E+02  1.250000000E+02  0.00000E+00  9.000E+00
      21     1     1     2   511   501  1.489184335E+02  2.536847324E+02  1.668921067E+01  2.946373585E+02  1.719260824E-06  0.00000E+00  9.000E+00
#rwgt            2          11   5.3606084882847913E-003           3      302626           0
</event>
<event>
      5   9999  3.19816E-02  6.88114E+01 -1.00000E+00  1.31598E-01
      21    -1     0     0   512   501  0.000000000E+00  0.000000000E+00  1.194085509E+02  1.194085509E+02  0.000000000E+00  0.00000E+00  9.000E+00
      21    -1     0     0   501   502  0.000000000E+00  0.000000000E+00 -8.746432761E+02  8.746432761E+02  0.000000000E+00  0.00000E+00  9.000E+00
      25     1     1     2     0     0 -1.656108977E+02  1.072592264E+02 -1.371363934E+02  2.708558685E+02  1.250000000E+02  0.00000E+00  9.000E+00
      25     1     1     2     0     0  1.181261779E+02 -1.570609798E+02 -6.111591654E+02  6.540355271E+02  1.250000000E+02  0.00000E+00  9.000E+00
      21     1     1     2   512   502  4.748471983E+01  4.980175335E+01 -6.939166401E+00  6.916043149E+01  1.158846742E-06  0.00000E+00  9.000E+00
#rwgt            1           1   2.8592945452308161E-002           3      302646           0
</event>
<event>
      5   9999  3.19816E-02  1.92468E+02 -1.00000E+00  1.12258E-01
       2    -1     0     0   502     0  0.000000000E+00  0.000000000E+00  1.377363089E+03  1.377363089E+03  0.000000000E+00  0.00000E+00  9.000E+00
      21    -1     0     0   501   502  0.000000000E+00  0.000000000E+00 -7.470098077E+02  7.470098077E+02  0.000000000E+00  0.00000E+00  9.000E+00
      25     1     1     2     0     0  4.071814807E+02 -1.359358537E+02  1.834507589E+02  4.832747619E+02  1.250000000E+02  0.00000E+00  9.000E+00
      25     1     1     2     0     0 -2.148752994E+02  1.280460468E+02 -5.546867065E+02  6.211839717E+02  1.250000000E+02  0.00000E+00  9.000E+00
       2     1     1     2   501     0 -1.923061814E+02  7.889806854E+00  1.001589229E+03  1.019914163E+03  0.000000000E+00  0.00000E+00  9.000E+00
#rwgt            1           1   3.1608900663229342E-002           3      302720           0
</event>
<event>
      5   9999  3.19816E-02  1.27663E+01 -1.00000E+00  1.84245E-01
      21    -1     0     0   502   501  0.000000000E+00  0.000000000E+00  1.979705366E+03  1.979705366E+03  0.000000000E+00  0.00000E+00  9.000E+00
      21    -1     0     0   511   502  0.000000000E+00  0.000000000E+00 -9.842560981E+01  9.842560981E+01  0.000000000E+00  0.00000E+00  9.000E+00
      25     1     1     2     0     0 -6.390791168E-02  2.291828870E+02  1.488007020E+03  1.510733163E+03  1.250000000E+02  0.00000E+00  9.000E+00
      25     1     1     2     0     0  9.520051102E+00 -2.206061157E+02  4.460112288E+02  5.131361475E+02  1.250000000E+02  0.00000E+00  9.000E+00
      21     1     1     2   511   501 -9.456143191E+00 -8.576771335E+00 -5.273849266E+01  5.426166473E+01  1.784161275E-06  0.00000E+00  9.000E+00
#rwgt            2          11   6.3011438657098479E-003           3      302812           0
</event>
<event>
      5   9999  3.19816E-02  9.82099E+01 -1.00000E+00  1.24182E-01
      21    -1     0     0   502   501  0.000000000E+00  0.000000000E+00  6.685930894E+02  6.685930894E+02  0.000000000E+00  0.00000E+00  9.000E+00
      21    -1     0     0   501   512  0.000000000E+00  0.000000000E+00 -2.884091618E+02  2.884091618E+02  0.000000000E+00  0.00000E+00  9.000E+00
      25     1     1     2     0     0 -1.751279427E+02  7.116824070E+01  5.663841022E+02  6.100415281E+02  1.250000000E+02  0.00000E+00  9.000E+00
      25     1     1     2     0     0  7.779485906E+01 -8.426222960E+01 -1.817987400E+02  2.486522578E+02  1.250000000E+02  0.00000E+00  9.000E+00
      21     1     1     2   502   512  9.733308367E+01  1.309398890E+01 -4.401434746E+00  9.830846530E+01  1.157312860E-06  0.00000E+00  9.000E+00
#rwgt            1           1   2.4303297833567650E-002           3      302832           0
</event>
<event>
      5   9999  3.19816E-02  2.89181E+01 -1.00000E+00  1.54156E-01
      21    -1     0     0   511   501  0.000000000E+00  0.000000000E+00  5.208948699E+01  5.208948699E+01  0.000000000E+00  0.00000E+00  9.000E+00
      21    -1     0     0   501   502  0.000000000E+00  0.000000000E+00 -1.071314160E+03  1.071314160E+03  0.000000000E+00  0.00000E+00  9.000E+00
      25     1     1     2     0     0 -7.117132644E+01  1.269499437E+02 -2.616576131E+02  3.244554706E+02  1.250000000E+02  0.00000E+00  9.000E+00
      25     1     1     2     0     0  7.823553155E+01 -1.549918940E+02 -7.224319500E+02  7.534429030E+02  1.250000000E+02  0.00000E+00  9.000E+00
      21     1     1     2   511   502 -7.064205114E+00  2.804195031E+01 -3.513511018E+01  4.550527375E+01  9.536743164E-07  0.00000E+00  9.000E+00
#rwgt            1           1   2.4775991121090409E-002           3      302913           0
</event>
<event>
      5   9999  3.19816E-02  2.61254E+01 -1.00000E+00  1.57332E-01
      21    -1     0     0   512   501  0.000000000E+00  0.000000000E+00  3.972349966E+02  3.972349966E+02  0.000000000E+00  0.00000E+00  9.000E+00
      21    -1     0     0   501   502  0.000000000E+00  0.000000000E+00 -2.345391471E+02  2.345391471E+02  0.000000000E+00  0.00000E+00  9.000E+00
      25     1     1     2     0     0 -2.391825354E+02  4.945593270E+01  6.042038450E+01  2.809444739E+02  1.250000000E+02  0.00000E+00  9.000E+00
      25     1     1     2     0     0  2.633476237E+02 -3.952687927E+01  5.862822028E+01  2.999610197E+02  1.250000000E+02  0.00000E+00  9.000E+00
      21     1     1     2   512   502 -2.416508833E+01 -9.929053430E+00  4.364724472E+01  5.086865015E+01  4.768371582E-07  0.00000E+00  9.000E+00
#rwgt            1           1   2.8650496251985669E-002           3      303009           0
</event>
<event>
      5   9999  3.19816E-02  3.04023E+01 -1.00000E+00  1.52639E-01
      21    -1     0     0   502   501  0.000000000E+00  0.000000000E+00  9.198092016E+02  9.198092016E+02  0.000000000E+00  0.00000E+00  9.000E+00
      21    -1     0     0   501   511  0.000000000E+00  0.000000000E+00 -1.201226810E+02  1.201226810E+02  0.000000000E+00  0.00000E+00  9.000E+00
      25     1     1     2     0     0  2.907124896E+02 -7.119058821E+01  4.509025594E+02  5.554457395E+02  1.250000000E+02  0.00000E+00  9.000E+00
      25     1     1     2     0     0 -2.614931628E+02  7.958896293E+01  3.378058987E+02  4.521624734E+02  1.250000000E+02  0.00000E+00  9.000E+00
      21     1     1     2   502   511 -2.921932684E+01 -8.398374721E+00  1.097806257E+01  3.232366961E+01  4.298152060E-07  0.00000E+00  9.000E+00
#rwgt            1           1   3.2151231972039278E-002           3      303190           0
</event>
<event>
      5   9999  3.19816E-02  1.69200E+01 -1.00000E+00  1.72593E-01
      21    -1     0     0   502   501  0.000000000E+00  0.000000000E+00  1.737786756E+02  1.737786756E+02  0.000000000E+00  0.00000E+00  9.000E+00
      21    -1     0     0   501   512  0.000000000E+00  0.000000000E+00 -1.072227573E+03  1.072227573E+03  0.000000000E+00  0.00000E+00  9.000E+00
      25     1     1     2     0     0  2.706718808E+02 -2.617788417E+02 -2.551018456E+02  4.716920400E+02  1.250000000E+02  0.00000E+00  9.000E+00
      25     1     1     2     0     0 -2.642967901E+02  2.774518521E+02 -5.642211126E+02  6.933994429E+02  1.250000000E+02  0.00000E+00  9.000E+00
      21     1     1     2   502   512 -6.375090629E+00 -1.567301043E+01 -7.912593939E+01  8.091476578E+01  9.536743164E-07  0.00000E+00  9.000E+00
#rwgt            1           1   2.6717961989172114E-002           3      303288           0
</event>
<event>
      5   9999  3.19816E-02  7.75604E+01 -1.00000E+00  1.29004E-01
      21    -1     0     0   502   511  0.000000000E+00  0.000000000E+00  6.370967166E+02  6.370967166E+02  0.000000000E+00  0.00000E+00  9.000E+00
      21    -1     0     0   501   502  0.000000000E+00  0.000000000E+00 -1.969831957E+03  1.969831957E+03  0.000000000E+00  0.00000E+00  9.000E+00
      25     1     1     2     0     0 -4.123438477E+02 -5.282601493E+02 -7.667468710E+02  1.025968810E+03  1.250000000E+02  0.00000E+00  9.000E+00
      25     1     1     2     0     0  4.018254491E+02  4.514163124E+02 -9.808832821E+02  1.158877643E+03  1.250000000E+02  0.00000E+00  9.000E+00
      21     1     1     2   501   511  1.051839861E+01  7.684383696E+01  4.148949131E+02  4.220822206E+02  7.629394531E-06  0.00000E+00  9.000E+00
#rwgt            1           1   2.6142046435590306E-002           3      303520           0
</event>
<event>
      5   9999  3.19816E-02  3.42865E+01 -1.00000E+00  1.49117E-01
      21    -1     0     0   502   512  0.000000000E+00  0.000000000E+00  1.242201117E+03  1.242201117E+03  0.000000000E+00  0.00000E+00  9.000E+00
      21    -1     0     0   501   502  0.000000000E+00  0.000000000E+00 -1.777990233E+02  1.777990233E+02  0.000000000E+00  0.00000E+00  9.000E+00
      25     1     1     2     0     0 -3.091929025E+02  1.085692762E+02  8.604783658E+01  3.611326195E+02  1.250000000E+02  0.00000E+00  9.000E+00
      25     1     1     2     0     0  3.145593499E+02 -1.424332298E+02  9.272962307E+02  9.973655844E+02  1.250000000E+02  0.00000E+00  9.000E+00
      21     1     1     2   501   512 -5.366447393E+00  3.386395361E+01  5.105802642E+01  6.150193634E+01  1.168007728E-06  0.00000E+00  9.000E+00
#rwgt            1           1   2.8517924006259594E-002           3      303637           0
</event>
<event>
      5   9999  3.19816E-02  1.55246E+01 -1.00000E+00  1.75988E-01
      21    -1     0     0   511   501  0.000000000E+00  0.000000000E+00  7.490098917E+01  7.490098917E+01  0.000000000E+00  0.00000E+00  9.000E+00
      21    -1     0     0   501   502  0.000000000E+00  0.000000000E+00 -5.296952884E+02  5.296952884E+02  0.000000000E+00  0.00000E+00  9.000E+00
      25     1     1     2     0     0 -7.158110970E+01  8.016843770E+01 -3.112995209E+02  3.522544895E+02  1.250000000E+02  0.00000E+00  9.000E+00
      25     1     1     2     0     0  8.552374800E+01 -7.334073506E+01 -1.581941184E+02  2.309622350E+02  1.250000000E+02  0.00000E+00  9.000E+00
      21     1     1     2   511   502 -1.394263830E+01 -6.827702641E+00  1.469934015E+01  2.137955301E+01  2.920019320E-07  0.00000E+00  9.000E+00
#rwgt            1           1   3.1006245305226356E-002           3      303761           0
</event>
<event>
      5   9999  3.19816E-02  1.05098E+02 -1.00000E+00  1.22864E-01
      21    -1     0     0   512   501  0.000000000E+00  0.000000000E+00  3.005365724E+02  3.005365724E+02  0.000000000E+00  0.00000E+00  9.000E+00
      21    -1     0     0   501   502  0.000000000E+00  0.000000000E+00 -8.622006095E+02  8.622006095E+02  0.000000000E+00  0.00000E+00  9.000E+00
      25     1     1     2     0     0 -3.554772291E+02 -1.102896974E+02 -5.383942435E+02  6.663491872E+02  1.250000000E+02  0.00000E+00  9.000E+00
      25     1     1     2     0     0  3.697771252E+02  6.169575521E+00 -2.608676445E+01  3.912527384E+02  1.250000000E+02  0.00000E+00  9.000E+00
      21     1     1     2   512   502 -1.429989610E+01  1.041201219E+02  2.816970833E+00  1.051352564E+02  1.926807150E-06  0.00000E+00  9.000E+00
#rwgt            2          11   4.8922733374209418E-003           3      304123           0
</event>
<event>
      5   9999  3.19816E-02  3.57406E+01 -1.00000E+00  1.47939E-01
      21    -1     0     0   511   501  0.000000000E+00  0.000000000E+00  2.668436230E+02  2.668436230E+02  0.000000000E+00  0.00000E+00  9.000E+00
      21    -1     0     0   501   502  0.000000000E+00  0.000000000E+00 -1.911865974E+03  1.911865974E+03  0.000000000E+00  0.00000E+00  9.000E+00
      25     1     1     2     0     0 -1.429027645E+02 -7.019053692E+01 -1.690702514E+03  1.702776528E+03  1.250000000E+02  0.00000E+00  9.000E+00
      25     1     1     2     0     0  1.235601240E+02  1.002447274E+02 -1.657143854E+02  2.615384621E+02  1.250000000E+02  0.00000E+00  9.000E+00
      21     1     1     2   511   502  1.934264051E+01 -3.005419047E+01  2.113945490E+02  2.143946069E+02  3.814697266E-06  0.00000E+00  9.000E+00
#rwgt            1           1   2.6145503006553019E-002           3      304143           0
</event>
<event>
      5   9999  3.19816E-02  7.80162E+01 -1.00000E+00  1.28880E-01
      21    -1     0     0   502   501  0.000000000E+00  0.000000000E+00  1.409922471E+03  1.409922471E+03  0.000000000E+00  0.00000E+00  9.000E+00
      21    -1     0     0   512   502  0.000000000E+00  0.000000000E+00 -1.473343116E+02  1.473343116E+02  0.000000000E+00  0.00000E+00  9.000E+00
      25     1     1     2     0     0  1.269050641E+02  2.836465907E+02  1.031913263E+03  1.084910257E+03  1.250000000E+02  0.00000E+00  9.000E+00
      25     1     1     2     0     0 -5.105109768E+01 -3.018868878E+02  1.613007473E+02  3.679467878E+02  1.250000000E+02  0.00000E+00  9.000E+00
      21     1     1     2   512   501 -7.585396643E+01  1.824029712E+01  6.937414914E+01  1.043997377E+02  2.336015456E-06  0.00000E+00  9.000E+00
#rwgt            2          11   4.7062943789508878E-003           3      304527           0
</event>
<event>
      5   9999  3.19816E-02  2.33985E+01 -1.00000E+00  1.60935E-01
      21    -1     0     0   502   501  0.000000000E+00  0.000000000E+00  3.434732971E+02  3.434732971E+02  0.000000000E+00  0.00000E+00  9.000E+00
       2    -1     0     0   501     0  0.000000000E+00  0.000000000E+00 -1.176213237E+03  1.176213237E+03  0.000000000E+00  0.00000E+00  9.000E+00
      25     1     1     2     0     0 -1.270927776E+02 -3.840506289E+02 -2.831590055E+02  5.093638013E+02  1.250000000E+02  0.00000E+00  9.000E+00
      25     1     1     2     0     0  1.051031665E+02  3.920472093E+02  3.419557730E+01  4.260774899E+02  1.250000000E+02  0.00000E+00  9.000E+00
       2     1     1     2   502     0  2.198961113E+01 -7.996580365E+00 -5.837765113E+02  5.842452425E+02  0.000000000E+00  0.00000E+00  9.000E+00
#rwgt            1           1   2.6476813763114986E-002           3      304562           0
</event>
<event>
      5   9999  3.19816E-02  2.87008E+01 -1.00000E+00  1.54387E-01
      21    -1     0     0   511   501  0.000000000E+00  0.000000000E+00  1.870115721E+02  1.870115721E+02  0.000000000E+00  0.00000E+00  9.000E+00
      21    -1     0     0   501   502  0.000000000E+00  0.000000000E+00 -2.615680871E+02  2.615680871E+02  0.000000000E+00  0.00000E+00  9.000E+00
      25     1     1     2     0     0 -6.461083056E+01  1.888616526E+01 -1.912261173E+02  2.381673248E+02  1.250000000E+02  0.00000E+00  9.000E+00
      25     1     1     2     0     0  3.773276055E+01 -8.821021357E+00  5.416796877E+01  1.416359434E+02  1.250000000E+02  0.00000E+00  9.000E+00
      21     1     1     2   511   502  2.687807001E+01 -1.006514390E+01  6.250163348E+01  6.877639099E+01  6.743495762E-07  0.00000E+00  9.000E+00
#rwgt            1           1   3.0684318133247471E-002           3      304652           0
</event>
<event>
      5   9999  3.19816E-02  5.77325E+01 -1.00000E+00  1.35604E-01
      21    -1     0     0   502   501  0.000000000E+00  0.000000000E+00  6.164185764E+02  6.164185764E+02  0.000000000E+00  0.00000E+00  9.000E+00
      21    -1     0     0   512   502  0.000000000E+00  0.000000000E+00 -1.398194482E+02  1.398194482E+02  0.000000000E+00  0.00000E+00  9.000E+00
      25     1     1     2     0     0 -1.277371991E+02  1.779893724E+02  3.027017523E+02  3.940182224E+02  1.250000000E+02  0.00000E+00  9.000E+00
      25     1     1     2     0     0  1.415727204E+02 -1.219392441E+02  1.980859566E+02  2.996248665E+02  1.250000000E+02  0.00000E+00  9.000E+00
      21     1     1     2   512   501 -1.383552134E+01 -5.605012833E+01 -2.418858078E+01  6.259493571E+01  8.259061849E-07  0.00000E+00  9.000E+00
#rwgt            1           1   2.8280775433147422E-002           3      304778           0
</event>
<event>
      5   9999  3.19816E-02  1.00136E+02 -1.00000E+00  1.23801E-01
       2    -1     0     0   502     0  0.000000000E+00  0.000000000E+00  2.885661145E+03  2.885661145E+03  0.000000000E+00  0.00000E+00  9.000E+00
      21    -1     0     0   501   502  0.000000000E+00  0.000000000E+00 -2.096301313E+02  2.096301313E+02  0.000000000E+00  0.00000E+00  9.000E+00
      25     1     1     2     0     0 -5.519050622E+02  1.574515263E+02  4.746547375E+02  7.551902414E+02  1.250000000E+02  0.00000E+00  9.000E+00
      25     1     1     2     0     0  6.496763240E+02 -1.790860793E+02  1.790614083E+03  1.917309298E+03  1.250000000E+02  0.00000E+00  9.000E+00
       2     1     1     2   501     0 -9.777126180E+01  2.163455296E+01  4.107621933E+02  4.227917371E+02  7.629394531E-06  0.00000E+00  9.000E+00
#rwgt            2          18   9.5462804726538042E-004           3      305045           0
</event>
<event>
      5   9999  3.19816E-02  9.88355E+01 -1.00000E+00  1.24057E-01
      -1    -1     0     0     0   501  0.000000000E+00  0.000000000E+00  4.361451049E+02  4.361451049E+02  0.000000000E+00  0.00000E+00  9.000E+00
      21    -1     0     0   501   502  0.000000000E+00  0.000000000E+00 -2.056406406E+02  2.056406406E+02  0.000000000E+00  0.00000E+00  9.000E+00
      25     1     1     2     0     0  5.724106458E+01  3.930877402E+01  5.938857876E+00  1.431153004E+02  1.250000000E+02  0.00000E+00  9.000E+00
      25     1     1     2     0     0  2.866048728E+01 -8.819007177E+01 -8.245550829E+01  1.761329700E+02  1.250000000E+02  0.00000E+00  9.000E+00
      -1     1     1     2     0   502 -8.590155186E+01  4.888129774E+01  3.070211147E+02  3.225374750E+02  3.814697266E-06  0.00000E+00  9.000E+00
#rwgt            1           1   2.9126399731729938E-002           3      305064           0
</event>
<event>
      5   9999  3.19816E-02  1.47528E+02 -1.00000E+00  1.16680E-01
      21    -1     0     0   502   501  0.000000000E+00  0.000000000E+00  5.626875450E+02  5.626875450E+02  0.000000000E+00  0.00000E+00  9.000E+00
      21    -1     0     0   511   502  0.000000000E+00  0.000000000E+00 -6.299473974E+02  6.299473974E+02  0.000000000E+00  0.00000E+00  9.000E+00
      25     1     1     2     0     0 -2.914127408E+02 -2.740725725E+02 -2.016448776E+02  4.651051679E+02  1.250000000E+02  0.00000E+00  9.000E+00
      25     1     1     2     0     0  3.879637878E+02  3.856180355E+02  1.452475359E+02  5.796024643E+02  1.250000000E+02  0.00000E+00  9.000E+00
      21     1     1     2   511   501 -9.655104700E+01 -1.115454630E+02 -1.086251059E+01  1.479273103E+02  2.759894586E-06  0.00000E+00  9.000E+00
#rwgt            1           1   3.1704133306167864E-002           3      305105           0
</event>
<event>
      5   9999  3.19816E-02  1.01141E+02 -1.00000E+00  1.23607E-01
      21    -1     0     0   502   501  0.000000000E+00  0.000000000E+00  2.355905073E+02  2.355905073E+02  0.000000000E+00  0.00000E+00  9.000E+00
      21    -1     0     0   512   502  0.000000000E+00  0.000000000E+00 -1.689792147E+03  1.689792147E+03  0.000000000E+00  0.00000E+00  9.000E+00
      25     1     1     2     0     0  5.155746135E+02 -2.382760781E+01 -3.131224931E+02  6.164865227E+02  1.250000000E+02  0.00000E+00  9.000E+00
      25     1     1     2     0     0 -5.074331017E+02  1.246402761E+02 -9.120557718E+02  1.058534025E+03  1.250000000E+02  0.00000E+00  9.000E+00
      21     1     1     2   512   501 -8.141511779E+00 -1.008126683E+02 -2.290233748E+02  2.503621068E+02  2.697398305E-06  0.00000E+00  9.000E+00
#rwgt            2          11   4.3030585735272953E-003           3      305267           0
</event>
<event>
      5   9999  3.19816E-02  1.17268E+02 -1.00000E+00  1.20794E-01
      21    -1     0     0   502   501  0.000000000E+00  0.000000000E+00  6.043098490E+02  6.043098490E+02  0.000000000E+00  0.00000E+00  9.000E+00
      21    -1     0     0   501   511  0.000000000E+00  0.000000000E+00 -5.644235808E+02  5.644235808E+02  0.000000000E+00  0.00000E+00  9.000E+00
      25     1     1     2     0     0  3.201978965E+02 -9.665200292E+01 -1.435591099E+02  3.848409030E+02  1.250000000E+02  0.00000E+00  9.000E+00
      25     1     1     2     0     0 -2.767735971E+02  2.055832357E+02  3.968723596E+02  5.403709473E+02  1.250000000E+02  0.00000E+00  9.000E+00
      21     1     1     2   502   511 -4.342429938E+01 -1.089312328E+02 -2.134269815E+02  2.435215795E+02  2.697398305E-06  0.00000E+00  9.000E+00
#rwgt            1           1   2.6106837540564237E-002           3      305287           0
</event>
<event>
      5   9999  3.19816E-02  1.49980E+02 -1.00000E+00  1.16396E-01
      21    -1     0     0   512   501  0.000000000E+00  0.000000000E+00  1.102243641E+03  1.102243641E+03  0.000000000E+00  0.00000E+00  9.000E+00
      21    -1     0     0   501   502  0.000000000E+00  0.000000000E+00 -3.331031487E+02  3.331031487E+02  0.000000000E+00  0.00000E+00  9.000E+00
      25     1     1     2     0     0 -3.957106652E+01  1.470074545E+02  6.925657169E+02  7.200342583E+02  1.250000000E+02  0.00000E+00  9.000E+00
      25     1     1     2     0     0 -1.100143927E+02 -1.361382769E+02 -2.655669697E+02  3.417420262E+02  1.250000000E+02  0.00000E+00  9.000E+00
      21     1     1     2   512   502  1.495854592E+02 -1.086917753E+01  3.421417446E+02  3.735705048E+02  6.607249480E-06  0.00000E+00  9.000E+00
#rwgt            1           1   2.7135719660151492E-002           3      305407           0
</event>
<event>
      5   9999  3.19816E-02  2.44905E+01 -1.00000E+00  1.59424E-01
      21    -1     0     0   502   511  0.000000000E+00  0.000000000E+00  4.377730254E+02  4.377730254E+02  0.000000000E+00  0.00000E+00  9.000E+00
      21    -1     0     0   501   502  0.000000000E+00  0.000000000E+00 -3.539457752E+02  3.539457752E+02  0.000000000E+00  0.00000E+00  9.000E+00
      25     1     1     2     0     0 -1.451919288E+02  2.672936023E+02  1.795320110E+02  3.746776067E+02  1.250000000E+02  0.00000E+00  9.000E+00
      25     1     1     2     0     0  1.653753926E+02 -2.811647988E+02 -1.318509897E+02  3.733796299E+02  1.250000000E+02  0.00000E+00  9.000E+00
      21     1     1     2   501   511 -2.018346385E+01  1.387119648E+01  3.614622887E+01  4.366156394E+01  8.259061849E-07  0.00000E+00  9.000E+00
#rwgt            1           1   2.4323900447196307E-002           3      305495           0
</event>
<event>
      5   9999  3.19816E-02  3.07545E+01 -1.00000E+00  1.52294E-01
      21    -1     0     0   502   501  0.000000000E+00  0.000000000E+00  2.230920703E+02  2.230920703E+02  0.000000000E+00  0.00000E+00  9.000E+00
      21    -1     0     0   512   502  0.000000000E+00  0.000000000E+00 -7.691845241E+02  7.691845241E+02  0.000000000E+00  0.00000E+00  9.000E+00
      25     1     1     2     0     0 -3.432114071E+02 -6.848034854E+00 -1.066156292E+02  3.805691238E+02  1.250000000E+02  0.00000E+00  9.000E+00
      25     1     1     2     0     0  3.356883014E+02 -2.297211409E+01 -2.968098470E+02  4.657632864E+02  1.250000000E+02  0.00000E+00  9.000E+00
      21     1     1     2   512   501  7.523105755E+00  2.982014894E+01 -1.426669776E+02  1.459441842E+02  2.697398305E-06  0.00000E+00  9.000E+00
#rwgt            1           1   2.5260508584276212E-002           3      305590           0
</event>
<event>
      5   9999  3.19816E-02  1.81508E+02 -1.00000E+00  1.13204E-01
      21    -1     0     0   502   501  0.000000000E+00  0.000000000E+00  3.906877611E+02  3.906877611E+02  0.000000000E+00  0.00000E+00  9.000E+00
       2    -1     0     0   501     0  0.000000000E+00  0.000000000E+00 -2.973459526E+03  2.973459526E+03  0.000000000E+00  0.00000E+00  9.000E+00
      25     1     1     2     0     0 -6.107205375E+02  1.717752510E+01 -7.581017506E+02  9.816404161E+02  1.250000000E+02  0.00000E+00  9.000E+00
      25     1     1     2     0     0  7.340335745E+02 -1.503658428E+02 -2.533911149E+02  8.007791407E+02  1.250000000E+02  0.00000E+00  9.000E+00
       2     1     1     2   502     0 -1.233130370E+02  1.331883177E+02 -1.571278899E+03  1.581727730E+03  2.157918644E-05  0.00000E+00  9.000E+00
#rwgt            1           1   2.4515475006683114E-002           3      305761           0
</event>
<event>
      5   9999  3.19816E-02  6.72100E+00 -1.00000E+00  2.18081E-01
      21    -1     0     0   502   501  0.000000000E+00  0.000000000E+00  2.512182193E+02  2.512182193E+02  0.000000000E+00  0.00000E+00  9.000E+00
      21    -1     0     0   511   502  0.000000000E+00  0.000000000E+00 -1.200357199E+02  1.200357199E+02  0.000000000E+00  0.00000E+00  9.000E+00
      25     1     1     2     0     0 -1.137665744E+02 -1.845995985E+01  6.181741222E+01  1.809143334E+02  1.250000000E+02  0.00000E+00  9.000E+00
      25     1     1     2     0     0  1.073319965E+02  2.040109106E+01  7.441666224E+01  1.819318598E+02  1.250000000E+02  0.00000E+00  9.000E+00
      21     1     1     2   511   501  6.434577948E+00 -1.941131213E+00 -5.051575087E+00  8.407746108E+00  1.788139343E-07  0.00000E+00  9.000E+00
#rwgt            1           1   2.7129892602389471E-002           3      305864           0
</event>
<event>
      5   9999  3.19816E-02  2.93943E+01 -1.00000E+00  1.53658E-01
      21    -1     0     0   512   501  0.000000000E+00  0.000000000E+00  1.600625641E+02  1.600625641E+02  0.000000000E+00  0.00000E+00  9.000E+00
      21    -1     0     0   501   502  0.000000000E+00  0.000000000E+00 -5.056322792E+02  5.056322792E+02  0.000000000E+00  0.00000E+00  9.000E+00
      25     1     1     2     0     0  5.625612400E+01  2.348593354E+01  6.563727176E+01  1.537842385E+02  1.250000000E+02  0.00000E+00  9.000E+00
      25     1     1     2     0     0 -4.393658479E+01 -5.017403017E+01 -4.450660572E+02  4.670724270E+02  1.250000000E+02  0.00000E+00  9.000E+00
      21     1     1     2   512   502 -1.231953922E+01  2.668809663E+01  3.385907036E+01  4.483817786E+01  8.259061849E-07  0.00000E+00  9.000E+00
#rwgt            1           1   3.3901057203720483E-002           3      306028           0
</event>
<event>
      5   9999  3.19816E-02  1.16762E+02 -1.00000E+00  1.20875E-01
       2    -1     0     0   502     0  0.000000000E+00  0.000000000E+00  1.888595720E+03  1.888595720E+03  0.000000000E+00  0.00000E+00  9.000E+00
      21    -1     0     0   501   502  0.000000000E+00  0.000000000E+00 -7.701433835E+02  7.701433835E+02  0.000000000E+00  0.00000E+00  9.000E+00
      25     1     1     2     0     0 -9.158897796E+01 -1.972150445E+02  1.114521263E+03  1.142394398E+03  1.250000000E+02  0.00000E+00  9.000E+00
      25     1     1     2     0     0 -2.512581159E+01  2.005409792E+02 -7.328253241E+02  7.703933712E+02  1.250000000E+02  0.00000E+00  9.000E+00
       2     1     1     2   501     0  1.167147895E+02 -3.325934683E+00  7.367563976E+02  7.459513344E+02  1.078959322E-05  0.00000E+00  9.000E+00
#rwgt            1           1   3.1914272230459298E-002           3      306173           0
</event>
<event>
      5   9999  3.19816E-02  1.05582E+02 -1.00000E+00  1.22776E-01
       2    -1     0     0   502     0  0.000000000E+00  0.000000000E+00  1.952439915E+03  1.952439915E+03  0.000000000E+00  0.00000E+00  9.000E+00
      21    -1     0     0   501   502  0.000000000E+00  0.000000000E+00 -2.748652727E+02  2.748652727E+02  0.000000000E+00  0.00000E+00  9.000E+00
      25     1     1     2     0     0  3.765324940E+02 -9.575869782E+01  3.519607099E+02  5.389320816E+02  1.250000000E+02  0.00000E+00  9.000E+00
      25     1     1     2     0     0 -2.709821224E+02  9.318351254E+01 -4.310255197E+01  3.155904112E+02  1.250000000E+02  0.00000E+00  9.000E+00
       2     1     1     2   501     0 -1.055503716E+02  2.575185274E+00  1.368716485E+03  1.372782695E+03  2.642899792E-05  0.00000E+00  9.000E+00
#rwgt            2          18   2.0511636135922265E-003           3      306640           0
</event>
<event>
      5   9999  3.19816E-02  2.28668E+01 -1.00000E+00  1.61708E-01
      21    -1     0     0   502   501  0.000000000E+00  0.000000000E+00  2.003486473E+02  2.003486473E+02  0.000000000E+00  0.00000E+00  9.000E+00
      21    -1     0     0   501   511  0.000000000E+00  0.000000000E+00 -2.417692122E+02  2.417692122E+02  0.000000000E+00  0.00000E+00  9.000E+00
      25     1     1     2     0     0  8.452252828E+01  1.155585716E+02  4.347823882E+01  1.949697374E+02  1.250000000E+02  0.00000E+00  9.000E+00
      25     1     1     2     0     0 -1.042791011E+02 -1.270723943E+02 -6.408020423E+01  2.162239508E+02  1.250000000E+02  0.00000E+00  9.000E+00
      21     1     1     2   502   511  1.975657282E+01  1.151382268E+01 -2.081859949E+01  3.092417124E+01  2.384185791E-07  0.00000E+00  9.000E+00
#rwgt            1           1   2.9075292023919008E-002           3      306674           0
</event>
<event>
      5   9999  5.51366E-02  1.26109E+01 -1.00000E+00  1.84789E-01
      21    -1     0     0   512   501  0.000000000E+00  0.000000000E+00  1.955927229E+03  1.955927229E+03  0.000000000E+00  0.00000E+00  9.000E+00
      21    -1     0     0   501   502  0.000000000E+00  0.000000000E+00 -1.571443341E+01  1.571443341E+01  0.000000000E+00  0.00000E+00  9.000E+00
      25     1     1     2     0     0  5.558348648E+01  5.388919454E+01  1.080785106E+03  1.090740580E+03  1.250000000E+02  0.00000E+00  9.000E+00
      25     1     1     2     0     0 -4.987211888E+01 -6.513258940E+01  5.155591598E+02  5.368013875E+02  1.250000000E+02  0.00000E+00  9.000E+00
      21     1     1     2   512   502 -5.711367595E+00  1.124339486E+01  3.438685301E+02  3.440996944E+02  0.000000000E+00  0.00000E+00  9.000E+00
#rwgt            1           1  0.28202214501199357                3      306813           0
</event>
<event>
      5   9999  3.19816E-02  1.01030E+02 -1.00000E+00  1.23628E-01
      21    -1     0     0   502   501  0.000000000E+00  0.000000000E+00  1.228532894E+03  1.228532894E+03  0.000000000E+00  0.00000E+00  9.000E+00
      21    -1     0     0   511   502  0.000000000E+00  0.000000000E+00 -8.061733357E+01  8.061733357E+01  0.000000000E+00  0.00000E+00  9.000E+00
      25     1     1     2     0     0  2.215785770E+02  7.963436405E+01  5.658386710E+02  6.254894878E+02  1.250000000E+02  0.00000E+00  9.000E+00
      25     1     1     2     0     0 -1.592548802E+02 -1.591511368E+02  4.141550900E+02  4.876890810E+02  1.250000000E+02  0.00000E+00  9.000E+00
      21     1     1     2   511   501 -6.232369673E+01  7.951677272E+01  1.679217996E+02  1.959716590E+02  0.000000000E+00  0.00000E+00  9.000E+00
#rwgt            1           1   3.0092989215867894E-002           3      307007           0
</event>
<event>
      5   9999  3.19816E-02  5.54909E+01 -1.00000E+00  1.36542E-01
      21    -1     0     0   502   501  0.000000000E+00  0.000000000E+00  4.894149463E+02  4.894149463E+02  0.000000000E+00  0.00000E+00  9.000E+00
      21    -1     0     0   501   512  0.000000000E+00  0.000000000E+00 -2.210346138E+02  2.210346138E+02  0.000000000E+00  0.00000E+00  9.000E+00
      25     1     1     2     0     0  1.637122867E+01  7.392786492E+01  7.765396737E+01  1.654946676E+02  1.250000000E+02  0.00000E+00  9.000E+00
      25     1     1     2     0     0  1.366302666E+01 -1.205881484E+02  3.420029839E+02  3.838218608E+02  1.250000000E+02  0.00000E+00  9.000E+00
      21     1     1     2   502   512 -3.003425534E+01  4.666028352E+01 -1.512766188E+02  1.611330318E+02  0.000000000E+00  0.00000E+00  9.000E+00
#rwgt            1           1   2.6281665582787907E-002           3      307068           0
</event>
<event>
      5   9999  3.19816E-02  1.46646E+02 -1.00000E+00  1.16784E-01
      21    -1     0     0   511   501  0.000000000E+00  0.000000000E+00  6.017849824E+02  6.017849824E+02  0.000000000E+00  0.00000E+00  9.000E+00
      21    -1     0     0   501   502  0.000000000E+00  0.000000000E+00 -2.214325475E+02  2.214325475E+02  0.000000000E+00  0.00000E+00  9.000E+00
      25     1     1     2     0     0  1.444139421E+02 -1.262028023E+01 -4.340693674E+01  1.962748591E+02  1.250000000E+02  0.00000E+00  9.000E+00
      25     1     1     2     0     0 -2.172625702E+02 -1.146511067E+02  1.437686661E+02  3.108734952E+02  1.250000000E+02  0.00000E+00  9.000E+00
      21     1     1     2   511   502  7.284862809E+01  1.272713870E+02  2.799907055E+02  3.160691756E+02  0.000000000E+00  0.00000E+00  9.000E+00
#rwgt            1           1   2.9834997392137269E-002           3      307158           0
</event>
<event>
      5   9999  3.19816E-02  5.36993E+01 -1.00000E+00  1.37330E-01
      21    -1     0     0   502   512  0.000000000E+00  0.000000000E+00  1.226092731E+02  1.226092731E+02  0.000000000E+00  0.00000E+00  9.000E+00
      21    -1     0     0   501   502  0.000000000E+00  0.000000000E+00 -1.033463475E+03  1.033463475E+03  0.000000000E+00  0.00000E+00  9.000E+00
      25     1     1     2     0     0 -6.513547362E+01  1.462152145E+02 -4.339915266E+02  4.791608957E+02  1.250000000E+02  0.00000E+00  9.000E+00
      25     1     1     2     0     0  6.506153502E+01 -9.251592405E+01 -5.561580570E+02  5.811445465E+02  1.250000000E+02  0.00000E+00  9.000E+00
      21     1     1     2   501   512  7.393859527E-02 -5.369929045E+01  7.929538183E+01  9.576730570E+01  4.473129043E-06  0.00000E+00  9.000E+00
#rwgt            1           1   3.0157074240063638E-002           3      307229           0
</event>
<event>
      5   9999  3.19816E-02  4.34555E+01 -1.00000E+00  1.42643E-01
      21    -1     0     0   502   501  0.000000000E+00  0.000000000E+00  1.464546018E+02  1.464546018E+02  0.000000000E+00  0.00000E+00  9.000E+00
      -1    -1     0     0     0   502  0.000000000E+00  0.000000000E+00 -9.760563143E+02  9.760563143E+02  0.000000000E+00  0.00000E+00  9.000E+00
      25     1     1     2     0     0  1.378090810E+01 -2.588687886E+02 -2.327638497E+02  3.701445297E+02  1.250000000E+02  0.00000E+00  9.000E+00
      25     1     1     2     0     0 -3.115645984E+01  2.986993590E+02 -2.702754353E+02  4.229253397E+02  1.250000000E+02  0.00000E+00  9.000E+00
      -1     1     1     2     0   501  1.737555174E+01 -3.983057032E+01 -3.265624276E+02  3.294410467E+02  0.000000000E+00  0.00000E+00  9.000E+00
#rwgt            1           1   2.6746814625531364E-002           3      307319           0
</event>
<event>
      5   9999  3.19816E-02  2.61227E+02 -1.00000E+00  1.07582E-01
       2    -1     0     0   502     0  0.000000000E+00  0.000000000E+00  3.613944164E+03  3.613944164E+03  0.000000000E+00  0.00000E+00  9.000E+00
      21    -1     0     0   501   502  0.000000000E+00  0.000000000E+00 -4.017438037E+01  4.017438037E+01  0.000000000E+00  0.00000E+00  9.000E+00
      25     1     1     2     0     0 -2.161493435E+01 -1.430908461E+02  1.755904661E+03  1.766286606E+03  1.250000000E+02  0.00000E+00  9.000E+00
      25     1     1     2     0     0 -2.122074964E+02  2.661490812E+01  8.556301923E+02  8.907684328E+02  1.250000000E+02  0.00000E+00  9.000E+00
       2     1     1     2   501     0  2.338224307E+02  1.164759380E+02  9.622349302E+02  9.970635055E+02  2.157918644E-05  0.00000E+00  9.000E+00
#rwgt            2          18   2.7346121539118329E-003           3      307460           0
</event>
<event>
      5   9999  3.19816E-02  2.30884E+02 -1.00000E+00  1.09424E-01
      21    -1     0     0   502   501  0.000000000E+00  0.000000000E+00  8.088720907E+02  8.088720907E+02  0.000000000E+00  0.00000E+00  9.000E+00
      21    -1     0     0   501   511  0.000000000E+00  0.000000000E+00 -1.534488991E+03  1.534488991E+03  0.000000000E+00  0.00000E+00  9.000E+00
      25     1     1     2     0     0 -6.348517865E+02 -1.830058085E+02  3.716479585E+02  7.682936430E+02  1.250000000E+02  0.00000E+00  9.000E+00
      25     1     1     2     0     0  8.642972574E+02  2.087385873E+02 -8.428148103E+02  1.231480147E+03  1.250000000E+02  0.00000E+00  9.000E+00
      21     1     1     2   502   511 -2.294454709E+02 -2.573277884E+01 -2.544500484E+02  3.435872919E+02  3.814697266E-06  0.00000E+00  9.000E+00
#rwgt            1           1   4.4116198153700908E-002           3      307479           0
</event>
<event>
      5   9999  3.19816E-02  2.29345E+01 -1.00000E+00  1.61608E-01
      21    -1     0     0   502   512  0.000000000E+00  0.000000000E+00  6.085285379E+02  6.085285379E+02  0.000000000E+00  0.00000E+00  9.000E+00
      21    -1     0     0   501   502  0.000000000E+00  0.000000000E+00 -2.679764447E+02  2.679764447E+02  0.000000000E+00  0.00000E+00  9.000E+00
      25     1     1     2     0     0 -5.023285734E+01  3.091362850E+02  2.300401759E+02  4.082059103E+02  1.250000000E+02  0.00000E+00  9.000E+00
      25     1     1     2     0     0  6.750920366E+01 -2.940524853E+02 -2.812216529E+01  3.277807390E+02  1.250000000E+02  0.00000E+00  9.000E+00
      21     1     1     2   501   512 -1.727634632E+01 -1.508379965E+01  1.386340825E+02  1.405183333E+02  1.907348633E-06  0.00000E+00  9.000E+00
#rwgt            1           1   2.7123780957971112E-002           3      307587           0
</event>
<event>
      5   9999  3.19816E-02  9.57539E+01 -1.00000E+00  1.24681E-01
      21    -1     0     0   502   501  0.000000000E+00  0.000000000E+00  2.459599187E+02  2.459599187E+02  0.000000000E+00  0.00000E+00  9.000E+00
      -3    -1     0     0     0   502  0.000000000E+00  0.000000000E+00 -8.303408582E+02  8.303408582E+02  0.000000000E+00  0.00000E+00  9.000E+00
      25     1     1     2     0     0  8.035725210E+01  3.378638128E+02 -3.283668289E+02  4.940232973E+02  1.250000000E+02  0.00000E+00  9.000E+00
      25     1     1     2     0     0  3.389679697E+00 -2.914390425E+02 -8.897247435E+00  3.172575711E+02  1.250000000E+02  0.00000E+00  9.000E+00
      -3     1     1     2     0   501 -8.374693180E+01 -4.642477028E+01 -2.471168631E+02  2.650199085E+02  3.814697266E-06  0.00000E+00  9.000E+00
#rwgt            1           1   3.0551214534907025E-002           3      307752           0
</event>
<event>
      5   9999  3.19816E-02  1.69059E+01 -1.00000E+00  1.72626E-01
      21    -1     0     0   511   501  0.000000000E+00  0.000000000E+00  9.564684697E+02  9.564684697E+02  0.000000000E+00  0.00000E+00  9.000E+00
      21    -1     0     0   501   502  0.000000000E+00  0.000000000E+00 -2.461945139E+03  2.461945139E+03  0.000000000E+00  0.00000E+00  9.000E+00
      25     1     1     2     0     0 -5.899518640E+02 -1.036843877E+02 -2.306882264E+03  2.386655491E+03  1.250000000E+02  0.00000E+00  9.000E+00
      25     1     1     2     0     0  5.986589139E+02  1.181756680E+02  8.012114261E+02  1.014851089E+03  1.250000000E+02  0.00000E+00  9.000E+00
      21     1     1     2   511   502 -8.707049874E+00 -1.449128033E+01  1.941680551E-01  1.690702885E+01  2.123578854E-07  0.00000E+00  9.000E+00
#rwgt            1           1   3.3278873635904975E-002           3      307808           0
</event>
<event>
      5   9999  3.19816E-02  2.36255E+02 -1.00000E+00  1.09076E-01
       1    -1     0     0   502     0  0.000000000E+00  0.000000000E+00  2.488109703E+02  2.488109703E+02  0.000000000E+00  0.00000E+00  9.000E+00
      21    -1     0     0   501   502  0.000000000E+00  0.000000000E+00 -9.637541744E+02  9.637541744E+02  0.000000000E+00  0.00000E+00  9.000E+00
      25     1     1     2     0     0 -1.122699079E+02 -8.065302035E+00 -3.276502072E+00  1.682418402E+02  1.250000000E+02  0.00000E+00  9.000E+00
      25     1     1     2     0     0  3.063689185E+02  1.427580280E+02 -7.229600686E+02  8.077982604E+02  1.250000000E+02  0.00000E+00  9.000E+00
       1     1     1     2   501     0 -1.940990106E+02 -1.346927260E+02  1.129336651E+01  2.365250441E+02  3.249409955E-06  0.00000E+00  9.000E+00
#rwgt            1           1   2.9449659850182396E-002           3      308086           0
</event>
<event>
      5   9999  3.19816E-02  3.63589E+01 -1.00000E+00  1.47459E-01
      21    -1     0     0   511   501  0.000000000E+00  0.000000000E+00  6.180617779E+02  6.180617779E+02  0.000000000E+00  0.00000E+00  9.000E+00
      21    -1     0     0   501   502  0.000000000E+00  0.000000000E+00 -5.255070405E+01  5.255070405E+01  0.000000000E+00  0.00000E+00  9.000E+00
      25     1     1     2     0     0  6.221894460E+01 -3.880837249E+01  1.419179651E+02  2.028373626E+02  1.250000000E+02  0.00000E+00  9.000E+00
      25     1     1     2     0     0 -7.161002039E+01  7.393353453E+01  3.531404733E+02  3.884937019E+02  1.250000000E+02  0.00000E+00  9.000E+00
      21     1     1     2   511   502  9.391075788E+00 -3.512516204E+01  7.045263544E+01  7.928141745E+01  9.536743164E-07  0.00000E+00  9.000E+00
#rwgt            1           1   2.4624729705088770E-002           3      308130           0
</event>
<event>
      5   9999  3.19816E-02  2.87402E+02 -1.00000E+00  1.06201E-01
      21    -1     0     0   502   501  0.000000000E+00  0.000000000E+00  3.467743974E+02  3.467743974E+02  0.000000000E+00  0.00000E+00  9.000E+00
      21    -1     0     0   512   502  0.000000000E+00  0.000000000E+00 -1.142688525E+03  1.142688525E+03  0.000000000E+00  0.00000E+00  9.000E+00
      25     1     1     2     0     0  2.910678654E+02 -3.328167128E+01 -9.526004883E+01  3.324569879E+02  1.250000000E+02  0.00000E+00  9.000E+00
      25     1     1     2     0     0 -4.920707614E+02  2.387021587E+02 -2.316747057E+02  6.069683056E+02  1.250000000E+02  0.00000E+00  9.000E+00
      21     1     1     2   512   501  2.010028960E+02 -2.054204874E+02 -4.689793736E+02  5.500376294E+02  5.394796609E-06  0.00000E+00  9.000E+00
#rwgt            1           1   3.2324074805441042E-002           3      308213           0
</event>
<event>
      5   9999  3.19816E-02  1.35153E+01 -1.00000E+00  1.81757E-01
       2    -1     0     0   502     0  0.000000000E+00  0.000000000E+00  4.030958958E+02  4.030958958E+02  0.000000000E+00  0.00000E+00  9.000E+00
      21    -1     0     0   501   502  0.000000000E+00  0.000000000E+00 -3.195786721E+02  3.195786721E+02  0.000000000E+00  0.00000E+00  9.000E+00
      25     1     1     2     0     0 -1.457275820E+02 -1.028935853E+02 -2.268907097E+00  2.178388533E+02  1.250000000E+02  0.00000E+00  9.000E+00
      25     1     1     2     0     0  1.336411122E+02  9.684543384E+01 -1.581477403E+02  2.605277196E+02  1.250000000E+02  0.00000E+00  9.000E+00
       2     1     1     2   501     0  1.208646979E+01  6.048151479E+00  2.439338712E+02  2.443079950E+02  2.697398305E-06  0.00000E+00  9.000E+00
#rwgt            1           1   2.4623451230458917E-002           3      308257           0
</event>
<event>
      5   9999  3.19816E-02  4.42396E+02 -1.00000E+00  1.00386E-01
      21    -1     0     0   502   511  0.000000000E+00  0.000000000E+00  8.591536939E+02  8.591536939E+02  0.000000000E+00  0.00000E+00  9.000E+00
      21    -1     0     0   501   502  0.000000000E+00  0.000000000E+00 -6.107477546E+02  6.107477546E+02  0.000000000E+00  0.00000E+00  9.000E+00
      25     1     1     2     0     0  1.189085525E+01 -1.416592486E+02 -1.909304454E+02  2.688645945E+02  1.250000000E+02  0.00000E+00  9.000E+00
      25     1     1     2     0     0  4.029653974E+02  2.953101659E+02 -7.742226990E+01  5.207767405E+02  1.250000000E+02  0.00000E+00  9.000E+00
      21     1     1     2   501   511 -4.148562527E+02 -1.536509173E+02  5.167586547E+02  6.802601135E+02  1.078959322E-05  0.00000E+00  9.000E+00
#rwgt            2          11   2.9734998630536079E-003           3      308534           0
</event>
<event>
      5   9999  3.19816E-02  1.08102E+01 -1.00000E+00  1.91926E-01
      21    -1     0     0   502   501  0.000000000E+00  0.000000000E+00  4.135778929E+01  4.135778929E+01  0.000000000E+00  0.00000E+00  9.000E+00
      21    -1     0     0   512   502  0.000000000E+00  0.000000000E+00 -2.111444265E+03  2.111444265E+03  0.000000000E+00  0.00000E+00  9.000E+00
      25     1     1     2     0     0  2.000597320E+02 -5.270543521E+01 -4.694579547E+02  5.280317514E+02  1.250000000E+02  0.00000E+00  9.000E+00
      25     1     1     2     0     0 -2.048300958E+02  6.240614649E+01 -1.270627413E+03  1.294592182E+03  1.250000000E+02  0.00000E+00  9.000E+00
      21     1     1     2   512   501  4.770363825E+00 -9.700711285E+00 -3.300011078E+02  3.301781206E+02  3.814697266E-06  0.00000E+00  9.000E+00
#rwgt            1           1   2.5264750461722274E-002           3      308554           0
</event>
<event>
      5   9999  3.19816E-02  9.63697E+01 -1.00000E+00  1.24555E-01
      21    -1     0     0   502   501  0.000000000E+00  0.000000000E+00  5.160719473E+02  5.160719473E+02  0.000000000E+00  0.00000E+00  9.000E+00
      21    -1     0     0   511   502  0.000000000E+00  0.000000000E+00 -1.588015418E+02  1.588015418E+02  0.000000000E+00  0.00000E+00  9.000E+00
      25     1     1     2     0     0  1.938419571E+02  9.179500155E+01  7.894745442E+01  2.604970771E+02  1.250000000E+02  0.00000E+00  9.000E+00
      25     1     1     2     0     0 -9.902775125E+01 -1.090397135E+02  2.458743361E+02  3.126904920E+02  1.250000000E+02  0.00000E+00  9.000E+00
      21     1     1     2   511   501 -9.481420584E+01  1.724471193E+01  3.244861503E+01  1.016859200E+02  0.000000000E+00  0.00000E+00  9.000E+00
#rwgt            1           1   2.7044107809044787E-002           3      308829           0
</event>
<event>
      5   9999  3.22685E-02  6.93712E+01 -1.00000E+00  1.31419E-01
      21    -1     0     0   502   501  0.000000000E+00  0.000000000E+00  3.745074095E+02  3.745074095E+02  0.000000000E+00  0.00000E+00  9.000E+00
      21    -1     0     0   512   502  0.000000000E+00  0.000000000E+00 -1.136342489E+03  1.136342489E+03  0.000000000E+00  0.00000E+00  9.000E+00
      25     1     1     2     0     0 -3.665588443E+02  3.373992331E+02 -3.430570519E+02  6.176704378E+02  1.250000000E+02  0.00000E+00  9.000E+00
      25     1     1     2     0     0  3.018382776E+02 -3.623715702E+02 -1.988911407E+01  4.883032639E+02  1.250000000E+02  0.00000E+00  9.000E+00
      21     1     1     2   512   501  6.472056675E+01  2.497233711E+01 -3.988889140E+02  4.048761973E+02  5.394796609E-06  0.00000E+00  9.000E+00
#rwgt            1           1   3.2617562521264493E-002           3      308869           0
</event>
<event>
      5   9999  3.19816E-02  6.38177E+01 -1.00000E+00  1.33287E-01
      21    -1     0     0   502   501  0.000000000E+00  0.000000000E+00  1.368409270E+02  1.368409270E+02  0.000000000E+00  0.00000E+00  9.000E+00
      21    -1     0     0   501   511  0.000000000E+00  0.000000000E+00 -2.733147624E+03  2.733147624E+03  0.000000000E+00  0.00000E+00  9.000E+00
      25     1     1     2     0     0 -3.685153124E+02  6.269438872E+01 -2.145522412E+02  4.487669619E+02  1.250000000E+02  0.00000E+00  9.000E+00
      25     1     1     2     0     0  3.274251726E+02 -1.386512652E+01 -1.659984289E+03  1.696635590E+03  1.250000000E+02  0.00000E+00  9.000E+00
      21     1     1     2   502   511  4.109013982E+01 -4.882926220E+01 -7.217701672E+02  7.245859996E+02  1.525878906E-05  0.00000E+00  9.000E+00
#rwgt            1           1   2.7499546838948473E-002           3      308955           0
</event>
<event>
      5   9999  3.19816E-02  1.52269E+02 -1.00000E+00  1.16136E-01
      -1    -1     0     0     0   501  0.000000000E+00  0.000000000E+00  1.764360365E+02  1.764360365E+02  0.000000000E+00  0.00000E+00  9.000E+00
      21    -1     0     0   501   502  0.000000000E+00  0.000000000E+00 -9.737173969E+02  9.737173969E+02  0.000000000E+00  0.00000E+00  9.000E+00
      25     1     1     2     0     0 -2.336771220E+02  9.560461086E+01 -4.992800890E+02  5.732807743E+02  1.250000000E+02  0.00000E+00  9.000E+00
      25     1     1     2     0     0  3.035838675E+02  3.966856356E+01 -2.580062881E+02  4.194389160E+02  1.250000000E+02  0.00000E+00  9.000E+00
      -1     1     1     2     0   502 -6.990674547E+01 -1.352731744E+02 -3.999498335E+01  1.574337431E+02  2.900487199E-06  0.00000E+00  9.000E+00
#rwgt            1           1   2.7181926660680505E-002           3      309059           0
</event>
<event>
      5   9999  3.19816E-02  2.45012E+02 -1.00000E+00  1.08530E-01
      21    -1     0     0   502   511  0.000000000E+00  0.000000000E+00  1.326115811E+03  1.326115811E+03  0.000000000E+00  0.00000E+00  9.000E+00
      21    -1     0     0   501   502  0.000000000E+00  0.000000000E+00 -3.216888572E+02  3.216888572E+02  0.000000000E+00  0.00000E+00  9.000E+00
      25     1     1     2     0     0  2.200673359E+02 -5.936889257E+00 -1.217879784E+02  2.809309358E+02  1.250000000E+02  0.00000E+00  9.000E+00
      25     1     1     2     0     0 -2.825539951E+02  2.428464921E+02  2.712817857E+02  4.775248539E+02  1.250000000E+02  0.00000E+00  9.000E+00
      21     1     1     2   501   511  6.248665923E+01 -2.369096028E+02  8.549331467E+02  8.893488785E+02  1.525878906E-05  0.00000E+00  9.000E+00
#rwgt            1           1   2.7047989618769964E-002           3      309100           0
</event>
<event>
      5   9999  3.19816E-02  2.47277E+02 -1.00000E+00  1.08393E-01
      21    -1     0     0   502   501  0.000000000E+00  0.000000000E+00  7.002796242E+02  7.002796242E+02  0.000000000E+00  0.00000E+00  9.000E+00
      21    -1     0     0   501   512  0.000000000E+00  0.000000000E+00 -4.927124141E+02  4.927124141E+02  0.000000000E+00  0.00000E+00  9.000E+00
      25     1     1     2     0     0  1.926043028E+02 -1.033830888E+02 -9.785317495E+01  2.701568514E+02  1.250000000E+02  0.00000E+00  9.000E+00
      25     1     1     2     0     0 -3.748038550E+02 -6.379723480E+01  4.764036555E+02  6.222004981E+02  1.250000000E+02  0.00000E+00  9.000E+00
      21     1     1     2   502   512  1.821995522E+02  1.671803236E+02 -1.709832704E+02  3.006346889E+02  2.697398305E-06  0.00000E+00  9.000E+00
#rwgt            2          11   3.2421130186589095E-003           3      309343           0
</event>
<event>
      5   9999  3.19816E-02  1.26714E+02 -1.00000E+00  1.19373E-01
      21    -1     0     0   502   511  0.000000000E+00  0.000000000E+00  1.375769040E+03  1.375769040E+03  0.000000000E+00  0.00000E+00  9.000E+00
      21    -1     0     0   501   502  0.000000000E+00  0.000000000E+00 -1.035607178E+02  1.035607178E+02  0.000000000E+00  0.00000E+00  9.000E+00
      25     1     1     2     0     0  2.238775270E+02  7.534904328E+01  2.212494536E+02  3.469509276E+02  1.250000000E+02  0.00000E+00  9.000E+00
      25     1     1     2     0     0 -1.379596646E+02  1.778866130E+01  2.070321074E+02  2.789921128E+02  1.250000000E+02  0.00000E+00  9.000E+00
      21     1     1     2   501   511 -8.591786242E+01 -9.313770459E+01  8.439267610E+02  8.533867172E+02  1.078959322E-05  0.00000E+00  9.000E+00
#rwgt            1           1   3.0605380445668552E-002           3      309363           0
</event>
<event>
      5   9999  3.19816E-02  1.79222E+01 -1.00000E+00  1.70398E-01
      21    -1     0     0   512   501  0.000000000E+00  0.000000000E+00  5.412295776E+02  5.412295776E+02  0.000000000E+00  0.00000E+00  9.000E+00
      21    -1     0     0   501   502  0.000000000E+00  0.000000000E+00 -1.041897168E+02  1.041897168E+02  0.000000000E+00  0.00000E+00  9.000E+00
      25     1     1     2     0     0 -1.368015886E+01  1.926102222E+02  2.158535030E+02  3.154418793E+02  1.250000000E+02  0.00000E+00  9.000E+00
      25     1     1     2     0     0  3.019812737E+01 -1.856560168E+02  1.958022903E+02  2.989040320E+02  1.250000000E+02  0.00000E+00  9.000E+00
      21     1     1     2   512   502 -1.651796851E+01 -6.954205362E+00  2.538406745E+01  3.107338308E+01  3.371747881E-07  0.00000E+00  9.000E+00
#rwgt            1           1   2.7885152174311038E-002           3      309409           0
</event>
<event>
      5   9999  3.19816E-02  5.01417E+01 -1.00000E+00  1.39005E-01
      21    -1     0     0   502   501  0.000000000E+00  0.000000000E+00  1.978233070E+03  1.978233070E+03  0.000000000E+00  0.00000E+00  9.000E+00
      21    -1     0     0   501   511  0.000000000E+00  0.000000000E+00 -4.957494159E+02  4.957494159E+02  0.000000000E+00  0.00000E+00  9.000E+00
      25     1     1     2     0     0 -6.617958770E+02  6.013493768E+02  4.444562755E+02  1.006360391E+03  1.250000000E+02  0.00000E+00  9.000E+00
      25     1     1     2     0     0  6.414895717E+02 -5.555035166E+02  1.095504459E+03  1.391347565E+03  1.250000000E+02  0.00000E+00  9.000E+00
      21     1     1     2   502   511  2.030630532E+01 -4.584586016E+01 -5.747708104E+01  7.627452900E+01  9.536743164E-07  0.00000E+00  9.000E+00
#rwgt            1           1   1.7310920598155255E-002           3      309559           0
</event>
<event>
      5   9999  3.19816E-02  2.91516E+01 -1.00000E+00  1.53910E-01
      21    -1     0     0   502   501  0.000000000E+00  0.000000000E+00  2.779090294E+02  2.779090294E+02  0.000000000E+00  0.00000E+00  9.000E+00
      21    -1     0     0   501   512  0.000000000E+00  0.000000000E+00 -2.496435719E+03  2.496435719E+03  0.000000000E+00  0.00000E+00  9.000E+00
      25     1     1     2     0     0  2.500984324E+02 -5.115487946E+02 -1.653085651E+02  6.059565305E+02  1.250000000E+02  0.00000E+00  9.000E+00
      25     1     1     2     0     0 -2.399983265E+02  4.842027559E+02 -1.284882264E+03  1.399499531E+03  1.250000000E+02  0.00000E+00  9.000E+00
      21     1     1     2   502   512 -1.010010596E+01  2.734603868E+01 -7.683358607E+02  7.688886869E+02  0.000000000E+00  0.00000E+00  9.000E+00
#rwgt            1           1   2.2424282019971386E-002           3      309747           0
</event>
<event>
      5   9999  3.19816E-02  1.13483E+02 -1.00000E+00  1.21407E-01
      21    -1     0     0   502   501  0.000000000E+00  0.000000000E+00  1.073655561E+03  1.073655561E+03  0.000000000E+00  0.00000E+00  9.000E+00
      21    -1     0     0   511   502  0.000000000E+00  0.000000000E+00 -4.354988053E+02  4.354988053E+02  0.000000000E+00  0.00000E+00  9.000E+00
      25     1     1     2     0     0  1.334685388E+02  2.852108872E+02 -1.454753823E+02  3.687101678E+02  1.250000000E+02  0.00000E+00  9.000E+00
      25     1     1     2     0     0 -2.468092127E+02 -2.908933439E+02  8.953309341E+02  9.812116013E+02  1.250000000E+02  0.00000E+00  9.000E+00
      21     1     1     2   511   501  1.133406739E+02  5.682456731E+00 -1.116987965E+02  1.592325966E+02  3.814697266E-06  0.00000E+00  9.000E+00
#rwgt            2          11   3.8981164751708225E-003           3      310007           0
</event>
<event>
      5   9999  3.19816E-02  1.61458E+01 -1.00000E+00  1.74424E-01
      21    -1     0     0   502   501  0.000000000E+00  0.000000000E+00  2.583663553E+02  2.583663553E+02  0.000000000E+00  0.00000E+00  9.000E+00
      21    -1     0     0   501   512  0.000000000E+00  0.000000000E+00 -5.087104875E+02  5.087104875E+02  0.000000000E+00  0.00000E+00  9.000E+00
      25     1     1     2     0     0  2.655265017E+02  1.390725911E+02 -2.353530594E+02  4.010755182E+02  1.250000000E+02  0.00000E+00  9.000E+00
      25     1     1     2     0     0 -2.809100781E+02 -1.439748765E+02  5.950788071E+00  3.395580200E+02  1.250000000E+02  0.00000E+00  9.000E+00
      21     1     1     2   502   512  1.538357641E+01  4.902285433E+00 -2.094186086E+01  2.644330467E+01  4.768371582E-07  0.00000E+00  9.000E+00
#rwgt            1           1   2.8581023082736547E-002           3      310027           0
</event>
<event>
      5   9999  3.19816E-02  3.33133E+01 -1.00000E+00  1.49946E-01
      21    -1     0     0   502   511  0.000000000E+00  0.000000000E+00  1.616419002E+03  1.616419002E+03  0.000000000E+00  0.00000E+00  9.000E+00
      21    -1     0     0   501   502  0.000000000E+00  0.000000000E+00 -1.176477820E+02  1.176477820E+02  0.000000000E+00  0.00000E+00  9.000E+00
      25     1     1     2     0     0  3.079537858E+02  2.996872379E+01  1.929980844E+02  3.854956798E+02  1.250000000E+02  0.00000E+00  9.000E+00
      25     1     1     2     0     0 -2.760693406E+02 -2.031684946E+01  1.178468422E+03  1.216979818E+03  1.250000000E+02  0.00000E+00  9.000E+00
      21     1     1     2   501   511 -3.188444517E+01 -9.651874328E+00  1.273047140E+02  1.315912867E+02  1.907348633E-06  0.00000E+00  9.000E+00
#rwgt            1           1   3.0482497126400037E-002           3      310213           0
</event>
<event>
      5   9999  3.19816E-02  3.66167E+01 -1.00000E+00  1.47261E-01
      21    -1     0     0   502   512  0.000000000E+00  0.000000000E+00  8.279861240E+02  8.279861240E+02  0.000000000E+00  0.00000E+00  9.000E+00
      21    -1     0     0   501   502  0.000000000E+00  0.000000000E+00 -2.803400645E+02  2.803400645E+02  0.000000000E+00  0.00000E+00  9.000E+00
      25     1     1     2     0     0  3.273905344E+02  7.751803990E+01  2.361178725E+02  4.296164082E+02  1.250000000E+02  0.00000E+00  9.000E+00
      25     1     1     2     0     0 -3.587078480E+02 -5.854417037E+01  1.997602212E+01  3.848672259E+02  1.250000000E+02  0.00000E+00  9.000E+00
      21     1     1     2   501   512  3.131731366E+01 -1.897386953E+01  2.915521650E+02  2.938425544E+02  0.000000000E+00  0.00000E+00  9.000E+00
#rwgt            1           1   2.7393460102986107E-002           3      310361           0
</event>
<event>
      5   9999  3.19816E-02  4.69101E+01 -1.00000E+00  1.40675E-01
      21    -1     0     0   502   511  0.000000000E+00  0.000000000E+00  1.134468911E+03  1.134468911E+03  0.000000000E+00  0.00000E+00  9.000E+00
      21    -1     0     0   501   502  0.000000000E+00  0.000000000E+00 -5.077890066E+02  5.077890066E+02  0.000000000E+00  0.00000E+00  9.000E+00
      25     1     1     2     0     0 -1.487785484E+01  3.970074945E+02 -3.546238486E+02  5.470094837E+02  1.250000000E+02  0.00000E+00  9.000E+00
      25     1     1     2     0     0  2.042014768E+01 -3.504259396E+02  5.681308935E+02  6.794211020E+02  1.250000000E+02  0.00000E+00  9.000E+00
      21     1     1     2   501   511 -5.542292846E+00 -4.658155485E+01  4.131728590E+02  4.158273316E+02  0.000000000E+00  0.00000E+00  9.000E+00
#rwgt            1           1   3.1214969853313557E-002           3      310554           0
</event>
<event>
      5   9999  3.19816E-02  1.73703E+01 -1.00000E+00  1.71584E-01
      21    -1     0     0   502   501  0.000000000E+00  0.000000000E+00  1.026010446E+02  1.026010446E+02  0.000000000E+00  0.00000E+00  9.000E+00
      21    -1     0     0   501   512  0.000000000E+00  0.000000000E+00 -4.893016315E+02  4.893016315E+02  0.000000000E+00  0.00000E+00  9.000E+00
      25     1     1     2     0     0  1.798981783E+01 -8.252503051E+01 -4.609267706E+01  1.577452030E+02  1.250000000E+02  0.00000E+00  9.000E+00
      25     1     1     2     0     0 -1.240466575E+01  9.897292884E+01 -9.110500158E+01  1.840506389E+02  1.250000000E+02  0.00000E+00  9.000E+00
      21     1     1     2   502   512 -5.585152081E+00 -1.644789833E+01 -2.495029082E+02  2.501068342E+02  3.814697266E-06  0.00000E+00  9.000E+00
#rwgt            1           1   6.5765932417941861E-002           3      310712           0
</event>
<event>
      5   9999  3.19816E-02  1.36648E+02 -1.00000E+00  1.18021E-01
      21    -1     0     0   502   501  0.000000000E+00  0.000000000E+00  1.849620723E+02  1.849620723E+02  0.000000000E+00  0.00000E+00  9.000E+00
       2    -1     0     0   501     0  0.000000000E+00  0.000000000E+00 -6.205107614E+02  6.205107614E+02  0.000000000E+00  0.00000E+00  9.000E+00
      25     1     1     2     0     0  5.532986626E+01  2.045301718E+02 -8.535612733E+01  2.603932675E+02  1.250000000E+02  0.00000E+00  9.000E+00
      25     1     1     2     0     0 -7.178319275E+01 -6.887646917E+01  9.768808943E+00  1.600538172E+02  1.250000000E+02  0.00000E+00  9.000E+00
       2     1     1     2   502     0  1.645332649E+01 -1.356537026E+02 -3.599613708E+02  3.850257490E+02  5.394796609E-06  0.00000E+00  9.000E+00
#rwgt            1           1   2.9275918564612237E-002           3      310858           0
</event>
<event>
      5   9999  3.19816E-02  2.01450E+01 -1.00000E+00  1.66111E-01
      21    -1     0     0   511   501  0.000000000E+00  0.000000000E+00  1.196222585E+03  1.196222585E+03  0.000000000E+00  0.00000E+00  9.000E+00
      21    -1     0     0   501   502  0.000000000E+00  0.000000000E+00 -1.878306006E+02  1.878306006E+02  0.000000000E+00  0.00000E+00  9.000E+00
      25     1     1     2     0     0 -3.472024045E+02  2.112069339E+02  6.412317709E+02  7.693900588E+02  1.250000000E+02  0.00000E+00  9.000E+00
      25     1     1     2     0     0  3.324347165E+02 -2.249085957E+02  2.362653489E+02  4.822271583E+02  1.250000000E+02  0.00000E+00  9.000E+00
      21     1     1     2   511   502  1.476768797E+01  1.370166175E+01  1.308948648E+02  1.324359686E+02  1.907348633E-06  0.00000E+00  9.000E+00
#rwgt            1           1   3.0958399360988344E-002           3      310900           0
</event>
<event>
      5   9999  3.19816E-02  1.89158E+01 -1.00000E+00  1.68391E-01
      21    -1     0     0   512   501  0.000000000E+00  0.000000000E+00  3.039050695E+02  3.039050695E+02  0.000000000E+00  0.00000E+00  9.000E+00
      21    -1     0     0   501   502  0.000000000E+00  0.000000000E+00 -2.437169111E+02  2.437169111E+02  0.000000000E+00  0.00000E+00  9.000E+00
      25     1     1     2     0     0 -2.041281202E+02  4.131054006E+01  1.360516717E+02  2.784060120E+02  1.250000000E+02  0.00000E+00  9.000E+00
      25     1     1     2     0     0  1.901008050E+02 -5.400079640E+01 -8.421457775E+01  2.485387237E+02  1.250000000E+02  0.00000E+00  9.000E+00
      21     1     1     2   512   502  1.402731522E+01  1.269025634E+01  8.351064418E+00  2.067724486E+01  2.920019320E-07  0.00000E+00  9.000E+00
#rwgt            1           1   2.5681349075090214E-002           3      311058           0
</event>
<event>
      5   9999  3.19816E-02  1.43458E+01 -1.00000E+00  1.79228E-01
      21    -1     0     0   502   511  0.000000000E+00  0.000000000E+00  8.076439642E+02  8.076439642E+02  0.000000000E+00  0.00000E+00  9.000E+00
      21    -1     0     0   501   502  0.000000000E+00  0.000000000E+00 -2.686118837E+02  2.686118837E+02  0.000000000E+00  0.00000E+00  9.000E+00
      25     1     1     2     0     0  3.706205799E+02 -2.264673228E+02  1.702713219E+02  4.829745186E+02  1.250000000E+02  0.00000E+00  9.000E+00
      25     1     1     2     0     0 -3.735945757E+02  2.124331435E+02  3.433681876E+02  5.641165303E+02  1.250000000E+02  0.00000E+00  9.000E+00
      21     1     1     2   501   511  2.973995856E+00  1.403417931E+01  2.539257101E+01  2.916479903E+01  3.371747881E-07  0.00000E+00  9.000E+00
#rwgt            1           1   2.5583905671623854E-002           3      311148           0
</event>
<event>
      5   9999  3.19816E-02  8.28309E+01 -1.00000E+00  1.27623E-01
      21    -1     0     0   512   501  0.000000000E+00  0.000000000E+00  4.667997752E+02  4.667997752E+02  0.000000000E+00  0.00000E+00  9.000E+00
      21    -1     0     0   501   502  0.000000000E+00  0.000000000E+00 -2.549043137E+02  2.549043137E+02  0.000000000E+00  0.00000E+00  9.000E+00
      25     1     1     2     0     0  1.755126391E+02 -1.235367692E+02 -1.246374463E+02  2.778947874E+02  1.250000000E+02  0.00000E+00  9.000E+00
      25     1     1     2     0     0 -9.325998167E+01  1.333071449E+02  2.583701693E+02  3.299217535E+02  1.250000000E+02  0.00000E+00  9.000E+00
      21     1     1     2   512   502 -8.225265747E+01 -9.770375694E+00  7.816273849E+01  1.138875480E+02  9.536743164E-07  0.00000E+00  9.000E+00
#rwgt            1           1   2.8187137251880191E-002           3      311321           0
</event>
<event>
      5   9999  3.19816E-02  2.74493E+01 -1.00000E+00  1.55769E-01
      21    -1     0     0   511   501  0.000000000E+00  0.000000000E+00  2.108660889E+02  2.108660889E+02  0.000000000E+00  0.00000E+00  9.000E+00
      21    -1     0     0   501   502  0.000000000E+00  0.000000000E+00 -2.894884608E+02  2.894884608E+02  0.000000000E+00  0.00000E+00  9.000E+00
      25     1     1     2     0     0  1.828088504E+01  1.916594376E+02  7.329059796E+00  2.296655087E+02  1.250000000E+02  0.00000E+00  9.000E+00
      25     1     1     2     0     0  6.641544311E+00 -1.801557555E+02 -9.854121515E+01  2.404902855E+02  1.250000000E+02  0.00000E+00  9.000E+00
      21     1     1     2   511   502 -2.492242935E+01 -1.150368209E+01  1.258978342E+01  3.019875549E+01  5.057621821E-07  0.00000E+00  9.000E+00
#rwgt            1           1   2.8131869647277163E-002           3      311379           0
</event>
<event>
      5   9999  3.19816E-02  6.21108E+01 -1.00000E+00  1.33906E-01
      21    -1     0     0   512   501  0.000000000E+00  0.000000000E+00  2.366085925E+02  2.366085925E+02  0.000000000E+00  0.00000E+00  9.000E+00
      21    -1     0     0   501   502  0.000000000E+00  0.000000000E+00 -6.905749036E+02  6.905749036E+02  0.000000000E+00  0.00000E+00  9.000E+00
      25     1     1     2     0     0  2.246475444E+02 -1.436079972E+02 -9.679033530E+00  2.946327541E+02  1.250000000E+02  0.00000E+00  9.000E+00
      25     1     1     2     0     0 -2.405813987E+02  2.036401648E+02 -4.570976365E+02  5.691326519E+02  1.250000000E+02  0.00000E+00  9.000E+00
      21     1     1     2   512   502  1.593385430E+01 -6.003216756E+01  1.281035896E+01  6.341809010E+01  8.429369702E-07  0.00000E+00  9.000E+00
#rwgt            1           1   2.9328460156964511E-002           3      311534           0
</event>
<event>
      5   9999  3.19816E-02  6.62457E+01 -1.00000E+00  1.32445E-01
      21    -1     0     0   502   501  0.000000000E+00  0.000000000E+00  2.070674725E+02  2.070674725E+02  0.000000000E+00  0.00000E+00  9.000E+00
      21    -1     0     0   501   511  0.000000000E+00  0.000000000E+00 -6.006535988E+02  6.006535988E+02  0.000000000E+00  0.00000E+00  9.000E+00
      25     1     1     2     0     0  1.551556490E+02 -2.157737544E+01 -3.688918321E+02  4.198154861E+02  1.250000000E+02  0.00000E+00  9.000E+00
      25     1     1     2     0     0 -2.093457752E+02  5.968155425E+01  8.047850980E+01  2.636082928E+02  1.250000000E+02  0.00000E+00  9.000E+00
      21     1     1     2   502   511  5.419012619E+01 -3.810417881E+01 -1.051728040E+02  1.242972925E+02  1.348699152E-06  0.00000E+00  9.000E+00
#rwgt            1           1   2.7379011524043505E-002           3      311606           0
</event>
<event>
      5   9999  3.19816E-02  1.22925E+01 -1.00000E+00  1.85935E-01
      21    -1     0     0   502   512  0.000000000E+00  0.000000000E+00  1.586780451E+02  1.586780451E+02  0.000000000E+00  0.00000E+00  9.000E+00
      21    -1     0     0   501   502  0.000000000E+00  0.000000000E+00 -4.712710510E+02  4.712710510E+02  0.000000000E+00  0.00000E+00  9.000E+00
      25     1     1     2     0     0  8.196755846E+01 -1.220427246E+02 -1.637569802E+02  2.530898177E+02  1.250000000E+02  0.00000E+00  9.000E+00
      25     1     1     2     0     0 -8.373014125E+01  1.342081760E+02 -2.236110987E+02  3.010805449E+02  1.250000000E+02  0.00000E+00  9.000E+00
      21     1     1     2   501   512  1.762582788E+00 -1.216545141E+01  7.477507293E+01  7.577873342E+01  1.651812370E-06  0.00000E+00  9.000E+00
#rwgt            1           1   2.6208258349271287E-002           3      311746           0
</event>
<event>
      5   9999  3.19816E-02  2.66312E+02 -1.00000E+00  1.07301E-01
       2    -1     0     0   502     0  0.000000000E+00  0.000000000E+00  7.523705643E+02  7.523705643E+02  0.000000000E+00  0.00000E+00  9.000E+00
      21    -1     0     0   501   502  0.000000000E+00  0.000000000E+00 -7.624408215E+02  7.624408215E+02  0.000000000E+00  0.00000E+00  9.000E+00
      25     1     1     2     0     0  2.620487706E+02 -1.713182996E+02 -3.922914156E+02  5.172398600E+02  1.250000000E+02  0.00000E+00  9.000E+00
      25     1     1     2     0     0 -1.166713895E+02  3.944493564E+02  5.382879698E+02  6.888987199E+02  1.250000000E+02  0.00000E+00  9.000E+00
       2     1     1     2   501     0 -1.453773811E+02 -2.231310568E+02 -1.560668114E+02  3.086728058E+02  3.814697266E-06  0.00000E+00  9.000E+00
#rwgt            1           1   2.3157210662981889E-002           3      311934           0
</event>
<event>
      5   9999  3.19816E-02  6.13622E+01 -1.00000E+00  1.34184E-01
      21    -1     0     0   511   501  0.000000000E+00  0.000000000E+00  2.136163229E+03  2.136163229E+03  0.000000000E+00  0.00000E+00  9.000E+00
      21    -1     0     0   501   502  0.000000000E+00  0.000000000E+00 -1.871711931E+02  1.871711931E+02  0.000000000E+00  0.00000E+00  9.000E+00
      25     1     1     2     0     0 -1.280903040E+00 -5.008776795E+02  7.204399999E+02  8.863063150E+02  1.250000000E+02  0.00000E+00  9.000E+00
      25     1     1     2     0     0  4.531305512E+00  5.621536829E+02  7.069708721E+02  9.118498286E+02  1.250000000E+02  0.00000E+00  9.000E+00
      21     1     1     2   511   502 -3.250402472E+00 -6.127600337E+01  5.215811639E+02  5.251782785E+02  7.629394531E-06  0.00000E+00  9.000E+00
#rwgt            1           1   2.9250924513327746E-002           3      311993           0
</event>
<event>
      5   9999  3.19816E-02  3.08516E+02 -1.00000E+00  1.05199E-01
      21    -1     0     0   502   501  0.000000000E+00  0.000000000E+00  4.379538235E+03  4.379538235E+03  0.000000000E+00  0.00000E+00  9.000E+00
      -2    -1     0     0     0   502  0.000000000E+00  0.000000000E+00 -6.297183399E+02  6.297183399E+02  0.000000000E+00  0.00000E+00  9.000E+00
      25     1     1     2     0     0  2.327882160E+02 -4.092903380E+02  1.737255164E+03  1.804269780E+03  1.250000000E+02  0.00000E+00  9.000E+00
      25     1     1     2     0     0 -2.204340326E+02  7.175589184E+02  2.508240461E+03  2.621140434E+03  1.250000000E+02  0.00000E+00  9.000E+00
      -2     1     1     2     0   501 -1.235418335E+01 -3.082685804E+02 -4.956757302E+02  5.838463607E+02  1.525878906E-05  0.00000E+00  9.000E+00
#rwgt            2           9   1.1933545854136306E-004           3      312232           0
</event>
<event>
      5   9999  3.19816E-02  3.86248E+01 -1.00000E+00  1.45789E-01
       2    -1     0     0   502     0  0.000000000E+00  0.000000000E+00  7.061045347E+02  7.061045347E+02  0.000000000E+00  0.00000E+00  9.000E+00
      21    -1     0     0   501   502  0.000000000E+00  0.000000000E+00 -7.206133132E+02  7.206133132E+02  0.000000000E+00  0.00000E+00  9.000E+00
      25     1     1     2     0     0  5.176617322E+02 -1.565635155E+02 -2.962104842E+02  6.291672705E+02  1.250000000E+02  0.00000E+00  9.000E+00
      25     1     1     2     0     0 -4.926182886E+02  1.271577079E+02  1.090107426E+01  5.240092503E+02  1.250000000E+02  0.00000E+00  9.000E+00
       2     1     1     2   501     0 -2.504344360E+01  2.940580750E+01  2.708006315E+02  2.735413271E+02  0.000000000E+00  0.00000E+00  9.000E+00
#rwgt            1           1   3.1852104306891803E-002           3      312251           0
</event>
<event>
      5   9999  3.19816E-02  9.44876E+01 -1.00000E+00  1.24946E-01
      21    -1     0     0   502   501  0.000000000E+00  0.000000000E+00  4.555336766E+02  4.555336766E+02  0.000000000E+00  0.00000E+00  9.000E+00
      21    -1     0     0   511   502  0.000000000E+00  0.000000000E+00 -9.552503842E+02  9.552503842E+02  0.000000000E+00  0.00000E+00  9.000E+00
      25     1     1     2     0     0 -3.746930445E+02  1.086202349E+01  1.919302024E+02  4.392892712E+02  1.250000000E+02  0.00000E+00  9.000E+00
      25     1     1     2     0     0  4.096828387E+02  7.690825712E+01 -2.146631848E+02  4.852424047E+02  1.250000000E+02  0.00000E+00  9.000E+00
      21     1     1     2   511   501 -3.498979420E+01 -8.777028061E+01 -4.769837252E+02  4.862523850E+02  0.000000000E+00  0.00000E+00  9.000E+00
#rwgt            1           1   3.0358537772995135E-002           3      312461           0
</event>
<event>
      5   9999  3.19816E-02  3.41872E+01 -1.00000E+00  1.49200E-01
      21    -1     0     0   512   501  0.000000000E+00  0.000000000E+00  1.437824275E+03  1.437824275E+03  0.000000000E+00  0.00000E+00  9.000E+00
      21    -1     0     0   501   502  0.000000000E+00  0.000000000E+00 -5.789520029E+02  5.789520029E+02  0.000000000E+00  0.00000E+00  9.000E+00
      25     1     1     2     0     0 -3.403354659E+02  7.192963454E+02 -1.959141930E+01  8.057445536E+02  1.250000000E+02  0.00000E+00  9.000E+00
      25     1     1     2     0     0  3.071208016E+02 -7.273928650E+02  8.438085664E+02  1.162351695E+03  1.250000000E+02  0.00000E+00  9.000E+00
      21     1     1     2   512   502  3.321466427E+01  8.096519620E+00  3.465512525E+01  4.868002936E+01  6.743495762E-07  0.00000E+00  9.000E+00
#rwgt            1           1   3.3376588929147299E-002           3      312605           0
</event>
<event>
      5   9999  3.19816E-02  4.45234E+01 -1.00000E+00  1.42012E-01
      21    -1     0     0   502   511  0.000000000E+00  0.000000000E+00  1.316702361E+02  1.316702361E+02  0.000000000E+00  0.00000E+00  9.000E+00
      21    -1     0     0   501   502  0.000000000E+00  0.000000000E+00 -6.489429721E+02  6.489429721E+02  0.000000000E+00  0.00000E+00  9.000E+00
      25     1     1     2     0     0  6.800849754E+01  4.987303566E+01 -5.589429233E+02  5.789254416E+02  1.250000000E+02  0.00000E+00  9.000E+00
      25     1     1     2     0     0 -5.180008542E+01 -8.404721633E+00  6.618445548E+01  1.508617590E+02  1.250000000E+02  0.00000E+00  9.000E+00
      21     1     1     2   501   511 -1.620841212E+01 -4.146831403E+01 -2.451426819E+01  5.082600748E+01  5.840038640E-07  0.00000E+00  9.000E+00
#rwgt            1           1   2.8934834047580231E-002           3      312777           0
</event>
<event>
      5   9999  3.19816E-02  3.70550E+01 -1.00000E+00  1.46931E-01
      21    -1     0     0   502   512  0.000000000E+00  0.000000000E+00  3.782146058E+02  3.782146058E+02  0.000000000E+00  0.00000E+00  9.000E+00
      21    -1     0     0   501   502  0.000000000E+00  0.000000000E+00 -7.320189804E+02  7.320189804E+02  0.000000000E+00  0.00000E+00  9.000E+00
      25     1     1     2     0     0 -1.974393395E+02 -3.591996530E+02 -4.387747232E+02  6.133147162E+02  1.250000000E+02  0.00000E+00  9.000E+00
      25     1     1     2     0     0  2.338844465E+02  3.658949179E+02  7.161802977E+01  4.575316027E+02  1.250000000E+02  0.00000E+00  9.000E+00
      21     1     1     2   501   512 -3.644510707E+01 -6.695264977E+00  1.335231876E+01  3.938726721E+01  8.760057960E-07  0.00000E+00  9.000E+00
#rwgt            1           1   2.6758180490920887E-002           3      312899           0
</event>
<event>
      5   9999  3.19816E-02  3.01037E+02 -1.00000E+00  1.05543E-01
      21    -1     0     0   502   501  0.000000000E+00  0.000000000E+00  1.615570007E+03  1.615570007E+03  0.000000000E+00  0.00000E+00  9.000E+00
       2    -1     0     0   501     0  0.000000000E+00  0.000000000E+00 -2.159710801E+03  2.159710801E+03  0.000000000E+00  0.00000E+00  9.000E+00
      25     1     1     2     0     0 -6.886492137E+02 -1.763786671E+02 -1.506905128E+03  1.670848658E+03  1.250000000E+02  0.00000E+00  9.000E+00
      25     1     1     2     0     0  6.867906198E+02 -1.246521099E+02  1.402470152E+03  1.571549246E+03  1.250000000E+02  0.00000E+00  9.000E+00
       2     1     1     2   502     0  1.858593923E+00  3.010307770E+02 -4.397058183E+02  5.328829043E+02  0.000000000E+00  0.00000E+00  9.000E+00
#rwgt            2          13   3.3728887695955475E-003           3      313031           0
</event>
<event>
      5   9999  3.19816E-02  3.07964E+01 -1.00000E+00  1.52254E-01
       2    -1     0     0   502     0  0.000000000E+00  0.000000000E+00  1.921827520E+03  1.921827520E+03  0.000000000E+00  0.00000E+00  9.000E+00
      21    -1     0     0   501   502  0.000000000E+00  0.000000000E+00 -1.890559920E+02  1.890559920E+02  0.000000000E+00  0.00000E+00  9.000E+00
      25     1     1     2     0     0  4.488322843E+02  4.269925674E+01  4.043777956E+02  6.184012027E+02  1.250000000E+02  0.00000E+00  9.000E+00
      25     1     1     2     0     0 -4.538063847E+02 -1.230723271E+01  5.965574887E+02  7.599983817E+02  1.250000000E+02  0.00000E+00  9.000E+00
       2     1     1     2   501     0  4.974100489E+00 -3.039202403E+01  7.318362440E+02  7.324839281E+02  1.078959322E-05  0.00000E+00  9.000E+00
#rwgt            1           1   2.8689114098920828E-002           3      313050           0
</event>
<event>
      5   9999  3.19816E-02  8.18037E+01 -1.00000E+00  1.27883E-01
      21    -1     0     0   511   501  0.000000000E+00  0.000000000E+00  3.158676260E+02  3.158676260E+02  0.000000000E+00  0.00000E+00  9.000E+00
      21    -1     0     0   501   502  0.000000000E+00  0.000000000E+00 -2.049707163E+03  2.049707163E+03  0.000000000E+00  0.00000E+00  9.000E+00
      25     1     1     2     0     0  6.816337424E+02  6.661074923E+01 -1.247407114E+03  1.428534584E+03  1.250000000E+02  0.00000E+00  9.000E+00
      25     1     1     2     0     0 -6.921652036E+02 -1.477337372E+02 -4.278038341E+02  8.363964650E+02  1.250000000E+02  0.00000E+00  9.000E+00
      21     1     1     2   511   502  1.053146122E+01  8.112298797E+01 -5.862858861E+01  1.006437393E+02  2.023048729E-06  0.00000E+00  9.000E+00
#rwgt            2          11   8.6614010135476465E-003           3      313276           0
</event>
<event>
      5   9999  3.19816E-02  6.32684E+01 -1.00000E+00  1.33484E-01
      21    -1     0     0   502   501  0.000000000E+00  0.000000000E+00  4.561500091E+02  4.561500091E+02  0.000000000E+00  0.00000E+00  9.000E+00
      21    -1     0     0   501   512  0.000000000E+00  0.000000000E+00 -1.424720759E+02  1.424720759E+02  0.000000000E+00  0.00000E+00  9.000E+00
      25     1     1     2     0     0  3.432366668E+01  1.362713085E+01  3.754228633E+02  3.974055096E+02  1.250000000E+02  0.00000E+00  9.000E+00
      25     1     1     2     0     0  2.789087880E+01 -2.127589719E+00 -3.757968115E+01  1.334903000E+02  1.250000000E+02  0.00000E+00  9.000E+00
      21     1     1     2   502   512 -6.221454548E+01 -1.149954113E+01 -2.416524895E+01  6.772627534E+01  8.920806376E-07  0.00000E+00  9.000E+00
#rwgt            1           1   3.1728878195919033E-002           3      313311           0
</event>
<event>
      5   9999  3.19816E-02  1.98008E+01 -1.00000E+00  1.66729E-01
      21    -1     0     0   502   501  0.000000000E+00  0.000000000E+00  6.770269097E+01  6.770269097E+01  0.000000000E+00  0.00000E+00  9.000E+00
      21    -1     0     0   511   502  0.000000000E+00  0.000000000E+00 -8.936327349E+02  8.936327349E+02  0.000000000E+00  0.00000E+00  9.000E+00
      25     1     1     2     0     0 -7.664666874E+01  8.684176814E+01 -6.342877783E+02  6.567816915E+02  1.250000000E+02  0.00000E+00  9.000E+00
      25     1     1     2     0     0  7.731358393E+01 -1.066312839E+02 -9.313353486E+01  2.040746831E+02  1.250000000E+02  0.00000E+00  9.000E+00
      21     1     1     2   511   501 -6.669151916E-01  1.978951580E+01 -9.850873070E+01  1.004790512E+02  1.907348633E-06  0.00000E+00  9.000E+00
#rwgt            1           1   2.8269729449633425E-002           3      313391           0
</event>
<event>
      5   9999  3.19816E-02  2.43723E+02 -1.00000E+00  1.08609E-01
      21    -1     0     0   502   501  0.000000000E+00  0.000000000E+00  1.921138535E+02  1.921138535E+02  0.000000000E+00  0.00000E+00  9.000E+00
      21    -1     0     0   501   512  0.000000000E+00  0.000000000E+00 -1.216038490E+03  1.216038490E+03  0.000000000E+00  0.00000E+00  9.000E+00
      25     1     1     2     0     0 -2.362024923E+02 -6.556244118E+01 -3.159156403E+02  4.189483773E+02  1.250000000E+02  0.00000E+00  9.000E+00
      25     1     1     2     0     0  3.598996811E+02 -1.444371900E+02 -2.726221849E+02  4.902425298E+02  1.250000000E+02  0.00000E+00  9.000E+00
      21     1     1     2   502   512 -1.236971888E+02  2.099996312E+02 -4.353868113E+02  4.989614364E+02  5.394796609E-06  0.00000E+00  9.000E+00
#rwgt            2          11   2.5571726269432815E-003           3      313518           0
</event>
<event>
      5   9999  3.19816E-02  3.17868E+01 -1.00000E+00  1.51315E-01
      21    -1     0     0   502   501  0.000000000E+00  0.000000000E+00  5.549996483E+02  5.549996483E+02  0.000000000E+00  0.00000E+00  9.000E+00
      21    -1     0     0   501   511  0.000000000E+00  0.000000000E+00 -8.497926050E+02  8.497926050E+02  0.000000000E+00  0.00000E+00  9.000E+00
      25     1     1     2     0     0  5.257222288E+02  2.340227876E+02 -3.206407175E+02  6.705117424E+02  1.250000000E+02  0.00000E+00  9.000E+00
      25     1     1     2     0     0 -5.251923876E+02 -2.022404398E+02  1.584841932E+02  5.978883499E+02  1.250000000E+02  0.00000E+00  9.000E+00
      21     1     1     2   502   511 -5.298411278E-01 -3.178234788E+01 -1.326364324E+02  1.363921610E+02  1.907348633E-06  0.00000E+00  9.000E+00
#rwgt            1           1   2.7739331814476305E-002           3      313598           0
</event>
<event>
      5   9999  3.19816E-02  3.92045E+01 -1.00000E+00  1.45383E-01
      21    -1     0     0   512   501  0.000000000E+00  0.000000000E+00  7.741219423E+02  7.741219423E+02  0.000000000E+00  0.00000E+00  9.000E+00
      21    -1     0     0   501   502  0.000000000E+00  0.000000000E+00 -6.663190937E+01  6.663190937E+01  0.000000000E+00  0.00000E+00  9.000E+00
      25     1     1     2     0     0  4.322133546E+01 -4.091463978E+00  2.773154099E+01  1.351993428E+02  1.250000000E+02  0.00000E+00  9.000E+00
      25     1     1     2     0     0 -8.242201625E+01  4.636626731E+00  5.332161745E+02  5.538586244E+02  1.250000000E+02  0.00000E+00  9.000E+00
      21     1     1     2   512   502  3.920068079E+01 -5.451627534E-01  1.465423174E+02  1.516958845E+02  0.000000000E+00  0.00000E+00  9.000E+00
#rwgt            1           1   2.8331723512864077E-002           3      313773           0
</event>
<event>
      5   9999  3.19816E-02  2.77768E+01 -1.00000E+00  1.55399E-01
       1    -1     0     0   502     0  0.000000000E+00  0.000000000E+00  1.297331730E+02  1.297331730E+02  0.000000000E+00  0.00000E+00  9.000E+00
      21    -1     0     0   501   502  0.000000000E+00  0.000000000E+00 -7.214131537E+02  7.214131537E+02  0.000000000E+00  0.00000E+00  9.000E+00
      25     1     1     2     0     0  5.428628125E+01  1.377629218E+02 -1.395078886E+02  2.387741065E+02  1.250000000E+02  0.00000E+00  9.000E+00
      25     1     1     2     0     0 -3.025929821E+01 -1.517004941E+02 -5.104432538E+02  5.478192954E+02  1.250000000E+02  0.00000E+00  9.000E+00
       1     1     1     2   501     0 -2.402698303E+01  1.393757232E+01  5.827116158E+01  6.455292486E+01  1.784161275E-06  0.00000E+00  9.000E+00
#rwgt            1           1   2.7274582111758216E-002           3      313849           0
</event>
<event>
      5   9999  3.19816E-02  1.57379E+01 -1.00000E+00  1.75441E-01
      21    -1     0     0   502   511  0.000000000E+00  0.000000000E+00  8.204329178E+02  8.204329178E+02  0.000000000E+00  0.00000E+00  9.000E+00
      21    -1     0     0   501   502  0.000000000E+00  0.000000000E+00 -1.973124286E+03  1.973124286E+03  0.000000000E+00  0.00000E+00  9.000E+00
      25     1     1     2     0     0  9.440207166E+02 -8.338260159E+02 -5.253774464E+02  1.370433289E+03  1.250000000E+02  0.00000E+00  9.000E+00
      25     1     1     2     0     0 -9.302055651E+02  8.413641310E+02 -6.259051644E+02  1.407323086E+03  1.250000000E+02  0.00000E+00  9.000E+00
      21     1     1     2   501   511 -1.381515149E+01 -7.538115154E+00 -1.408757473E+00  1.580082872E+01  1.490116119E-07  0.00000E+00  9.000E+00
#rwgt            1           1   7.0105128873347092E-002           3      314000           0
</event>
<event>
      5   9999  3.19816E-02  4.10466E+01 -1.00000E+00  1.44148E-01
      21    -1     0     0   502   501  0.000000000E+00  0.000000000E+00  2.560085608E+02  2.560085608E+02  0.000000000E+00  0.00000E+00  9.000E+00
      21    -1     0     0   512   502  0.000000000E+00  0.000000000E+00 -4.396394769E+02  4.396394769E+02  0.000000000E+00  0.00000E+00  9.000E+00
      25     1     1     2     0     0  1.111246305E+02 -1.539761193E+02 -2.755137444E+02  3.571976374E+02  1.250000000E+02  0.00000E+00  9.000E+00
      25     1     1     2     0     0 -8.418040108E+01  1.849410973E+02  1.388836395E+02  2.760492976E+02  1.250000000E+02  0.00000E+00  9.000E+00
      21     1     1     2   512   501 -2.694422938E+01 -3.096497802E+01 -4.700081118E+01  6.240110265E+01  0.000000000E+00  0.00000E+00  9.000E+00
#rwgt            1           1   3.0322635225981821E-002           3      314312           0
</event>
<event>
      5   9999  3.19816E-02  1.75432E+01 -1.00000E+00  1.71207E-01
      21    -1     0     0   502   501  0.000000000E+00  0.000000000E+00  1.895558582E+03  1.895558582E+03  0.000000000E+00  0.00000E+00  9.000E+00
      21    -1     0     0   501   511  0.000000000E+00  0.000000000E+00 -8.277166631E+02  8.277166631E+02  0.000000000E+00  0.00000E+00  9.000E+00
      25     1     1     2     0     0 -8.233399007E+02  4.016384356E+02  1.448435442E+03  1.718369068E+03  1.250000000E+02  0.00000E+00  9.000E+00
      25     1     1     2     0     0  8.087063774E+02 -3.919624127E+02 -3.559631011E+02  9.746667468E+02  1.250000000E+02  0.00000E+00  9.000E+00
      21     1     1     2   502   511  1.463352322E+01 -9.676022878E+00 -2.463042212E+01  3.023942980E+01  0.000000000E+00  0.00000E+00  9.000E+00
#rwgt            1           1   6.9305791576175127E-002           3      314420           0
</event>
<event>
      5   9999  3.19816E-02  6.28185E+00 -1.00000E+00  2.22420E-01
      21    -1     0     0   502   512  0.000000000E+00  0.000000000E+00  2.555081577E+02  2.555081577E+02  0.000000000E+00  0.00000E+00  9.000E+00
      21    -1     0     0   501   502  0.000000000E+00  0.000000000E+00 -1.711303722E+02  1.711303722E+02  0.000000000E+00  0.00000E+00  9.000E+00
      25     1     1     2     0     0  6.618595251E+00 -9.258824839E+01  1.570759451E+02  2.211656440E+02  1.250000000E+02  0.00000E+00  9.000E+00
      25     1     1     2     0     0 -2.753182749E+00  8.763646190E+01 -9.665461284E+01  1.807065125E+02  1.250000000E+02  0.00000E+00  9.000E+00
      21     1     1     2   501   512 -3.865412503E+00  4.951786492E+00  2.395645318E+01  2.476637341E+01  3.371747881E-07  0.00000E+00  9.000E+00
#rwgt            1           1   2.6524619392635240E-002           3      314799           0
</event>
<event>
      5   9999  3.19816E-02  5.16908E+01 -1.00000E+00  1.38256E-01
      21    -1     0     0   502   501  0.000000000E+00  0.000000000E+00  1.302656158E+02  1.302656158E+02  0.000000000E+00  0.00000E+00  9.000E+00
      21    -1     0     0   501   511  0.000000000E+00  0.000000000E+00 -1.688044547E+03  1.688044547E+03  0.000000000E+00  0.00000E+00  9.000E+00
      25     1     1     2     0     0 -2.029231042E+02 -3.819667028E+01 -4.583346842E+02  5.180081607E+02  1.250000000E+02  0.00000E+00  9.000E+00
      25     1     1     2     0     0  1.571597533E+02  6.223115675E+01 -1.088082054E+01  2.105119882E+02  1.250000000E+02  0.00000E+00  9.000E+00
      21     1     1     2   502   511  4.576335093E+01 -2.403448647E+01 -1.088563426E+03  1.089790014E+03  0.000000000E+00  0.00000E+00  9.000E+00
#rwgt            1           1   3.3618785055008538E-002           3      315095           0
</event>
<event>
      5   9999  3.19816E-02  1.42913E+02 -1.00000E+00  1.17233E-01
      21    -1     0     0   502   501  0.000000000E+00  0.000000000E+00  1.027213836E+02  1.027213836E+02  0.000000000E+00  0.00000E+00  9.000E+00
      21    -1     0     0   512   502  0.000000000E+00  0.000000000E+00 -1.266871541E+03  1.266871541E+03  0.000000000E+00  0.00000E+00  9.000E+00
      25     1     1     2     0     0  2.145788893E+02 -5.407608226E+01 -8.351751227E+02  8.729895806E+02  1.250000000E+02  0.00000E+00  9.000E+00
      25     1     1     2     0     0 -1.306939818E+02 -6.162828643E+01 -7.514492487E+01  2.053064107E+02  1.250000000E+02  0.00000E+00  9.000E+00
      21     1     1     2   512   501 -8.388490749E+01  1.157043687E+02 -2.538301099E+02  2.912969333E+02  6.031565972E-06  0.00000E+00  9.000E+00
#rwgt            1           1   2.9156520853175404E-002           3      315163           0
</event>
<event>
      5   9999  3.19816E-02  2.88409E+02 -1.00000E+00  1.06151E-01
      21    -1     0     0   502   501  0.000000000E+00  0.000000000E+00  2.963626034E+02  2.963626034E+02  0.000000000E+00  0.00000E+00  9.000E+00
      21    -1     0     0   501   511  0.000000000E+00  0.000000000E+00 -9.309989772E+02  9.309989772E+02  0.000000000E+00  0.00000E+00  9.000E+00
      25     1     1     2     0     0 -1.788022314E+02 -2.984115151E+02 -3.340578746E+02  4.982362230E+02  1.250000000E+02  0.00000E+00  9.000E+00
      25     1     1     2     0     0  2.544305595E+02  2.009546850E+01  3.534520279E+01  2.863791557E+02  1.250000000E+02  0.00000E+00  9.000E+00
      21     1     1     2   502   511 -7.562832811E+01  2.783160466E+02 -3.359237019E+02  4.427462019E+02  6.607249480E-06  0.00000E+00  9.000E+00
#rwgt            2          11   2.7309235597641635E-003           3      315349           0
</event>
<event>
      5   9999  3.19816E-02  9.23252E+01 -1.00000E+00  1.25408E-01
      21    -1     0     0   502   501  0.000000000E+00  0.000000000E+00  4.279521886E+02  4.279521886E+02  0.000000000E+00  0.00000E+00  9.000E+00
      21    -1     0     0   512   502  0.000000000E+00  0.000000000E+00 -2.797883884E+02  2.797883884E+02  0.000000000E+00  0.00000E+00  9.000E+00
      25     1     1     2     0     0 -2.651932409E+01  1.125012391E+02  3.498693011E+02  3.890929596E+02  1.250000000E+02  0.00000E+00  9.000E+00
      25     1     1     2     0     0  4.090963904E-01 -2.394507895E+01 -4.172609127E+01  1.339387952E+02  1.250000000E+02  0.00000E+00  9.000E+00
      21     1     1     2   512   501  2.611022770E+01 -8.855616016E+01 -1.599794096E+02  1.847088222E+02  2.697398305E-06  0.00000E+00  9.000E+00
#rwgt            1           1   2.6371081598484926E-002           3      315384           0
</event>
<event>
      5   9999  3.19816E-02  1.02921E+02 -1.00000E+00  1.23268E-01
      21    -1     0     0   511   501  0.000000000E+00  0.000000000E+00  2.093838211E+02  2.093838211E+02  0.000000000E+00  0.00000E+00  9.000E+00
      21    -1     0     0   501   502  0.000000000E+00  0.000000000E+00 -1.106043760E+03  1.106043760E+03  0.000000000E+00  0.00000E+00  9.000E+00
      25     1     1     2     0     0 -1.168281681E+02 -3.155976852E+02 -6.481550248E+02  7.409322884E+02  1.250000000E+02  0.00000E+00  9.000E+00
      25     1     1     2     0     0  2.108683758E+02  2.737739472E+02 -2.852628623E+02  4.652069934E+02  1.250000000E+02  0.00000E+00  9.000E+00
      21     1     1     2   511   502 -9.404020771E+01  4.182373807E+01  3.675794776E+01  1.092882997E+02  2.477718555E-06  0.00000E+00  9.000E+00
#rwgt            1           1   2.8139307956418794E-002           3      315437           0
</event>
<event>
      5   9999  3.19816E-02  2.18334E+01 -1.00000E+00  1.63286E-01
      21    -1     0     0   502   512  0.000000000E+00  0.000000000E+00  2.236643982E+02  2.236643982E+02  0.000000000E+00  0.00000E+00  9.000E+00
      21    -1     0     0   501   502  0.000000000E+00  0.000000000E+00 -3.300219417E+02  3.300219417E+02  0.000000000E+00  0.00000E+00  9.000E+00
      25     1     1     2     0     0  1.360959478E+01 -1.456349245E+02 -2.247922399E+02  2.958906951E+02  1.250000000E+02  0.00000E+00  9.000E+00
      25     1     1     2     0     0 -3.542506087E+01  1.447505796E+02  7.366990665E+01  2.079901930E+02  1.250000000E+02  0.00000E+00  9.000E+00
      21     1     1     2   501   512  2.181546609E+01  8.843448845E-01  4.476478981E+01  4.980545184E+01  6.743495762E-07  0.00000E+00  9.000E+00
#rwgt            1           1   2.9393597088537213E-002           3      315490           0
</event>
<event>
      5   9999  3.19816E-02  3.84842E+01 -1.00000E+00  1.45888E-01
      21    -1     0     0   502   501  0.000000000E+00  0.000000000E+00  1.115865182E+03  1.115865182E+03  0.000000000E+00  0.00000E+00  9.000E+00
      21    -1     0     0   511   502  0.000000000E+00  0.000000000E+00 -1.812954171E+02  1.812954171E+02  0.000000000E+00  0.00000E+00  9.000E+00
      25     1     1     2     0     0 -1.877097786E+02 -3.591124320E+02  3.972907589E+02  5.810866088E+02  1.250000000E+02  0.00000E+00  9.000E+00
      25     1     1     2     0     0  1.581122371E+02  3.837096151E+02  5.076365864E+02  6.674971552E+02  1.250000000E+02  0.00000E+00  9.000E+00
      21     1     1     2   511   501  2.959754149E+01 -2.459718311E+01  2.964241960E+01  4.857683521E+01  3.371747881E-07  0.00000E+00  9.000E+00
#rwgt            1           1   2.8388460086372559E-002           3      315616           0
</event>
<event>
      5   9999  3.19816E-02  7.53131E+01 -1.00000E+00  1.29632E-01
      21    -1     0     0   502   501  0.000000000E+00  0.000000000E+00  2.632212169E+03  2.632212169E+03  0.000000000E+00  0.00000E+00  9.000E+00
      -2    -1     0     0     0   502  0.000000000E+00  0.000000000E+00 -1.061203044E+03  1.061203044E+03  0.000000000E+00  0.00000E+00  9.000E+00
      25     1     1     2     0     0  1.194522600E+02  1.154384534E+03  2.948160494E+02  1.203916109E+03  1.250000000E+02  0.00000E+00  9.000E+00
      25     1     1     2     0     0 -7.140833263E+01 -1.096385902E+03  1.717017885E+03  2.042287104E+03  1.250000000E+02  0.00000E+00  9.000E+00
      -2     1     1     2     0   501 -4.804392732E+01 -5.799863160E+01 -4.408248100E+02  4.472120004E+02  9.344061824E-06  0.00000E+00  9.000E+00
#rwgt            1           1   3.9083882167849214E-002           3      315766           0
</event>
<event>
      5   9999  3.19816E-02  8.95420E+01 -1.00000E+00  1.26025E-01
      21    -1     0     0   502   501  0.000000000E+00  0.000000000E+00  6.819818088E+02  6.819818088E+02  0.000000000E+00  0.00000E+00  9.000E+00
      21    -1     0     0   501   511  0.000000000E+00  0.000000000E+00 -5.164827656E+02  5.164827656E+02  0.000000000E+00  0.00000E+00  9.000E+00
      25     1     1     2     0     0 -2.446042100E+02 -9.275866927E+00  5.893241149E+02  6.502654640E+02  1.250000000E+02  0.00000E+00  9.000E+00
      25     1     1     2     0     0  2.059929044E+02 -7.151360939E+01 -2.607882283E+02  3.621916248E+02  1.250000000E+02  0.00000E+00  9.000E+00
      21     1     1     2   502   511  3.861130556E+01  8.078947631E+01 -1.630368434E+02  1.860074856E+02  0.000000000E+00  0.00000E+00  9.000E+00
#rwgt            1           1   2.9895820863017022E-002           3      315862           0
</event>
<event>
      5   9999  3.19816E-02  6.58440E+01 -1.00000E+00  1.32581E-01
       1    -1     0     0   502     0  0.000000000E+00  0.000000000E+00  5.210045861E+02  5.210045861E+02  0.000000000E+00  0.00000E+00  9.000E+00
      21    -1     0     0   501   502  0.000000000E+00  0.000000000E+00 -1.226527668E+03  1.226527668E+03  0.000000000E+00  0.00000E+00  9.000E+00
      25     1     1     2     0     0 -6.487665192E+02 -5.803068689E+01 -5.811715780E+02  8.818452019E+02  1.250000000E+02  0.00000E+00  9.000E+00
      25     1     1     2     0     0  6.860426978E+02  1.123070521E+02 -2.285920204E+02  7.423925976E+02  1.250000000E+02  0.00000E+00  9.000E+00
       1     1     1     2   501     0 -3.727617858E+01 -5.427636518E+01  1.042405164E+02  1.232944547E+02  3.015782986E-06  0.00000E+00  9.000E+00
#rwgt            1           1   2.9088170638539371E-002           3      315940           0
</event>
<event>
      5   9999  3.19816E-02  1.93381E+02 -1.00000E+00  1.12183E-01
      21    -1     0     0   502   501  0.000000000E+00  0.000000000E+00  1.680535150E+03  1.680535150E+03  0.000000000E+00  0.00000E+00  9.000E+00
      21    -1     0     0   501   511  0.000000000E+00  0.000000000E+00 -1.807532935E+02  1.807532935E+02  0.000000000E+00  0.00000E+00  9.000E+00
      25     1     1     2     0     0  2.284673041E+02 -1.756367755E+02  3.260028476E+02  4.527123177E+02  1.250000000E+02  0.00000E+00  9.000E+00
      25     1     1     2     0     0 -2.137534055E+02  3.684571430E+02  1.124585335E+03  1.209036129E+03  1.250000000E+02  0.00000E+00  9.000E+00
      21     1     1     2   502   511 -1.471389860E+01 -1.928203675E+02  4.919367394E+01  1.995399972E+02  1.784161275E-06  0.00000E+00  9.000E+00
#rwgt            1           1   2.3017199537618088E-002           3      316022           0
</event>
<event>
      5   9999  3.19816E-02  7.43478E+01 -1.00000E+00  1.29909E-01
      21    -1     0     0   502   501  0.000000000E+00  0.000000000E+00  7.739076965E+02  7.739076965E+02  0.000000000E+00  0.00000E+00  9.000E+00
      21    -1     0     0   512   502  0.000000000E+00  0.000000000E+00 -9.115141426E+01  9.115141426E+01  0.000000000E+00  0.00000E+00  9.000E+00
      25     1     1     2     0     0  1.768056128E+02  1.108910292E+02  3.076972975E+02  3.922495022E+02  1.250000000E+02  0.00000E+00  9.000E+00
      25     1     1     2     0     0 -1.304871394E+02 -5.273433706E+01  3.442056608E+02  3.923140844E+02  1.250000000E+02  0.00000E+00  9.000E+00
      21     1     1     2   512   501 -4.631847342E+01 -5.815669214E+01  3.085332389E+01  8.049552420E+01  9.536743164E-07  0.00000E+00  9.000E+00
#rwgt            1           1   3.1314881194079033E-002           3      316096           0
</event>
<event>
      5   9999  3.19816E-02  7.12003E+01 -1.00000E+00  1.30848E-01
      21    -1     0     0   502   501  0.000000000E+00  0.000000000E+00  1.494692639E+03  1.494692639E+03  0.000000000E+00  0.00000E+00  9.000E+00
      21    -1     0     0   511   502  0.000000000E+00  0.000000000E+00 -8.169349773E+02  8.169349773E+02  0.000000000E+00  0.00000E+00  9.000E+00
      25     1     1     2     0     0 -6.460923040E+02 -2.501750654E+02  1.390542820E+02  7.176238026E+02  1.250000000E+02  0.00000E+00  9.000E+00
      25     1     1     2     0     0  6.662382869E+02  3.184658254E+02  9.312510483E+02  1.195051234E+03  1.250000000E+02  0.00000E+00  9.000E+00
      21     1     1     2   511   501 -2.014598283E+01 -6.829076001E+01 -3.925476688E+02  3.989525797E+02  5.394796609E-06  0.00000E+00  9.000E+00
#rwgt            1           1   2.7029022011623778E-002           3      316153           0
</event>
<event>
      5   9999  3.19816E-02  2.99495E+02 -1.00000E+00  1.05616E-01
      21    -1     0     0   512   501  0.000000000E+00  0.000000000E+00  2.563325610E+02  2.563325610E+02  0.000000000E+00  0.00000E+00  9.000E+00
      21    -1     0     0   501   502  0.000000000E+00  0.000000000E+00 -7.078410647E+02  7.078410647E+02  0.000000000E+00  0.00000E+00  9.000E+00
      25     1     1     2     0     0 -4.786324744E+00 -1.896939620E+01  5.059026482E+01  1.362612263E+02  1.250000000E+02  0.00000E+00  9.000E+00
      25     1     1     2     0     0  1.368365771E+01  3.183322980E+02 -3.589113111E+02  4.959486099E+02  1.250000000E+02  0.00000E+00  9.000E+00
      21     1     1     2   512   502 -8.897332967E+00 -2.993629018E+02 -1.431874574E+02  3.319637894E+02  3.814697266E-06  0.00000E+00  9.000E+00
#rwgt            2          11   3.0699618917181932E-003           3      316239           0
</event>
<event>
      5   9999  3.19816E-02  4.04098E+01 -1.00000E+00  1.44566E-01
      21    -1     0     0   502   511  0.000000000E+00  0.000000000E+00  4.686597248E+02  4.686597248E+02  0.000000000E+00  0.00000E+00  9.000E+00
      21    -1     0     0   501   502  0.000000000E+00  0.000000000E+00 -2.466194195E+02  2.466194195E+02  0.000000000E+00  0.00000E+00  9.000E+00
      25     1     1     2     0     0 -2.539524776E+02  4.283697311E+01 -6.724484627E+01  2.940641707E+02  1.250000000E+02  0.00000E+00  9.000E+00
      25     1     1     2     0     0  2.234565284E+02 -6.935016306E+01  2.587516910E+02  3.705667319E+02  1.250000000E+02  0.00000E+00  9.000E+00
      21     1     1     2   501   511  3.049594924E+01  2.651318995E+01  3.053346060E+01  5.064824160E+01  5.840038640E-07  0.00000E+00  9.000E+00
#rwgt            1           1   3.0109597058518536E-002           3      316259           0
</event>
<event>
      5   9999  3.19816E-02  1.86807E+01 -1.00000E+00  1.68852E-01
      21    -1     0     0   502   501  0.000000000E+00  0.000000000E+00  5.452361526E+02  5.452361526E+02  0.000000000E+00  0.00000E+00  9.000E+00
      21    -1     0     0   501   512  0.000000000E+00  0.000000000E+00 -3.694669943E+02  3.694669943E+02  0.000000000E+00  0.00000E+00  9.000E+00
      25     1     1     2     0     0 -3.430150012E+02  2.302253080E+02  1.058484619E+02  4.444005855E+02  1.250000000E+02  0.00000E+00  9.000E+00
      25     1     1     2     0     0  3.609845462E+02 -2.251199649E+02  7.751715797E+01  4.501363693E+02  1.250000000E+02  0.00000E+00  9.000E+00
      21     1     1     2   502   512 -1.796954500E+01 -5.105343100E+00 -7.596461535E+00  2.016619209E+01  1.685873940E-07  0.00000E+00  9.000E+00
#rwgt            1           1   2.9956244885818013E-002           3      316426           0
</event>
<event>
      5   9999  3.19816E-02  2.49937E+01 -1.00000E+00  1.58759E-01
      21    -1     0     0   502   501  0.000000000E+00  0.000000000E+00  3.301793762E+02  3.301793762E+02  0.000000000E+00  0.00000E+00  9.000E+00
      21    -1     0     0   501   511  0.000000000E+00  0.000000000E+00 -8.625671777E+02  8.625671777E+02  0.000000000E+00  0.00000E+00  9.000E+00
      25     1     1     2     0     0  3.661027692E+02  2.107710707E+02 -1.603090200E+02  4.688066380E+02  1.250000000E+02  0.00000E+00  9.000E+00
      25     1     1     2     0     0 -3.441603519E+02 -1.988039083E+02 -7.199977052E+01  4.228218404E+02  1.250000000E+02  0.00000E+00  9.000E+00
      21     1     1     2   502   511 -2.194241736E+01 -1.196716240E+01 -3.000790109E+02  3.011180756E+02  3.814697266E-06  0.00000E+00  9.000E+00
#rwgt            1           1   3.0219438674676486E-002           3      316646           0
</event>
<event>
      5   9999  3.19816E-02  4.98176E+02 -1.00000E+00  9.88971E-02
       2    -1     0     0   502     0  0.000000000E+00  0.000000000E+00  3.370858732E+03  3.370858732E+03  0.000000000E+00  0.00000E+00  9.000E+00
      21    -1     0     0   501   502  0.000000000E+00  0.000000000E+00 -2.422872560E+02  2.422872560E+02  0.000000000E+00  0.00000E+00  9.000E+00
      25     1     1     2     0     0 -1.699396625E+02 -4.728566455E+02  1.682028605E+03  1.759919919E+03  1.250000000E+02  0.00000E+00  9.000E+00
      25     1     1     2     0     0  5.964779662E+02  2.154767151E+02  9.563850530E+02  1.154345507E+03  1.250000000E+02  0.00000E+00  9.000E+00
       2     1     1     2   501     0 -4.265383037E+02  2.573799304E+02  4.901578184E+02  6.988805620E+02  1.427329020E-05  0.00000E+00  9.000E+00
#rwgt            2          18   4.2609029874648907E-003           3      316905           0
</event>
<event>
      5   9999  3.19816E-02  1.19683E+02 -1.00000E+00  1.20417E-01
      21    -1     0     0   502   501  0.000000000E+00  0.000000000E+00  3.010912616E+02  3.010912616E+02  0.000000000E+00  0.00000E+00  9.000E+00
      21    -1     0     0   511   502  0.000000000E+00  0.000000000E+00 -2.726135596E+02  2.726135596E+02  0.000000000E+00  0.00000E+00  9.000E+00
      25     1     1     2     0     0  9.089031959E+01 -1.508209804E+00 -5.738558431E+01  1.648679174E+02  1.250000000E+02  0.00000E+00  9.000E+00
      25     1     1     2     0     0 -1.323602146E+02 -1.107606685E+02  1.613877565E+02  2.673165914E+02  1.250000000E+02  0.00000E+00  9.000E+00
      21     1     1     2   511   501  4.146989499E+01  1.122688783E+02 -7.552447017E+01  1.415203124E+02  1.907348633E-06  0.00000E+00  9.000E+00
#rwgt            1           1   3.0646916565467607E-002           3      316924           0
</event>
<event>
      5   9999  3.19816E-02  1.87549E+01 -1.00000E+00  1.68706E-01
      21    -1     0     0   502   501  0.000000000E+00  0.000000000E+00  3.002491374E+02  3.002491374E+02  0.000000000E+00  0.00000E+00  9.000E+00
      21    -1     0     0   501   512  0.000000000E+00  0.000000000E+00 -2.145456583E+03  2.145456583E+03  0.000000000E+00  0.00000E+00  9.000E+00
      25     1     1     2     0     0  4.558985531E+02 -8.156241559E+01 -1.263663861E+03  1.351653533E+03  1.250000000E+02  0.00000E+00  9.000E+00
      25     1     1     2     0     0 -4.374538880E+02  8.495971448E+01  4.701936398E+01  4.652094989E+02  1.250000000E+02  0.00000E+00  9.000E+00
      21     1     1     2   502   512 -1.844466508E+01 -3.397298892E+00 -6.285629478E+02  6.288426884E+02  7.629394531E-06  0.00000E+00  9.000E+00
#rwgt            1           1   3.0826126342739499E-002           3      316992           0
</event>
<event>
      5   9999  3.19816E-02  5.32776E+01 -1.00000E+00  1.37520E-01
      21    -1     0     0   502   501  0.000000000E+00  0.000000000E+00  4.348911708E+02  4.348911708E+02  0.000000000E+00  0.00000E+00  9.000E+00
       2    -1     0     0   501     0  0.000000000E+00  0.000000000E+00 -6.423060662E+02  6.423060662E+02  0.000000000E+00  0.00000E+00  9.000E+00
      25     1     1     2     0     0  1.270288216E+02  5.101195921E+01  2.159948661E+02  2.846354224E+02  1.250000000E+02  0.00000E+00  9.000E+00
      25     1     1     2     0     0 -7.664335366E+01 -3.369703531E+01  1.524831479E+02  2.142097202E+02  1.250000000E+02  0.00000E+00  9.000E+00
       2     1     1     2   502     0 -5.038546791E+01 -1.731492391E+01 -5.758929094E+02  5.783520944E+02  1.321449896E-05  0.00000E+00  9.000E+00
#rwgt            1           1   2.5953797477832490E-002           3      317266           0
</event>
<event>
      5   9999  3.19816E-02  1.81756E+01 -1.00000E+00  1.69871E-01
      21    -1     0     0   502   501  0.000000000E+00  0.000000000E+00  9.245408826E+02  9.245408826E+02  0.000000000E+00  0.00000E+00  9.000E+00
      21    -1     0     0   501   511  0.000000000E+00  0.000000000E+00 -2.650625882E+02  2.650625882E+02  0.000000000E+00  0.00000E+00  9.000E+00
      25     1     1     2     0     0  3.297507749E+02  9.138255890E+01  6.591175204E+02  7.530917948E+02  1.250000000E+02  0.00000E+00  9.000E+00
      25     1     1     2     0     0 -3.307458164E+02 -1.095309470E+02  5.926275936E+01  3.748691746E+02  1.250000000E+02  0.00000E+00  9.000E+00
      21     1     1     2   502   511  9.950414499E-01  1.814838808E+01 -5.890198544E+01  6.164250146E+01  6.743495762E-07  0.00000E+00  9.000E+00
#rwgt            1           1   2.9816360175978059E-002           3      317307           0
</event>
<event>
      5   9999  3.19816E-02  7.02655E+01 -1.00000E+00  1.31137E-01
      21    -1     0     0   502   512  0.000000000E+00  0.000000000E+00  2.431645943E+03  2.431645943E+03  0.000000000E+00  0.00000E+00  9.000E+00
      21    -1     0     0   501   502  0.000000000E+00  0.000000000E+00 -6.337859329E+01  6.337859329E+01  0.000000000E+00  0.00000E+00  9.000E+00
      25     1     1     2     0     0  1.420670036E+02 -2.945290760E+02  1.385625315E+03  1.429165114E+03  1.250000000E+02  0.00000E+00  9.000E+00
      25     1     1     2     0     0 -7.199642054E+01  2.997589922E+02  7.062357207E+02  7.806617905E+02  1.250000000E+02  0.00000E+00  9.000E+00
      21     1     1     2   501   512 -7.007058305E+01 -5.229916256E+00  2.764063146E+02  2.851976321E+02  6.607249480E-06  0.00000E+00  9.000E+00
#rwgt            1           1   2.5989857746257016E-002           3      317480           0
</event>
<event>
      5   9999  3.19816E-02  2.08908E+01 -1.00000E+00  1.64823E-01
      21    -1     0     0   511   501  0.000000000E+00  0.000000000E+00  3.978657339E+02  3.978657339E+02  0.000000000E+00  0.00000E+00  9.000E+00
      21    -1     0     0   501   502  0.000000000E+00  0.000000000E+00 -3.723900477E+02  3.723900477E+02  0.000000000E+00  0.00000E+00  9.000E+00
      25     1     1     2     0     0  3.091634386E+02 -1.063884170E+02 -1.448803563E+02  3.788348514E+02  1.250000000E+02  0.00000E+00  9.000E+00
      25     1     1     2     0     0 -2.890968164E+02  1.005784783E+02  1.664542458E+02  3.701689013E+02  1.250000000E+02  0.00000E+00  9.000E+00
      21     1     1     2   511   502 -2.006662217E+01  5.809938656E+00  3.901796755E+00  2.125202885E+01  2.698715072E-07  0.00000E+00  9.000E+00
#rwgt            1           1   2.8796991310841378E-002           3      317546           0
</event>
<event>
      5   9999  3.19816E-02  1.69076E+01 -1.00000E+00  1.72622E-01
      21    -1     0     0   502   501  0.000000000E+00  0.000000000E+00  2.721355016E+02  2.721355016E+02  0.000000000E+00  0.00000E+00  9.000E+00
      21    -1     0     0   501   512  0.000000000E+00  0.000000000E+00 -4.070897119E+02  4.070897119E+02  0.000000000E+00  0.00000E+00  9.000E+00
      25     1     1     2     0     0  2.807274225E+02  1.202556448E+02 -6.964981620E+01  3.372616236E+02  1.250000000E+02  0.00000E+00  9.000E+00
      25     1     1     2     0     0 -2.639337168E+02 -1.222151516E+02 -5.284179648E+01  3.209591962E+02  1.250000000E+02  0.00000E+00  9.000E+00
      21     1     1     2   502   512 -1.679370569E+01  1.959506827E+00 -1.246259756E+01  2.100439372E+01  1.685873940E-07  0.00000E+00  9.000E+00
#rwgt            1           1   2.7453470026451002E-002           3      317734           0
</event>
<event>
      5   9999  3.19816E-02  1.21221E+02 -1.00000E+00  1.20182E-01
      21    -1     0     0   502   501  0.000000000E+00  0.000000000E+00  2.839497701E+02  2.839497701E+02  0.000000000E+00  0.00000E+00  9.000E+00
      21    -1     0     0   511   502  0.000000000E+00  0.000000000E+00 -2.685501575E+02  2.685501575E+02  0.000000000E+00  0.00000E+00  9.000E+00
      25     1     1     2     0     0  3.823837893E+01 -1.721272978E+01 -1.052066910E+02  1.686769087E+02  1.250000000E+02  0.00000E+00  9.000E+00
      25     1     1     2     0     0 -1.488261348E+01 -1.017373225E+02  1.856136441E+02  2.462709886E+02  1.250000000E+02  0.00000E+00  9.000E+00
      21     1     1     2   511   501 -2.335576545E+01  1.189500523E+02 -6.500734049E+01  1.375520303E+02  1.907348633E-06  0.00000E+00  9.000E+00
#rwgt            1           1   2.7406062976011843E-002           3      317876           0
</event>
<event>
      5   9999  3.19816E-02  5.74308E+01 -1.00000E+00  1.35727E-01
       2    -1     0     0   502     0  0.000000000E+00  0.000000000E+00  1.299418479E+03  1.299418479E+03  0.000000000E+00  0.00000E+00  9.000E+00
      21    -1     0     0   501   502  0.000000000E+00  0.000000000E+00 -6.137437449E+01  6.137437449E+01  0.000000000E+00  0.00000E+00  9.000E+00
      25     1     1     2     0     0  4.419602914E+01 -5.920700459E+01  1.900155592E+02  2.391436203E+02  1.250000000E+02  0.00000E+00  9.000E+00
      25     1     1     2     0     0 -1.978945091E+01  1.111937308E+02  1.618617760E+02  2.336234206E+02  1.250000000E+02  0.00000E+00  9.000E+00
       2     1     1     2   501     0 -2.440657823E+01 -5.198672623E+01  8.861667691E+02  8.880258124E+02  0.000000000E+00  0.00000E+00  9.000E+00
#rwgt            1           1   7.0892377268687592E-002           3      317922           0
</event>
<event>
      5   9999  3.19816E-02  5.84581E+01 -1.00000E+00  1.35310E-01
      21    -1     0     0   502   501  0.000000000E+00  0.000000000E+00  2.064745993E+02  2.064745993E+02  0.000000000E+00  0.00000E+00  9.000E+00
       2    -1     0     0   501     0  0.000000000E+00  0.000000000E+00 -7.478735862E+02  7.478735862E+02  0.000000000E+00  0.00000E+00  9.000E+00
      25     1     1     2     0     0  9.524571790E+01  1.780161092E+02 -3.772963760E+02  4.458015672E+02  1.250000000E+02  0.00000E+00  9.000E+00
      25     1     1     2     0     0 -1.316548127E+02 -1.322806689E+02  9.429872516E+01  2.436153005E+02  1.250000000E+02  0.00000E+00  9.000E+00
       2     1     1     2   502     0  3.640909476E+01 -4.573544028E+01 -2.584013360E+02  2.649313178E+02  0.000000000E+00  0.00000E+00  9.000E+00
#rwgt            1           1   2.8652065759799953E-002           3      317980           0
</event>
<event>
      5   9999  3.19816E-02  1.85533E+01 -1.00000E+00  1.69105E-01
      21    -1     0     0   502   501  0.000000000E+00  0.000000000E+00  2.703717411E+02  2.703717411E+02  0.000000000E+00  0.00000E+00  9.000E+00
      21    -1     0     0   511   502  0.000000000E+00  0.000000000E+00 -3.900047657E+02  3.900047657E+02  0.000000000E+00  0.00000E+00  9.000E+00
      25     1     1     2     0     0 -4.165535129E+01 -2.573606411E+02 -9.559877446E+00  2.892854285E+02  1.250000000E+02  0.00000E+00  9.000E+00
      25     1     1     2     0     0  4.007616464E+01  2.758465970E+02 -5.168825147E+01  3.098291778E+02  1.250000000E+02  0.00000E+00  9.000E+00
      21     1     1     2   511   501  1.579186652E+00 -1.848595591E+01 -5.838489569E+01  6.126190041E+01  9.536743164E-07  0.00000E+00  9.000E+00
#rwgt            1           1   2.8881107200733461E-002           3      318027           0
</event>
<event>
      5   9999  3.19816E-02  8.24872E+01 -1.00000E+00  1.27709E-01
      21    -1     0     0   502   512  0.000000000E+00  0.000000000E+00  7.323042364E+02  7.323042364E+02  0.000000000E+00  0.00000E+00  9.000E+00
      21    -1     0     0   501   502  0.000000000E+00  0.000000000E+00 -4.652107509E+02  4.652107509E+02  0.000000000E+00  0.00000E+00  9.000E+00
      25     1     1     2     0     0  1.913678699E+02 -2.676771284E+02 -2.490566975E+02  4.311924690E+02  1.250000000E+02  0.00000E+00  9.000E+00
      25     1     1     2     0     0 -2.253949461E+02  3.428189827E+02  2.702108102E+02  5.069187495E+02  1.250000000E+02  0.00000E+00  9.000E+00
      21     1     1     2   501   512  3.402707613E+01 -7.514185430E+01  2.459393729E+02  2.594037689E+02  2.697398305E-06  0.00000E+00  9.000E+00
#rwgt            1           1   2.9567332691877772E-002           3      318172           0
</event>
<event>
      5   9999  3.19816E-02  4.85567E+02 -1.00000E+00  9.92147E-02
      21    -1     0     0   502   501  0.000000000E+00  0.000000000E+00  2.349678692E+03  2.349678692E+03  0.000000000E+00  0.00000E+00  9.000E+00
      -3    -1     0     0     0   502  0.000000000E+00  0.000000000E+00 -3.005327033E+02  3.005327033E+02  0.000000000E+00  0.00000E+00  9.000E+00
      25     1     1     2     0     0 -4.822630808E+02  1.921485143E+02  1.116826884E+03  1.237911959E+03  1.250000000E+02  0.00000E+00  9.000E+00
      25     1     1     2     0     0  1.029201084E+02 -4.952556563E+02  7.036900133E+02  8.755999935E+02  1.250000000E+02  0.00000E+00  9.000E+00
      -3     1     1     2     0   501  3.793429724E+02  3.031071420E+02  2.286290918E+02  5.366994427E+02  1.078959322E-05  0.00000E+00  9.000E+00
#rwgt            1           1   3.0596663002169015E-002           3      318296           0
</event>
<event>
      5   9999  3.19816E-02  1.06357E+01 -1.00000E+00  1.92713E-01
      21    -1     0     0   502   511  0.000000000E+00  0.000000000E+00  1.768704357E+02  1.768704357E+02  0.000000000E+00  0.00000E+00  9.000E+00
      21    -1     0     0   501   502  0.000000000E+00  0.000000000E+00 -4.047464708E+02  4.047464708E+02  0.000000000E+00  0.00000E+00  9.000E+00
      25     1     1     2     0     0 -1.332798837E+02  1.230945547E+02 -2.493132833E+02  3.327129544E+02  1.250000000E+02  0.00000E+00  9.000E+00
      25     1     1     2     0     0  1.274213412E+02 -1.142178479E+02 -1.354076244E+01  2.123446897E+02  1.250000000E+02  0.00000E+00  9.000E+00
      21     1     1     2   501   511  5.858542431E+00 -8.876706750E+00  3.497801060E+01  3.655926241E+01  8.259061849E-07  0.00000E+00  9.000E+00
#rwgt            1           1   3.0757752650647740E-002           3      318490           0
</event>
<event>
      5   9999  3.19816E-02  1.68477E+01 -1.00000E+00  1.72759E-01
      21    -1     0     0   502   501  0.000000000E+00  0.000000000E+00  1.835225552E+02  1.835225552E+02  0.000000000E+00  0.00000E+00  9.000E+00
       1    -1     0     0   501     0  0.000000000E+00  0.000000000E+00 -2.808121030E+03  2.808121030E+03  0.000000000E+00  0.00000E+00  9.000E+00
      25     1     1     2     0     0 -2.947620786E+02  8.636843473E+01 -9.636946660E+01  3.453350019E+02  1.250000000E+02  0.00000E+00  9.000E+00
      25     1     1     2     0     0  2.925137718E+02 -6.967144187E+01 -3.902796785E+02  5.082928722E+02  1.250000000E+02  0.00000E+00  9.000E+00
       1     1     1     2   502     0  2.248306807E+00 -1.669699286E+01 -2.137949330E+03  2.138015711E+03  4.315837288E-05  0.00000E+00  9.000E+00
#rwgt            1           1   2.7783073520604672E-002           3      318715           0
</event>
<event>
      5   9999  3.19816E-02  5.72484E+01 -1.00000E+00  1.35802E-01
      21    -1     0     0   502   501  0.000000000E+00  0.000000000E+00  6.591689754E+01  6.591689754E+01  0.000000000E+00  0.00000E+00  9.000E+00
      21    -1     0     0   501   511  0.000000000E+00  0.000000000E+00 -1.309460496E+03  1.309460496E+03  0.000000000E+00  0.00000E+00  9.000E+00
      25     1     1     2     0     0  8.769704942E+01 -6.603872801E+01 -9.526845880E+02  9.671012410E+02  1.250000000E+02  0.00000E+00  9.000E+00
      25     1     1     2     0     0 -1.214162223E+02  1.123031861E+02 -1.490070905E+02  2.553076921E+02  1.250000000E+02  0.00000E+00  9.000E+00
      21     1     1     2   502   511  3.371917286E+01 -4.626445806E+01 -1.418519199E+02  1.529684604E+02  1.907348633E-06  0.00000E+00  9.000E+00
#rwgt            1           1   2.8266716859379978E-002           3      318944           0
</event>
<event>
      5   9999  3.19816E-02  1.32015E+01 -1.00000E+00  1.82774E-01
      -1    -1     0     0     0   501  0.000000000E+00  0.000000000E+00  6.019191609E+02  6.019191609E+02  0.000000000E+00  0.00000E+00  9.000E+00
      21    -1     0     0   501   502  0.000000000E+00  0.000000000E+00 -1.545609203E+02  1.545609203E+02  0.000000000E+00  0.00000E+00  9.000E+00
      25     1     1     2     0     0 -7.568460313E+01  1.240874239E+02  3.840773000E+02  4.292624143E+02  1.250000000E+02  0.00000E+00  9.000E+00
      25     1     1     2     0     0  7.433825803E+01 -1.109547786E+02 -6.808776834E+01  1.951873041E+02  1.250000000E+02  0.00000E+00  9.000E+00
      -1     1     1     2     0   502  1.346345097E+00 -1.313264529E+01  1.313687089E+02  1.320303628E+02  1.907348633E-06  0.00000E+00  9.000E+00
#rwgt            1           1   2.6966965714927672E-002           3      319027           0
</event>
<event>
      5   9999  3.19816E-02  8.75209E+01 -1.00000E+00  1.26489E-01
      21    -1     0     0   502   501  0.000000000E+00  0.000000000E+00  2.870064554E+02  2.870064554E+02  0.000000000E+00  0.00000E+00  9.000E+00
      21    -1     0     0   511   502  0.000000000E+00  0.000000000E+00 -1.183319800E+03  1.183319800E+03  0.000000000E+00  0.00000E+00  9.000E+00
      25     1     1     2     0     0  5.100345468E+02 -1.714919653E+02 -2.186601549E+02  5.941228799E+02  1.250000000E+02  0.00000E+00  9.000E+00
      25     1     1     2     0     0 -4.250998799E+02  1.503728832E+02 -5.723364960E+02  7.392671889E+02  1.250000000E+02  0.00000E+00  9.000E+00
      21     1     1     2   511   501 -8.493466688E+01  2.111908209E+01 -1.053166941E+02  1.369361871E+02  2.336015456E-06  0.00000E+00  9.000E+00
#rwgt            1           1   3.0815760540924480E-002           3      319239           0
</event>
<event>
      5   9999  3.19816E-02  1.56088E+02 -1.00000E+00  1.15713E-01
      21    -1     0     0   502   512  0.000000000E+00  0.000000000E+00  6.532853309E+02  6.532853309E+02  0.000000000E+00  0.00000E+00  9.000E+00
      21    -1     0     0   501   502  0.000000000E+00  0.000000000E+00 -1.740380296E+03  1.740380296E+03  0.000000000E+00  0.00000E+00  9.000E+00
      25     1     1     2     0     0  2.336767487E+02 -1.685385692E+02  2.001766690E+02  3.724322368E+02  1.250000000E+02  0.00000E+00  9.000E+00
      25     1     1     2     0     0 -3.805618053E+02  1.157343947E+02 -1.609800352E+03  1.662920296E+03  1.250000000E+02  0.00000E+00  9.000E+00
      21     1     1     2   501   512  1.468850567E+02  5.280417447E+01  3.225287170E+02  3.583130949E+02  5.394796609E-06  0.00000E+00  9.000E+00
#rwgt            2          11   5.5103145334338150E-003           3      319323           0
</event>
<event>
      5   9999  3.19816E-02  1.59917E+02 -1.00000E+00  1.15302E-01
      21    -1     0     0   502   511  0.000000000E+00  0.000000000E+00  1.181250638E+03  1.181250638E+03  0.000000000E+00  0.00000E+00  9.000E+00
      21    -1     0     0   501   502  0.000000000E+00  0.000000000E+00 -3.041442902E+02  3.041442902E+02  0.000000000E+00  0.00000E+00  9.000E+00
      25     1     1     2     0     0 -3.083536055E+02 -2.108070370E+02 -7.284830965E+01  4.005663854E+02  1.250000000E+02  0.00000E+00  9.000E+00
      25     1     1     2     0     0  1.948669506E+02  9.813769015E+01  2.094678014E+02  3.272703691E+02  1.250000000E+02  0.00000E+00  9.000E+00
      21     1     1     2   501   511  1.134866550E+02  1.126693469E+02  7.404868557E+02  7.575581734E+02  1.525878906E-05  0.00000E+00  9.000E+00
#rwgt            1           1   2.8501802865562087E-002           3      319343           0
</event>
<event>
      5   9999  3.19816E-02  4.56038E+02 -1.00000E+00  1.00001E-01
      21    -1     0     0   512   501  0.000000000E+00  0.000000000E+00  1.032112242E+03  1.032112242E+03  0.000000000E+00  0.00000E+00  9.000E+00
      21    -1     0     0   501   502  0.000000000E+00  0.000000000E+00 -6.746682765E+02  6.746682765E+02  0.000000000E+00  0.00000E+00  9.000E+00
      25     1     1     2     0     0  4.003687423E+02 -4.575245049E+01 -2.222248915E+02  4.768619496E+02  1.250000000E+02  0.00000E+00  9.000E+00
      25     1     1     2     0     0 -3.290779386E+02  4.961839704E+02  2.124159635E+02  6.443883641E+02  1.250000000E+02  0.00000E+00  9.000E+00
      21     1     1     2   512   502 -7.129080368E+01 -4.504315199E+02  3.672528932E+02  5.855302045E+02  1.321449896E-05  0.00000E+00  9.000E+00
#rwgt            2          11   2.3745708380462408E-003           3      319402           0
</event>
<event>
      5   9999  3.19816E-02  2.35075E+02 -1.00000E+00  1.09152E-01
      21    -1     0     0   502   501  0.000000000E+00  0.000000000E+00  9.029722769E+02  9.029722769E+02  0.000000000E+00  0.00000E+00  9.000E+00
      21    -1     0     0   501   511  0.000000000E+00  0.000000000E+00 -2.702988109E+02  2.702988109E+02  0.000000000E+00  0.00000E+00  9.000E+00
      25     1     1     2     0     0  2.243299993E+02 -2.048382937E+02  6.017086053E+02  6.855369580E+02  1.250000000E+02  0.00000E+00  9.000E+00
      25     1     1     2     0     0  8.853057016E+00  1.750773799E+02 -7.752119829E+01  2.288340048E+02  1.250000000E+02  0.00000E+00  9.000E+00
      21     1     1     2   502   511 -2.331830563E+02  2.976091380E+01  1.084860590E+02  2.589001251E+02  1.907348633E-06  0.00000E+00  9.000E+00
#rwgt            1           1   2.9302872761540394E-002           3      319422           0
</event>
<event>
      5   9999  3.19816E-02  5.80357E+01 -1.00000E+00  1.35480E-01
      21    -1     0     0   502   501  0.000000000E+00  0.000000000E+00  6.225072424E+02  6.225072424E+02  0.000000000E+00  0.00000E+00  9.000E+00
      21    -1     0     0   512   502  0.000000000E+00  0.000000000E+00 -2.959862883E+02  2.959862883E+02  0.000000000E+00  0.00000E+00  9.000E+00
      25     1     1     2     0     0 -1.569760103E+02  2.713068512E+02  4.032751623E+02  5.258371724E+02  1.250000000E+02  0.00000E+00  9.000E+00
      25     1     1     2     0     0  1.065291405E+02 -2.426144255E+02  4.250669839E+00  2.930073130E+02  1.250000000E+02  0.00000E+00  9.000E+00
      21     1     1     2   512   501  5.044686975E+01 -2.869242570E+01 -8.100487809E+01  9.964904532E+01  1.907348633E-06  0.00000E+00  9.000E+00
#rwgt            1           1   2.9214090939151522E-002           3      319462           0
</event>
<event>
      5   9999  3.19816E-02  4.38741E+01 -1.00000E+00  1.42393E-01
      21    -1     0     0   511   501  0.000000000E+00  0.000000000E+00  9.976708747E+02  9.976708747E+02  0.000000000E+00  0.00000E+00  9.000E+00
      21    -1     0     0   501   502  0.000000000E+00  0.000000000E+00 -1.139805894E+02  1.139805894E+02  0.000000000E+00  0.00000E+00  9.000E+00
      25     1     1     2     0     0  6.258810472E+01  1.607698532E+02  6.562458967E+02  6.899622406E+02  1.250000000E+02  0.00000E+00  9.000E+00
      25     1     1     2     0     0 -9.826665440E+01 -1.863036552E+02  6.497649723E+01  2.534015243E+02  1.250000000E+02  0.00000E+00  9.000E+00
      21     1     1     2   511   502  3.567854969E+01  2.553380204E+01  1.624678914E+02  1.682876991E+02  3.303624740E-06  0.00000E+00  9.000E+00
#rwgt            1           1   3.0821122237285486E-002           3      319585           0
</event>
<event>
      5   9999  3.19816E-02  2.60259E+01 -1.00000E+00  1.57454E-01
      21    -1     0     0   502   501  0.000000000E+00  0.000000000E+00  8.323776565E+01  8.323776565E+01  0.000000000E+00  0.00000E+00  9.000E+00
      21    -1     0     0   512   502  0.000000000E+00  0.000000000E+00 -7.874879161E+02  7.874879161E+02  0.000000000E+00  0.00000E+00  9.000E+00
      25     1     1     2     0     0 -1.727600190E+02  6.887079804E+01 -4.897074534E+02  5.385421069E+02  1.250000000E+02  0.00000E+00  9.000E+00
      25     1     1     2     0     0  1.699170752E+02 -4.300062316E+01 -1.494226032E+02  2.620553002E+02  1.250000000E+02  0.00000E+00  9.000E+00
      21     1     1     2   512   501  2.842943879E+00 -2.587017488E+01 -6.512009392E+01  7.012827469E+01  9.536743164E-07  0.00000E+00  9.000E+00
#rwgt            1           1   3.4444928587489605E-002           3      319697           0
</event>
<event>
      5   9999  3.19816E-02  2.89539E+01 -1.00000E+00  1.54118E-01
      21    -1     0     0   502   501  0.000000000E+00  0.000000000E+00  2.803335082E+02  2.803335082E+02  0.000000000E+00  0.00000E+00  9.000E+00
      21    -1     0     0   501   511  0.000000000E+00  0.000000000E+00 -1.270640275E+03  1.270640275E+03  0.000000000E+00  0.00000E+00  9.000E+00
      25     1     1     2     0     0 -1.466137058E+02  5.196609030E+02 -3.033667577E+02  6.318223030E+02  1.250000000E+02  0.00000E+00  9.000E+00
      25     1     1     2     0     0  1.627580787E+02 -5.436960411E+02 -6.449673539E+02  8.681609671E+02  1.250000000E+02  0.00000E+00  9.000E+00
      21     1     1     2   502   511 -1.614437295E+01  2.403513808E+01 -4.197265519E+01  5.099051308E+01  8.259061849E-07  0.00000E+00  9.000E+00
#rwgt            1           1   3.0201120991011677E-002           3      319876           0
</event>
<event>
      5   9999  3.19816E-02  1.59653E+02 -1.00000E+00  1.15330E-01
      21    -1     0     0   502   501  0.000000000E+00  0.000000000E+00  8.312391799E+02  8.312391799E+02  0.000000000E+00  0.00000E+00  9.000E+00
      21    -1     0     0   501   512  0.000000000E+00  0.000000000E+00 -1.170450655E+03  1.170450655E+03  0.000000000E+00  0.00000E+00  9.000E+00
      25     1     1     2     0     0 -2.891031883E+02  1.365862521E+02 -7.429521914E+02  8.184371793E+02  1.250000000E+02  0.00000E+00  9.000E+00
      25     1     1     2     0     0  1.385645683E+02 -8.341357587E+01  7.631115458E+02  7.900140477E+02  1.250000000E+02  0.00000E+00  9.000E+00
      21     1     1     2   502   512  1.505386200E+02 -5.317267624E+01 -3.593708293E+02  3.932386076E+02  6.607249480E-06  0.00000E+00  9.000E+00
#rwgt            1           1   3.8678363219566914E-002           3      320084           0
</event>
<event>
      5   9999  3.19816E-02  5.09564E+01 -1.00000E+00  1.38608E-01
      21    -1     0     0   502   501  0.000000000E+00  0.000000000E+00  5.841833974E+02  5.841833974E+02  0.000000000E+00  0.00000E+00  9.000E+00
      21    -1     0     0   501   511  0.000000000E+00  0.000000000E+00 -6.632364370E+02  6.632364370E+02  0.000000000E+00  0.00000E+00  9.000E+00
      25     1     1     2     0     0 -7.240055574E+01  1.559626203E+02 -4.791956399E+02  5.242324301E+02  1.250000000E+02  0.00000E+00  9.000E+00
      25     1     1     2     0     0  2.894009792E+01 -1.825661374E+02  5.346520840E+02  5.793494410E+02  1.250000000E+02  0.00000E+00  9.000E+00
      21     1     1     2   502   511  4.346045782E+01  2.660351709E+01 -1.345094837E+02  1.438379634E+02  0.000000000E+00  0.00000E+00  9.000E+00
#rwgt            1           1   2.5493245160774988E-002           3      320176           0
</event>
<event>
      5   9999  3.19816E-02  6.61300E+01 -1.00000E+00  1.32484E-01
      21    -1     0     0   502   501  0.000000000E+00  0.000000000E+00  6.382361643E+02  6.382361643E+02  0.000000000E+00  0.00000E+00  9.000E+00
      21    -1     0     0   512   502  0.000000000E+00  0.000000000E+00 -1.980371879E+03  1.980371879E+03  0.000000000E+00  0.00000E+00  9.000E+00
      25     1     1     2     0     0  7.201034201E+02  2.081363909E+02 -1.047091012E+03  1.293790663E+03  1.250000000E+02  0.00000E+00  9.000E+00
      25     1     1     2     0     0 -7.169634071E+02 -2.741918235E+02  2.178700495E+02  8.076571312E+02  1.250000000E+02  0.00000E+00  9.000E+00
      21     1     1     2   512   501 -3.140013060E+00  6.605543260E+01 -5.129147524E+02  5.171602489E+02  7.629394531E-06  0.00000E+00  9.000E+00
#rwgt            1           1   3.8364174730758087E-002           3      320290           0
</event>
<event>
      5   9999  3.19816E-02  3.39203E+01 -1.00000E+00  1.49425E-01
      21    -1     0     0   502   511  0.000000000E+00  0.000000000E+00  3.748463032E+02  3.748463032E+02  0.000000000E+00  0.00000E+00  9.000E+00
      21    -1     0     0   501   502  0.000000000E+00  0.000000000E+00 -5.137227739E+02  5.137227739E+02  0.000000000E+00  0.00000E+00  9.000E+00
      25     1     1     2     0     0 -3.370472550E+02  2.112640101E+00  1.380849242E+02  3.850944841E+02  1.250000000E+02  0.00000E+00  9.000E+00
      25     1     1     2     0     0  3.551589824E+02  2.656755379E+01 -2.791847517E+02  4.694814834E+02  1.250000000E+02  0.00000E+00  9.000E+00
      21     1     1     2   501   511 -1.811172738E+01 -2.868019389E+01  2.223356804E+00  3.399310968E+01  8.007901217E-07  0.00000E+00  9.000E+00
#rwgt            1           1   2.9102047062824727E-002           3      320429           0
</event>
<event>
      5   9999  3.19816E-02  1.55991E+02 -1.00000E+00  1.15723E-01
      21    -1     0     0   502   501  0.000000000E+00  0.000000000E+00  2.668202013E+02  2.668202013E+02  0.000000000E+00  0.00000E+00  9.000E+00
       2    -1     0     0   501     0  0.000000000E+00  0.000000000E+00 -2.402933992E+03  2.402933992E+03  0.000000000E+00  0.00000E+00  9.000E+00
      25     1     1     2     0     0 -5.586845546E+02 -4.268063952E+00 -2.635002304E+02  6.302412390E+02  1.250000000E+02  0.00000E+00  9.000E+00
      25     1     1     2     0     0  4.610291712E+02  1.259096220E+02 -7.010573566E+02  8.576173663E+02  1.250000000E+02  0.00000E+00  9.000E+00
       2     1     1     2   502     0  9.765538332E+01 -1.216415580E+02 -1.171556204E+03  1.181895589E+03  0.000000000E+00  0.00000E+00  9.000E+00
#rwgt            1           1   3.1230193234274731E-002           3      320497           0
</event>
<event>
      5   9999  3.19816E-02  1.03754E+01 -1.00000E+00  1.93925E-01
      21    -1     0     0   502   501  0.000000000E+00  0.000000000E+00  3.389235945E+02  3.389235945E+02  0.000000000E+00  0.00000E+00  9.000E+00
      21    -1     0     0   511   502  0.000000000E+00  0.000000000E+00 -3.054008224E+03  3.054008224E+03  0.000000000E+00  0.00000E+00  9.000E+00
      25     1     1     2     0     0  2.435929416E+01 -6.807768929E+01  2.390122506E+02  2.792486399E+02  1.250000000E+02  0.00000E+00  9.000E+00
      25     1     1     2     0     0 -1.668347150E+01  7.505841536E+01  1.229848090E+01  1.472696730E+02  1.250000000E+02  0.00000E+00  9.000E+00
      21     1     1     2   511   501 -7.675822660E+00 -6.980726076E+00 -2.966395361E+03  2.966413506E+03  4.315837288E-05  0.00000E+00  9.000E+00
#rwgt            1           1   2.1535748504392729E-002           3      320580           0
</event>
<event>
      5   9999  3.19816E-02  1.01902E+02 -1.00000E+00  1.23461E-01
      21    -1     0     0   502   501  0.000000000E+00  0.000000000E+00  9.623448805E+01  9.623448805E+01  0.000000000E+00  0.00000E+00  9.000E+00
      -1    -1     0     0     0   502  0.000000000E+00  0.000000000E+00 -1.700211827E+03  1.700211827E+03  0.000000000E+00  0.00000E+00  9.000E+00
      25     1     1     2     0     0  7.537681120E+01 -6.038976923E+01  8.477581111E+00  1.581943655E+02  1.250000000E+02  0.00000E+00  9.000E+00
      25     1     1     2     0     0 -1.056661695E+01  1.390255129E+02 -1.085953400E+03  1.101979824E+03  1.250000000E+02  0.00000E+00  9.000E+00
      -1     1     1     2     0   501 -6.481019426E+01 -7.863574367E+01 -5.265015198E+02  5.362721247E+02  0.000000000E+00  0.00000E+00  9.000E+00
#rwgt            2          10   3.0086110033178081E-005           3      320754           0
</event>
<event>
      5   9999  3.19816E-02  1.89219E+02 -1.00000E+00  1.12531E-01
      21    -1     0     0   502   501  0.000000000E+00  0.000000000E+00  3.508084514E+02  3.508084514E+02  0.000000000E+00  0.00000E+00  9.000E+00
      21    -1     0     0   511   502  0.000000000E+00  0.000000000E+00 -1.696789084E+03  1.696789084E+03  0.000000000E+00  0.00000E+00  9.000E+00
      25     1     1     2     0     0 -4.932180775E+01  4.514030093E+02  1.774485191E+01  4.713143296E+02  1.250000000E+02  0.00000E+00  9.000E+00
      25     1     1     2     0     0  2.125175863E+02 -5.471672575E+02 -9.994819646E+02  1.165823713E+03  1.250000000E+02  0.00000E+00  9.000E+00
      21     1     1     2   511   501 -1.631957786E+02  9.576424823E+01 -3.642435199E+02  4.104594927E+02  5.394796609E-06  0.00000E+00  9.000E+00
#rwgt            1           1   2.9564146579852027E-002           3      320803           0
</event>
<event>
      5   9999  3.19816E-02  1.20642E+02 -1.00000E+00  1.20270E-01
       2    -1     0     0   502     0  0.000000000E+00  0.000000000E+00  1.841808455E+03  1.841808455E+03  0.000000000E+00  0.00000E+00  9.000E+00
      21    -1     0     0   501   502  0.000000000E+00  0.000000000E+00 -1.185836073E+03  1.185836073E+03  0.000000000E+00  0.00000E+00  9.000E+00
      25     1     1     2     0     0  1.494357064E+02 -1.102375829E+01  8.798470789E+01  2.140534102E+02  1.250000000E+02  0.00000E+00  9.000E+00
      25     1     1     2     0     0 -1.715644189E+02  1.296188850E+02 -1.106831648E+03  1.134432326E+03  1.250000000E+02  0.00000E+00  9.000E+00
       2     1     1     2   501     0  2.212871250E+01 -1.185951267E+02  1.674819323E+03  1.679158792E+03  3.051757812E-05  0.00000E+00  9.000E+00
#rwgt            1           1   2.8639054688282935E-002           3      320886           0
</event>
<event>
      5   9999  3.19816E-02  3.21331E+01 -1.00000E+00  1.50996E-01
      21    -1     0     0   502   511  0.000000000E+00  0.000000000E+00  1.367681046E+02  1.367681046E+02  0.000000000E+00  0.00000E+00  9.000E+00
      21    -1     0     0   501   502  0.000000000E+00  0.000000000E+00 -7.923418193E+02  7.923418193E+02  0.000000000E+00  0.00000E+00  9.000E+00
      25     1     1     2     0     0  1.828086646E+02  1.911361687E+02 -3.602514115E+02  4.640669373E+02  1.250000000E+02  0.00000E+00  9.000E+00
      25     1     1     2     0     0 -2.060798543E+02 -1.689778834E+02 -3.119135675E+02  4.288793595E+02  1.250000000E+02  0.00000E+00  9.000E+00
      21     1     1     2   501   511  2.327118973E+01 -2.215828527E+01  1.659126429E+01  3.616362714E+01  9.536743164E-07  0.00000E+00  9.000E+00
#rwgt            1           1   2.8314628415529845E-002           3      321006           0
</event>
<event>
      5   9999  3.19816E-02  1.54915E+02 -1.00000E+00  1.15841E-01
      21    -1     0     0   512   501  0.000000000E+00  0.000000000E+00  2.731782627E+02  2.731782627E+02  0.000000000E+00  0.00000E+00  9.000E+00
      21    -1     0     0   501   502  0.000000000E+00  0.000000000E+00 -5.944169115E+02  5.944169115E+02  0.000000000E+00  0.00000E+00  9.000E+00
      25     1     1     2     0     0 -2.690099745E+02 -1.074298375E+02 -2.810246275E+02  4.225013345E+02  1.250000000E+02  0.00000E+00  9.000E+00
      25     1     1     2     0     0  1.142074088E+02  1.015268033E+02 -1.560583520E+02  2.516549885E+02  1.250000000E+02  0.00000E+00  9.000E+00
      21     1     1     2   512   502  1.548025657E+02  5.903034279E+00  1.158443308E+02  1.934388511E+02  3.568322551E-06  0.00000E+00  9.000E+00
#rwgt            1           1   2.6893501619978850E-002           3      321110           0
</event>
<event>
      5   9999  3.19816E-02  3.50501E+02 -1.00000E+00  1.03442E-01
      21    -1     0     0   502   511  0.000000000E+00  0.000000000E+00  3.496443087E+02  3.496443087E+02  0.000000000E+00  0.00000E+00  9.000E+00
      21    -1     0     0   501   502  0.000000000E+00  0.000000000E+00 -2.145177483E+03  2.145177483E+03  0.000000000E+00  0.00000E+00  9.000E+00
      25     1     1     2     0     0 -2.281588137E+02  6.666120380E+01  1.167941360E+02  2.928583797E+02  1.250000000E+02  0.00000E+00  9.000E+00
      25     1     1     2     0     0 -1.172775054E+02 -7.290476385E+00 -1.835040157E+03  1.843042198E+03  1.250000000E+02  0.00000E+00  9.000E+00
      21     1     1     2   501   511  3.454363190E+02 -5.937072741E+01 -7.728715265E+01  3.589212138E+02  8.422623507E-06  0.00000E+00  9.000E+00
#rwgt            2          11   3.9404916054998056E-003           3      321398           0
</event>
<event>
      5   9999  3.19816E-02  1.00362E+02 -1.00000E+00  1.23757E-01
      21    -1     0     0   502   501  0.000000000E+00  0.000000000E+00  8.571026107E+02  8.571026107E+02  0.000000000E+00  0.00000E+00  9.000E+00
      21    -1     0     0   512   502  0.000000000E+00  0.000000000E+00 -5.103261263E+02  5.103261263E+02  0.000000000E+00  0.00000E+00  9.000E+00
      25     1     1     2     0     0 -1.287377497E+02  2.757348136E+02 -2.708002889E+02  4.260996269E+02  1.250000000E+02  0.00000E+00  9.000E+00
      25     1     1     2     0     0  2.008678729E+02 -2.059514269E+02  7.276454314E+02  7.923741328E+02  1.250000000E+02  0.00000E+00  9.000E+00
      21     1     1     2   512   501 -7.213012317E+01 -6.978338668E+01 -1.100686581E+02  1.489549772E+02  3.814697266E-06  0.00000E+00  9.000E+00
#rwgt            1           1   2.7655162973686618E-002           3      321448           0
</event>
<event>
      5   9999  3.19816E-02  2.87298E+01 -1.00000E+00  1.54356E-01
      21    -1     0     0   502   501  0.000000000E+00  0.000000000E+00  6.487866004E+02  6.487866004E+02  0.000000000E+00  0.00000E+00  9.000E+00
      21    -1     0     0   511   502  0.000000000E+00  0.000000000E+00 -2.458100147E+02  2.458100147E+02  0.000000000E+00  0.00000E+00  9.000E+00
      25     1     1     2     0     0  2.454092024E+02  8.611112690E+01 -8.116621931E+01  2.997561641E+02  1.250000000E+02  0.00000E+00  9.000E+00
      25     1     1     2     0     0 -2.169069815E+02 -8.250250295E+01  4.976085592E+02  5.631115163E+02  1.250000000E+02  0.00000E+00  9.000E+00
      21     1     1     2   511   501 -2.850222088E+01 -3.608623951E+00 -1.346575409E+01  3.172893467E+01  3.371747881E-07  0.00000E+00  9.000E+00
#rwgt            1           1   2.7295034540708286E-002           3      321607           0
</event>
<event>
      5   9999  3.19816E-02  1.12607E+02 -1.00000E+00  1.21552E-01
      21    -1     0     0   512   501  0.000000000E+00  0.000000000E+00  4.741809033E+02  4.741809033E+02  0.000000000E+00  0.00000E+00  9.000E+00
      21    -1     0     0   501   502  0.000000000E+00  0.000000000E+00 -2.032812740E+03  2.032812740E+03  0.000000000E+00  0.00000E+00  9.000E+00
      25     1     1     2     0     0  1.848206057E+02  9.166956749E+02 -1.038070498E+03  1.402749078E+03  1.250000000E+02  0.00000E+00  9.000E+00
      25     1     1     2     0     0 -1.225730968E+02 -8.228571770E+02 -5.248249646E+02  9.915565245E+02  1.250000000E+02  0.00000E+00  9.000E+00
      21     1     1     2   512   502 -6.224750889E+01 -9.383849792E+01  4.263625947E+00  1.126880409E+02  1.155776944E-06  0.00000E+00  9.000E+00
#rwgt            1           1   3.0032954241679052E-002           3      321769           0
</event>
<event>
      5   9999  3.19816E-02  1.29560E+01 -1.00000E+00  1.83595E-01
      21    -1     0     0   502   511  0.000000000E+00  0.000000000E+00  2.988592105E+02  2.988592105E+02  0.000000000E+00  0.00000E+00  9.000E+00
      21    -1     0     0   501   502  0.000000000E+00  0.000000000E+00 -2.793646249E+02  2.793646249E+02  0.000000000E+00  0.00000E+00  9.000E+00
      25     1     1     2     0     0 -6.300838935E+01  1.749605136E+02 -1.407324655E+02  2.645975534E+02  1.250000000E+02  0.00000E+00  9.000E+00
      25     1     1     2     0     0  6.342121454E+01 -1.879099056E+02  1.049477432E+02  2.568490060E+02  1.250000000E+02  0.00000E+00  9.000E+00
      21     1     1     2   501   511 -4.128251901E-01  1.294939200E+01  5.527930786E+01  5.677727587E+01  6.743495762E-07  0.00000E+00  9.000E+00
#rwgt            1           1   2.7052739368898890E-002           3      321872           0
</event>
<event>
      5   9999  3.19816E-02  2.24835E+01 -1.00000E+00  1.62281E-01
       2    -1     0     0   502     0  0.000000000E+00  0.000000000E+00  1.669530767E+03  1.669530767E+03  0.000000000E+00  0.00000E+00  9.000E+00
      21    -1     0     0   501   502  0.000000000E+00  0.000000000E+00 -3.421197825E+02  3.421197825E+02  0.000000000E+00  0.00000E+00  9.000E+00
      25     1     1     2     0     0 -8.229898546E+00 -1.673232471E+02 -2.296849163E+02  3.105558904E+02  1.250000000E+02  0.00000E+00  9.000E+00
      25     1     1     2     0     0 -1.423816719E+01  1.664896832E+02  7.947052822E+01  2.232982420E+02  1.250000000E+02  0.00000E+00  9.000E+00
       2     1     1     2   501     0  2.246806574E+01  8.335638894E-01  1.477625372E+03  1.477796417E+03  2.157918644E-05  0.00000E+00  9.000E+00
#rwgt            1           1   2.8810493845967917E-002           3      322092           0
</event>
<event>
      5   9999  3.19816E-02  4.68488E+01 -1.00000E+00  1.40708E-01
      21    -1     0     0   502   511  0.000000000E+00  0.000000000E+00  1.203373327E+03  1.203373327E+03  0.000000000E+00  0.00000E+00  9.000E+00
      21    -1     0     0   501   502  0.000000000E+00  0.000000000E+00 -2.807983774E+02  2.807983774E+02  0.000000000E+00  0.00000E+00  9.000E+00
      25     1     1     2     0     0  1.029794099E+02  6.633501185E+01  3.993613631E+02  4.360270531E+02  1.250000000E+02  0.00000E+00  9.000E+00
      25     1     1     2     0     0 -1.473942676E+02 -5.143096207E+01 -2.235289308E+02  2.999339875E+02  1.250000000E+02  0.00000E+00  9.000E+00
      21     1     1     2   501   511  4.441485767E+01 -1.490404978E+01  7.467425178E+02  7.482106643E+02  1.078959322E-05  0.00000E+00  9.000E+00
#rwgt            2          11   2.1405304416137107E-003           3      322284           0
</event>
<event>
      5   9999  3.19816E-02  5.18239E+01 -1.00000E+00  1.38193E-01
      21    -1     0     0   502   512  0.000000000E+00  0.000000000E+00  3.317641731E+02  3.317641731E+02  0.000000000E+00  0.00000E+00  9.000E+00
      21    -1     0     0   501   502  0.000000000E+00  0.000000000E+00 -2.237033452E+03  2.237033452E+03  0.000000000E+00  0.00000E+00  9.000E+00
      25     1     1     2     0     0  4.059706633E+02  7.214415301E+02 -8.377109224E+02  1.184345663E+03  1.250000000E+02  0.00000E+00  9.000E+00
      25     1     1     2     0     0 -3.954531769E+02 -6.706960672E+02 -1.073804689E+03  1.332252956E+03  1.250000000E+02  0.00000E+00  9.000E+00
      21     1     1     2   501   512 -1.051748642E+01 -5.074546291E+01  6.246332094E+00  5.219900565E+01  1.115100797E-06  0.00000E+00  9.000E+00
#rwgt            1           1   2.9882846426268057E-002           3      322319           0
</event>
<event>
      5   9999  3.19816E-02  2.90106E+02 -1.00000E+00  1.06067E-01
      21    -1     0     0   511   501  0.000000000E+00  0.000000000E+00  2.624517987E+03  2.624517987E+03  0.000000000E+00  0.00000E+00  9.000E+00
      21    -1     0     0   501   502  0.000000000E+00  0.000000000E+00 -1.761275799E+02  1.761275799E+02  0.000000000E+00  0.00000E+00  9.000E+00
      25     1     1     2     0     0  1.130126407E+02  3.881478541E+02  5.521698462E+02  6.956631029E+02  1.250000000E+02  0.00000E+00  9.000E+00
      25     1     1     2     0     0  1.566911877E+02 -4.950196659E+02  7.379211029E+02  9.109056768E+02  1.250000000E+02  0.00000E+00  9.000E+00
      21     1     1     2   511   502 -2.697038284E+02  1.068718117E+02  1.158299458E+03  1.194076787E+03  1.525878906E-05  0.00000E+00  9.000E+00
#rwgt            2          11   1.1147162293235467E-003           3      322458           0
</event>
<event>
      5   9999  3.19816E-02  2.33903E+02 -1.00000E+00  1.09227E-01
      21    -1     0     0   502   501  0.000000000E+00  0.000000000E+00  3.087487899E+02  3.087487899E+02  0.000000000E+00  0.00000E+00  9.000E+00
      21    -1     0     0   512   502  0.000000000E+00  0.000000000E+00 -7.702166960E+02  7.702166960E+02  0.000000000E+00  0.00000E+00  9.000E+00
      25     1     1     2     0     0  4.811955890E+01  2.500578984E+02 -5.368423448E+01  2.887064972E+02  1.250000000E+02  0.00000E+00  9.000E+00
      25     1     1     2     0     0  1.432635569E+02 -1.155843159E+02  9.018788450E+01  2.400896402E+02  1.250000000E+02  0.00000E+00  9.000E+00
      21     1     1     2   512   501 -1.913831158E+02 -1.344735825E+02 -4.979715561E+02  5.501693486E+02  7.629394531E-06  0.00000E+00  9.000E+00
#rwgt            1           1   2.7030125187346130E-002           3      322478           0
</event>
<event>
      5   9999  3.19816E-02  8.17184E+01 -1.00000E+00  1.27904E-01
      21    -1     0     0   502   501  0.000000000E+00  0.000000000E+00  1.625220772E+03  1.625220772E+03  0.000000000E+00  0.00000E+00  9.000E+00
      21    -1     0     0   511   502  0.000000000E+00  0.000000000E+00 -6.899998969E+01  6.899998969E+01  0.000000000E+00  0.00000E+00  9.000E+00
      25     1     1     2     0     0 -8.393937870E+01 -5.306948122E+01  1.337073419E+03  1.346570651E+03  1.250000000E+02  0.00000E+00  9.000E+00
      25     1     1     2     0     0  1.404098194E+02 -5.998166131E+00  1.489449406E+02  2.399176748E+02  1.250000000E+02  0.00000E+00  9.000E+00
      21     1     1     2   511   501 -5.647044066E+01  5.906764735E+01  7.020242214E+01  1.077324357E+02  2.523185073E-06  0.00000E+00  9.000E+00
#rwgt            1           1   3.7301832107698329E-002           3      322508           0
</event>
<event>
      5   9999  3.19816E-02  8.23021E+01 -1.00000E+00  1.27756E-01
      21    -1     0     0   502   512  0.000000000E+00  0.000000000E+00  1.513461903E+03  1.513461903E+03  0.000000000E+00  0.00000E+00  9.000E+00
      21    -1     0     0   501   502  0.000000000E+00  0.000000000E+00 -1.416240152E+03  1.416240152E+03  0.000000000E+00  0.00000E+00  9.000E+00
      25     1     1     2     0     0 -2.401374037E+02 -5.160361020E+02 -1.253760584E+03  1.382570010E+03  1.250000000E+02  0.00000E+00  9.000E+00
      25     1     1     2     0     0  2.277766827E+02  5.974046693E+02  1.288408895E+03  1.443744103E+03  1.250000000E+02  0.00000E+00  9.000E+00
      21     1     1     2   501   512  1.236072096E+01 -8.136856735E+01  6.257344029E+01  1.033879423E+02  1.651812370E-06  0.00000E+00  9.000E+00
#rwgt            1           1   5.6107085976483707E-002           3      322578           0
</event>
<event>
      5   9999  3.19816E-02  1.38439E+01 -1.00000E+00  1.80729E-01
      21    -1     0     0   511   501  0.000000000E+00  0.000000000E+00  1.025847789E+02  1.025847789E+02  0.000000000E+00  0.00000E+00  9.000E+00
      21    -1     0     0   501   502  0.000000000E+00  0.000000000E+00 -1.668950732E+03  1.668950732E+03  0.000000000E+00  0.00000E+00  9.000E+00
      25     1     1     2     0     0  2.226677822E+02  3.074218201E+02 -8.383465953E+02  9.287298480E+02  1.250000000E+02  0.00000E+00  9.000E+00
      25     1     1     2     0     0 -2.233253547E+02 -3.212500600E+02 -7.018439731E+02  8.131947969E+02  1.250000000E+02  0.00000E+00  9.000E+00
      21     1     1     2   511   502  6.575724412E-01  1.382823989E+01 -2.617538477E+01  2.961086604E+01  3.371747881E-07  0.00000E+00  9.000E+00
#rwgt            1           1   3.0567549193886146E-002           3      322714           0
</event>
<event>
      5   9999  3.19816E-02  2.56363E+02 -1.00000E+00  1.07859E-01
      21    -1     0     0   502   501  0.000000000E+00  0.000000000E+00  7.550717676E+02  7.550717676E+02  0.000000000E+00  0.00000E+00  9.000E+00
      21    -1     0     0   512   502  0.000000000E+00  0.000000000E+00 -3.193766761E+02  3.193766761E+02  0.000000000E+00  0.00000E+00  9.000E+00
      25     1     1     2     0     0  2.772486889E+00 -9.855819026E+00  1.422525655E+00  1.254266616E+02  1.250000000E+02  0.00000E+00  9.000E+00
      25     1     1     2     0     0 -1.049552802E+02 -2.252631202E+02  5.877297439E+02  6.502386762E+02  1.250000000E+02  0.00000E+00  9.000E+00
      21     1     1     2   512   501  1.021827933E+02  2.351189393E+02 -1.534571780E+02  2.987831058E+02  5.394796609E-06  0.00000E+00  9.000E+00
#rwgt            2          11   5.7945654194823913E-003           3      322930           0
</event>
<event>
      5   9999  3.19816E-02  2.49096E+01 -1.00000E+00  1.58869E-01
      21    -1     0     0   502   501  0.000000000E+00  0.000000000E+00  1.247561152E+03  1.247561152E+03  0.000000000E+00  0.00000E+00  9.000E+00
      21    -1     0     0   501   511  0.000000000E+00  0.000000000E+00 -9.312984969E+01  9.312984969E+01  0.000000000E+00  0.00000E+00  9.000E+00
      25     1     1     2     0     0  2.130145848E+01 -2.662467592E+02  6.571182754E+02  7.202572573E+02  1.250000000E+02  0.00000E+00  9.000E+00
      25     1     1     2     0     0 -1.733831304E+01  2.416544719E+02  5.197498215E+02  5.869091734E+02  1.250000000E+02  0.00000E+00  9.000E+00
      21     1     1     2   502   511 -3.963145436E+00  2.459228729E+01 -2.243679448E+01  3.352457103E+01  1.118282261E-06  0.00000E+00  9.000E+00
#rwgt            1           1   2.8671017317267879E-002           3      322980           0
</event>
<event>
      5   9999  3.19816E-02  3.85709E+01 -1.00000E+00  1.45827E-01
      21    -1     0     0   502   501  0.000000000E+00  0.000000000E+00  1.198231746E+03  1.198231746E+03  0.000000000E+00  0.00000E+00  9.000E+00
      21    -1     0     0   501   512  0.000000000E+00  0.000000000E+00 -7.035560747E+01  7.035560747E+01  0.000000000E+00  0.00000E+00  9.000E+00
      25     1     1     2     0     0  1.272783657E+01 -1.085052737E+02  5.543008166E+01  1.750225305E+02  1.250000000E+02  0.00000E+00  9.000E+00
      25     1     1     2     0     0 -3.136656924E+01  7.473672720E+01  1.004052755E+03  1.015045011E+03  1.250000000E+02  0.00000E+00  9.000E+00
      21     1     1     2   502   512  1.863873267E+01  3.376854646E+01  6.839330188E+01  7.851981169E+01  9.536743164E-07  0.00000E+00  9.000E+00
#rwgt            1           1   3.1811680161017167E-002           3      323131           0
</event>
<event>
      5   9999  3.19816E-02  2.45675E+02 -1.00000E+00  1.08490E-01
      21    -1     0     0   502   501  0.000000000E+00  0.000000000E+00  4.345833478E+02  4.345833478E+02  0.000000000E+00  0.00000E+00  9.000E+00
      21    -1     0     0   501   511  0.000000000E+00  0.000000000E+00 -9.946934142E+02  9.946934142E+02  0.000000000E+00  0.00000E+00  9.000E+00
      25     1     1     2     0     0  3.042145378E+02  1.431490831E+02  4.749921881E+01  3.618277502E+02  1.250000000E+02  0.00000E+00  9.000E+00
      25     1     1     2     0     0 -5.071039984E+02 -4.614235844E+00 -1.424209793E+02  5.413727844E+02  1.250000000E+02  0.00000E+00  9.000E+00
      21     1     1     2   502   511  2.028894605E+02 -1.385348472E+02 -4.651883058E+02  5.260762273E+02  9.344061824E-06  0.00000E+00  9.000E+00
#rwgt            2          11   2.6397391700178599E-003           3      323355           0
</event>
<event>
      5   9999  3.19816E-02  1.03540E+02 -1.00000E+00  1.23152E-01
      21    -1     0     0   502   501  0.000000000E+00  0.000000000E+00  1.256835556E+03  1.256835556E+03  0.000000000E+00  0.00000E+00  9.000E+00
       3    -1     0     0   501     0  0.000000000E+00  0.000000000E+00 -1.799325082E+02  1.799325082E+02  0.000000000E+00  0.00000E+00  9.000E+00
      25     1     1     2     0     0  1.373032718E+02  1.406262837E+02  4.936730497E+02  5.458626385E+02  1.250000000E+02  0.00000E+00  9.000E+00
      25     1     1     2     0     0 -1.996493779E+02 -2.232913836E+02  6.772755692E+02  7.510300345E+02  1.250000000E+02  0.00000E+00  9.000E+00
       3     1     1     2   502     0  6.234610609E+01  8.266509992E+01 -9.404557098E+01  1.398753914E+02  3.568322551E-06  0.00000E+00  9.000E+00
#rwgt            1           1   2.8138328156025270E-002           3      323375           0
</event>
<event>
      5   9999  3.19816E-02  1.20358E+03 -1.00000E+00  8.91002E-02
      21    -1     0     0   502   511  0.000000000E+00  0.000000000E+00  1.095246878E+03  1.095246878E+03  0.000000000E+00  0.00000E+00  9.000E+00
      21    -1     0     0   501   502  0.000000000E+00  0.000000000E+00 -1.827736541E+03  1.827736541E+03  0.000000000E+00  0.00000E+00  9.000E+00
      25     1     1     2     0     0 -1.980739242E+01  1.153403748E+01 -4.209551038E+02  4.397198725E+02  1.250000000E+02  0.00000E+00  9.000E+00
      25     1     1     2     0     0  3.440240523E+02 -1.170622231E+03 -3.614091560E+02  1.278651843E+03  1.250000000E+02  0.00000E+00  9.000E+00
      21     1     1     2   501   511 -3.242166599E+02  1.159088194E+03  4.987459634E+01  1.204611704E+03  2.083947504E-05  0.00000E+00  9.000E+00
#rwgt            2          11   8.0768086862252804E-004           3      323468           0
</event>
<event>
      5   9999  3.19816E-02  2.25539E+01 -1.00000E+00  1.62175E-01
      21    -1     0     0   502   501  0.000000000E+00  0.000000000E+00  1.306776048E+02  1.306776048E+02  0.000000000E+00  0.00000E+00  9.000E+00
      21    -1     0     0   501   512  0.000000000E+00  0.000000000E+00 -3.578879500E+02  3.578879500E+02  0.000000000E+00  0.00000E+00  9.000E+00
      25     1     1     2     0     0 -1.982967152E+01 -1.451981290E+02 -5.373454410E+01  1.999702822E+02  1.250000000E+02  0.00000E+00  9.000E+00
      25     1     1     2     0     0  8.601266672E+00  1.647582938E+02 -1.473404670E+02  2.540737892E+02  1.250000000E+02  0.00000E+00  9.000E+00
      21     1     1     2   502   512  1.122840485E+01 -1.956016479E+01 -2.613533408E+01  3.452148330E+01  7.539457465E-07  0.00000E+00  9.000E+00
#rwgt            1           1   2.4740937655390861E-002           3      323488           0
</event>
<event>
      5   9999  3.19816E-02  3.25951E+01 -1.00000E+00  1.50579E-01
      21    -1     0     0   502   501  0.000000000E+00  0.000000000E+00  7.566310323E+02  7.566310323E+02  0.000000000E+00  0.00000E+00  9.000E+00
      21    -1     0     0   511   502  0.000000000E+00  0.000000000E+00 -4.705242430E+02  4.705242430E+02  0.000000000E+00  0.00000E+00  9.000E+00
      25     1     1     2     0     0  3.256294031E+02 -3.444955195E+02 -1.202976941E+02  5.047853072E+02  1.250000000E+02  0.00000E+00  9.000E+00
      25     1     1     2     0     0 -2.948315870E+02  3.338215591E+02  4.646288534E+02  6.556427910E+02  1.250000000E+02  0.00000E+00  9.000E+00
      21     1     1     2   511   501 -3.079781615E+01  1.067396033E+01 -5.822436999E+01  6.672717715E+01  6.743495762E-07  0.00000E+00  9.000E+00
#rwgt            1           1   2.9431465014254400E-002           3      323640           0
</event>
<event>
      5   9999  3.19816E-02  1.85019E+03 -1.00000E+00  8.50051E-02
       2    -1     0     0   502     0  0.000000000E+00  0.000000000E+00  2.427638651E+03  2.427638651E+03  0.000000000E+00  0.00000E+00  9.000E+00
      21    -1     0     0   501   502  0.000000000E+00  0.000000000E+00 -1.494361487E+03  1.494361487E+03  0.000000000E+00  0.00000E+00  9.000E+00
      25     1     1     2     0     0 -6.074202100E+02 -1.339317325E+02  1.207197806E+02  6.458291461E+02  1.250000000E+02  0.00000E+00  9.000E+00
      25     1     1     2     0     0 -1.242692925E+03  1.503577482E+02  6.576416743E+02  1.419510736E+03  1.250000000E+02  0.00000E+00  9.000E+00
       2     1     1     2   501     0  1.850113135E+03 -1.642601569E+01  1.549157097E+02  1.856660256E+03  3.790780433E-05  0.00000E+00  9.000E+00
#rwgt            2          18   1.1016383829331523E-003           3      323753           0
</event>
<event>
      5   9999  3.19816E-02  1.76028E+02 -1.00000E+00  1.13704E-01
      21    -1     0     0   502   501  0.000000000E+00  0.000000000E+00  1.922910828E+02  1.922910828E+02  0.000000000E+00  0.00000E+00  9.000E+00
      21    -1     0     0   511   502  0.000000000E+00  0.000000000E+00 -6.491603420E+02  6.491603420E+02  0.000000000E+00  0.00000E+00  9.000E+00
      25     1     1     2     0     0 -2.426544483E+02  1.531535971E+02 -8.043325664E+01  3.231589614E+02  1.250000000E+02  0.00000E+00  9.000E+00
      25     1     1     2     0     0  1.250968451E+02 -2.213373229E+01 -2.168552912E+02  2.806961704E+02  1.250000000E+02  0.00000E+00  9.000E+00
      21     1     1     2   511   501  1.175576031E+02 -1.310198648E+02 -1.595807114E+02  2.375962931E+02  3.814697266E-06  0.00000E+00  9.000E+00
#rwgt            1           1   3.0885495145419720E-002           3      323787           0
</event>
<event>
      5   9999  3.19816E-02  8.50277E+01 -1.00000E+00  1.27081E-01
      21    -1     0     0   512   501  0.000000000E+00  0.000000000E+00  4.286508881E+02  4.286508881E+02  0.000000000E+00  0.00000E+00  9.000E+00
      21    -1     0     0   501   502  0.000000000E+00  0.000000000E+00 -2.206570037E+02  2.206570037E+02  0.000000000E+00  0.00000E+00  9.000E+00
      25     1     1     2     0     0  9.450496173E+01  3.550472531E+01 -1.165234396E+02  1.984804406E+02  1.250000000E+02  0.00000E+00  9.000E+00
      25     1     1     2     0     0 -1.688309359E+02 -7.680067393E+01  2.663528191E+02  3.478089313E+02  1.250000000E+02  0.00000E+00  9.000E+00
      21     1     1     2   512   502  7.432597413E+01  4.129594861E+01  5.816450497E+01  1.030185199E+02  1.784161275E-06  0.00000E+00  9.000E+00
#rwgt            1           1   2.6856294078505330E-002           3      323817           0
</event>
<event>
      5   9999  3.19816E-02  2.45334E+02 -1.00000E+00  1.08511E-01
      21    -1     0     0   502   501  0.000000000E+00  0.000000000E+00  9.159378707E+02  9.159378707E+02  0.000000000E+00  0.00000E+00  9.000E+00
      21    -1     0     0   511   502  0.000000000E+00  0.000000000E+00 -2.422096667E+02  2.422096667E+02  0.000000000E+00  0.00000E+00  9.000E+00
      25     1     1     2     0     0 -1.843758449E+02 -3.643052526E+02  3.496089281E+02  5.518733296E+02  1.250000000E+02  0.00000E+00  9.000E+00
      25     1     1     2     0     0 -6.137365351E+00  2.097293374E+02  2.511414386E+02  3.503156925E+02  1.250000000E+02  0.00000E+00  9.000E+00
      21     1     1     2   511   501  1.905132103E+02  1.545759152E+02  7.297783735E+01  2.559585154E+02  4.264961200E-06  0.00000E+00  9.000E+00
#rwgt            2          11   3.4215501056402611E-003           3      323963           0
</event>
<event>
      5   9999  3.19816E-02  2.56712E+02 -1.00000E+00  1.07839E-01
      21    -1     0     0   502   501  0.000000000E+00  0.000000000E+00  9.215571584E+01  9.215571584E+01  0.000000000E+00  0.00000E+00  9.000E+00
       2    -1     0     0   501     0  0.000000000E+00  0.000000000E+00 -4.152164861E+03  4.152164861E+03  0.000000000E+00  0.00000E+00  9.000E+00
      25     1     1     2     0     0  2.696072352E+02 -4.287654404E+02 -2.215501808E+03  2.276093392E+03  1.250000000E+02  0.00000E+00  9.000E+00
      25     1     1     2     0     0 -3.040984483E+02  1.743814712E+02 -6.742557248E+02  7.701496908E+02  1.250000000E+02  0.00000E+00  9.000E+00
       2     1     1     2   502     0  3.449121311E+01  2.543839692E+02 -1.170251612E+03  1.198077494E+03  1.525878906E-05  0.00000E+00  9.000E+00
#rwgt            1           1   5.3429964330366446E-002           3      323983           0
</event>
<event>
      5   9999  3.19816E-02  6.68076E+01 -1.00000E+00  1.32256E-01
       2    -1     0     0   502     0  0.000000000E+00  0.000000000E+00  3.354879893E+03  3.354879893E+03  0.000000000E+00  0.00000E+00  9.000E+00
      21    -1     0     0   501   502  0.000000000E+00  0.000000000E+00 -2.303347945E+01  2.303347945E+01  0.000000000E+00  0.00000E+00  9.000E+00
      25     1     1     2     0     0  7.869283642E+01  1.530547285E+00  1.940445581E+03  1.946059854E+03  1.250000000E+02  0.00000E+00  9.000E+00
      25     1     1     2     0     0 -1.410242721E+02  2.251210819E+01  4.539700040E+02  4.920451248E+02  1.250000000E+02  0.00000E+00  9.000E+00
       2     1     1     2   501     0  6.233143569E+01 -2.404265548E+01  9.374308293E+02  9.398083937E+02  1.078959322E-05  0.00000E+00  9.000E+00
#rwgt            1           1   4.5398693486102759E-002           3      324037           0
</event>
<event>
      5   9999  3.19816E-02  3.56504E+01 -1.00000E+00  1.48011E-01
      21    -1     0     0   511   501  0.000000000E+00  0.000000000E+00  6.109514875E+01  6.109514875E+01  0.000000000E+00  0.00000E+00  9.000E+00
      21    -1     0     0   501   502  0.000000000E+00  0.000000000E+00 -2.573219232E+03  2.573219232E+03  0.000000000E+00  0.00000E+00  9.000E+00
      25     1     1     2     0     0 -2.053052844E+02  3.728468491E-01 -9.884552018E+02  1.017260579E+03  1.250000000E+02  0.00000E+00  9.000E+00
      25     1     1     2     0     0  1.706370535E+02 -8.683381240E+00 -1.555149988E+03  1.569493195E+03  1.250000000E+02  0.00000E+00  9.000E+00
      21     1     1     2   511   502  3.466823089E+01  8.310534391E+00  3.148110676E+01  4.756060657E+01  2.132480600E-06  0.00000E+00  9.000E+00
#rwgt            1           1   4.7340134536521632E-002           3      324091           0
</event>
<event>
      5   9999  3.19816E-02  2.42670E+02 -1.00000E+00  1.08674E-01
      21    -1     0     0   502   501  0.000000000E+00  0.000000000E+00  1.319736579E+03  1.319736579E+03  0.000000000E+00  0.00000E+00  9.000E+00
      21    -1     0     0   501   512  0.000000000E+00  0.000000000E+00 -1.557775719E+03  1.557775719E+03  0.000000000E+00  0.00000E+00  9.000E+00
      25     1     1     2     0     0 -6.120584807E+02 -4.403069819E+01  1.045242514E+03  1.218487259E+03  1.250000000E+02  0.00000E+00  9.000E+00
      25     1     1     2     0     0  6.864505489E+02 -1.869556820E+02 -6.172170513E+02  9.501308707E+02  1.250000000E+02  0.00000E+00  9.000E+00
      21     1     1     2   502   512 -7.439206814E+01  2.309863802E+02 -6.660646029E+02  7.088941690E+02  0.000000000E+00  0.00000E+00  9.000E+00
#rwgt            1           1   3.1241033437870613E-002           3      324203           0
</event>
<event>
      5   9999  3.19816E-02  6.13328E+01 -1.00000E+00  1.34196E-01
      21    -1     0     0   502   511  0.000000000E+00  0.000000000E+00  1.385753661E+03  1.385753661E+03  0.000000000E+00  0.00000E+00  9.000E+00
      21    -1     0     0   501   502  0.000000000E+00  0.000000000E+00 -2.519780104E+02  2.519780104E+02  0.000000000E+00  0.00000E+00  9.000E+00
      25     1     1     2     0     0  4.688669227E+00 -7.342258312E+01 -6.152640834E+01  1.575543026E+02  1.250000000E+02  0.00000E+00  9.000E+00
      25     1     1     2     0     0  5.340060180E+01  9.310363582E+01 -9.381993390E+01  1.895971816E+02  1.250000000E+02  0.00000E+00  9.000E+00
      21     1     1     2   501   511 -5.808927103E+01 -1.968105270E+01  1.289121993E+03  1.290580187E+03  2.157918644E-05  0.00000E+00  9.000E+00
#rwgt            1           1   6.0138456617174908E-002           3      324316           0
</event>
<event>
      5   9999  3.19816E-02  9.09856E+01 -1.00000E+00  1.25702E-01
      21    -1     0     0   502   512  0.000000000E+00  0.000000000E+00  4.820123357E+02  4.820123357E+02  0.000000000E+00  0.00000E+00  9.000E+00
      21    -1     0     0   501   502  0.000000000E+00  0.000000000E+00 -7.606865189E+02  7.606865189E+02  0.000000000E+00  0.00000E+00  9.000E+00
      25     1     1     2     0     0  2.480199297E+01  1.832927773E+02 -5.745950214E+02  6.164380096E+02  1.250000000E+02  0.00000E+00  9.000E+00
      25     1     1     2     0     0 -5.506733232E+01 -9.748842953E+01 -1.162638054E+02  2.041535634E+02  1.250000000E+02  0.00000E+00  9.000E+00
      21     1     1     2   501   512  3.026533936E+01 -8.580434777E+01  4.121846436E+02  4.221072817E+02  5.394796609E-06  0.00000E+00  9.000E+00
#rwgt            1           1   2.7411073062849716E-002           3      324390           0
</event>
<event>
      5   9999  3.19816E-02  1.99879E+01 -1.00000E+00  1.66391E-01
      21    -1     0     0   502   501  0.000000000E+00  0.000000000E+00  3.665046928E+02  3.665046928E+02  0.000000000E+00  0.00000E+00  9.000E+00
       2    -1     0     0   501     0  0.000000000E+00  0.000000000E+00 -3.909432973E+03  3.909432973E+03  0.000000000E+00  0.00000E+00  9.000E+00
      25     1     1     2     0     0 -5.664631942E+02  3.347670827E+02 -5.148995882E+02  8.448053834E+02  1.250000000E+02  0.00000E+00  9.000E+00
      25     1     1     2     0     0  5.464960393E+02 -3.356784657E+02 -3.281770013E+02  7.312066038E+02  1.250000000E+02  0.00000E+00  9.000E+00
       2     1     1     2   502     0  1.996715486E+01  9.113830052E-01 -2.699851691E+03  2.699925679E+03  3.051757812E-05  0.00000E+00  9.000E+00
#rwgt            1           1   3.3027056220650053E-002           3      324432           0
</event>
<event>
      5   9999  3.19816E-02  7.41352E+01 -1.00000E+00  1.29971E-01
       2    -1     0     0   502     0  0.000000000E+00  0.000000000E+00  1.242089736E+03  1.242089736E+03  0.000000000E+00  0.00000E+00  9.000E+00
      21    -1     0     0   501   502  0.000000000E+00  0.000000000E+00 -4.954859370E+02  4.954859370E+02  0.000000000E+00  0.00000E+00  9.000E+00
      25     1     1     2     0     0  1.900240339E+02 -1.247239117E+02 -1.104642849E+01  2.596386165E+02  1.250000000E+02  0.00000E+00  9.000E+00
      25     1     1     2     0     0 -2.640775630E+02  1.212457329E+02 -2.891185040E+02  4.285463760E+02  1.250000000E+02  0.00000E+00  9.000E+00
       2     1     1     2   501     0  7.405352907E+01  3.478178834E+00  1.046768732E+03  1.049390681E+03  1.525878906E-05  0.00000E+00  9.000E+00
#rwgt            1           1   2.8078136056849910E-002           3      324624           0
</event>
<event>
      5   9999  3.19816E-02  1.57816E+02 -1.00000E+00  1.15526E-01
      21    -1     0     0   502   511  0.000000000E+00  0.000000000E+00  1.316122937E+02  1.316122937E+02  0.000000000E+00  0.00000E+00  9.000E+00
      21    -1     0     0   501   502  0.000000000E+00  0.000000000E+00 -2.029714180E+03  2.029714180E+03  0.000000000E+00  0.00000E+00  9.000E+00
      25     1     1     2     0     0 -3.449354602E+02 -2.278349210E+02 -9.227011966E+02  1.018769710E+03  1.250000000E+02  0.00000E+00  9.000E+00
      25     1     1     2     0     0  4.085714960E+02  8.341783356E+01 -7.543383726E+02  8.709423532E+02  1.250000000E+02  0.00000E+00  9.000E+00
      21     1     1     2   501   511 -6.363603580E+01  1.444170875E+02 -2.210623168E+02  2.716144107E+02  6.607249480E-06  0.00000E+00  9.000E+00
#rwgt            1           1   2.9025011272910926E-002           3      324705           0
</event>
<event>
      5   9999  3.19816E-02  2.49354E+01 -1.00000E+00  1.58835E-01
      21    -1     0     0   502   512  0.000000000E+00  0.000000000E+00  2.573286985E+02  2.573286985E+02  0.000000000E+00  0.00000E+00  9.000E+00
      21    -1     0     0   501   502  0.000000000E+00  0.000000000E+00 -1.245537225E+02  1.245537225E+02  0.000000000E+00  0.00000E+00  9.000E+00
      25     1     1     2     0     0 -3.924708147E+01 -2.148145891E+01  1.650261935E+02  2.118028117E+02  1.250000000E+02  0.00000E+00  9.000E+00
      25     1     1     2     0     0  2.118549638E+01  3.867319300E+01 -4.755515947E+01  1.408223502E+02  1.250000000E+02  0.00000E+00  9.000E+00
      21     1     1     2   501   512  1.806158509E+01 -1.719173409E+01  1.530394192E+01  2.925725919E+01  1.685873940E-07  0.00000E+00  9.000E+00
#rwgt            1           1   2.6027027082308120E-002           3      324751           0
</event>
<event>
      5   9999  3.19816E-02  8.80329E+00 -1.00000E+00  2.02382E-01
      21    -1     0     0   502   501  0.000000000E+00  0.000000000E+00  4.144476433E+02  4.144476433E+02  0.000000000E+00  0.00000E+00  9.000E+00
      21    -1     0     0   511   502  0.000000000E+00  0.000000000E+00 -9.861075952E+02  9.861075952E+02  0.000000000E+00  0.00000E+00  9.000E+00
      25     1     1     2     0     0 -1.332984152E+02 -2.191589066E+02  2.455101368E+02  3.764297027E+02  1.250000000E+02  0.00000E+00  9.000E+00
      25     1     1     2     0     0  1.373281410E+02  2.269857310E+02 -1.043940415E+02  3.112951273E+02  1.250000000E+02  0.00000E+00  9.000E+00
      21     1     1     2   511   501 -4.029725798E+00 -7.826824444E+00 -7.127760472E+02  7.128304085E+02  1.078959322E-05  0.00000E+00  9.000E+00
#rwgt            1           1   3.0506025424079614E-002           3      324897           0
</event>
<event>
      5   9999  3.19816E-02  1.96094E+01 -1.00000E+00  1.67079E-01
      21    -1     0     0   502   501  0.000000000E+00  0.000000000E+00  8.210937460E+01  8.210937460E+01  0.000000000E+00  0.00000E+00  9.000E+00
      21    -1     0     0   501   512  0.000000000E+00  0.000000000E+00 -2.388912144E+03  2.388912144E+03  0.000000000E+00  0.00000E+00  9.000E+00
      25     1     1     2     0     0 -2.619836698E+02 -2.948224193E+02 -1.252239754E+03  1.318819588E+03  1.250000000E+02  0.00000E+00  9.000E+00
      25     1     1     2     0     0  2.815720091E+02  2.939130388E+02 -8.914548565E+02  9.879192436E+02  1.250000000E+02  0.00000E+00  9.000E+00
      21     1     1     2   502   512 -1.958833932E+01  9.093804949E-01 -1.631081588E+02  1.642826877E+02  2.697398305E-06  0.00000E+00  9.000E+00
#rwgt            1           1   2.4110773898912044E-002           3      325142           0
</event>
<event>
      5   9999  3.19816E-02  2.76852E+02 -1.00000E+00  1.06738E-01
      21    -1     0     0   502   501  0.000000000E+00  0.000000000E+00  1.616649602E+02  1.616649602E+02  0.000000000E+00  0.00000E+00  9.000E+00
       2    -1     0     0   501     0  0.000000000E+00  0.000000000E+00 -2.371686100E+03  2.371686100E+03  0.000000000E+00  0.00000E+00  9.000E+00
      25     1     1     2     0     0  3.706116016E+02 -1.323819040E+02 -2.752764933E+02  4.962661338E+02  1.250000000E+02  0.00000E+00  9.000E+00
      25     1     1     2     0     0 -1.375537459E+02  2.818172254E+02 -7.856529431E+02  8.551125823E+02  1.250000000E+02  0.00000E+00  9.000E+00
       2     1     1     2   502     0 -2.330578558E+02 -1.494353214E+02 -1.149091704E+03  1.181972345E+03  1.525878906E-05  0.00000E+00  9.000E+00
#rwgt            1           1   2.8031241661149706E-002           3      325376           0
</event>
<event>
      5   9999  3.19816E-02  1.57290E+01 -1.00000E+00  1.75464E-01
      21    -1     0     0   502   511  0.000000000E+00  0.000000000E+00  3.265158287E+02  3.265158287E+02  0.000000000E+00  0.00000E+00  9.000E+00
      21    -1     0     0   501   502  0.000000000E+00  0.000000000E+00 -8.240521164E+02  8.240521164E+02  0.000000000E+00  0.00000E+00  9.000E+00
      25     1     1     2     0     0  3.131756743E+02  3.456915483E+02 -4.328488359E+02  6.485096486E+02  1.250000000E+02  0.00000E+00  9.000E+00
      25     1     1     2     0     0 -3.240462649E+02 -3.343235407E+02 -6.402744320E+01  4.863154585E+02  1.250000000E+02  0.00000E+00  9.000E+00
      21     1     1     2   501   511  1.087059057E+01 -1.136800763E+01 -6.600086175E-01  1.574283800E+01  3.294302668E-07  0.00000E+00  9.000E+00
#rwgt            1           1   2.8834121460537723E-002           3      325409           0
</event>
<event>
      5   9999  3.19816E-02  1.69067E+01 -1.00000E+00  1.72624E-01
      21    -1     0     0   502   501  0.000000000E+00  0.000000000E+00  8.022526395E+02  8.022526395E+02  0.000000000E+00  0.00000E+00  9.000E+00
      21    -1     0     0   501   512  0.000000000E+00  0.000000000E+00 -5.715475134E+02  5.715475134E+02  0.000000000E+00  0.00000E+00  9.000E+00
      25     1     1     2     0     0  5.967408326E+02  1.209740773E+02  2.070350914E+02  6.551510343E+02  1.250000000E+02  0.00000E+00  9.000E+00
      25     1     1     2     0     0 -6.081093358E+02 -1.334877511E+02  9.790292229E+01  6.425153121E+02  1.250000000E+02  0.00000E+00  9.000E+00
      21     1     1     2   502   512  1.136850328E+01  1.251367376E+01 -7.423288760E+01  7.613380655E+01  1.348699152E-06  0.00000E+00  9.000E+00
#rwgt            1           1   2.9484964168540115E-002           3      325639           0
</event>
<event>
      5   9999  3.19816E-02  6.60861E+01 -1.00000E+00  1.32499E-01
      21    -1     0     0   502   511  0.000000000E+00  0.000000000E+00  4.507748409E+02  4.507748409E+02  0.000000000E+00  0.00000E+00  9.000E+00
      21    -1     0     0   501   502  0.000000000E+00  0.000000000E+00 -1.780833683E+02  1.780833683E+02  0.000000000E+00  0.00000E+00  9.000E+00
      25     1     1     2     0     0  1.655818018E+02 -9.642943786E+01  1.055599319E+02  2.519600539E+02  1.250000000E+02  0.00000E+00  9.000E+00
      25     1     1     2     0     0 -2.172581430E+02  5.523567819E+01  8.266097995E+01  2.696477674E+02  1.250000000E+02  0.00000E+00  9.000E+00
      21     1     1     2   501   511  5.167634122E+01  4.119375966E+01  8.447056077E+01  1.072503879E+02  1.348699152E-06  0.00000E+00  9.000E+00
#rwgt            1           1   2.9300086454092052E-002           3      325856           0
</event>
<event>
      5   9999  3.19816E-02  4.71920E+01 -1.00000E+00  1.40523E-01
      21    -1     0     0   502   501  0.000000000E+00  0.000000000E+00  3.493244664E+01  3.493244664E+01  0.000000000E+00  0.00000E+00  9.000E+00
      21    -1     0     0   501   512  0.000000000E+00  0.000000000E+00 -2.877834212E+03  2.877834212E+03  0.000000000E+00  0.00000E+00  9.000E+00
      25     1     1     2     0     0 -1.072185550E+02  2.155344089E+02 -1.263256739E+03  1.292050110E+03  1.250000000E+02  0.00000E+00  9.000E+00
      25     1     1     2     0     0  1.522542320E+02 -2.296366181E+02 -1.174954691E+03  1.213283913E+03  1.250000000E+02  0.00000E+00  9.000E+00
      21     1     1     2   502   512 -4.503567701E+01  1.410220920E+01 -4.046903354E+02  4.074326350E+02  7.629394531E-06  0.00000E+00  9.000E+00
#rwgt            1           1   6.5292348988947757E-002           3      325912           0
</event>
<event>
      5   9999  3.19816E-02  7.36787E+01 -1.00000E+00  1.30104E-01
       2    -1     0     0   502     0  0.000000000E+00  0.000000000E+00  7.633193370E+02  7.633193370E+02  0.000000000E+00  0.00000E+00  9.000E+00
      21    -1     0     0   501   502  0.000000000E+00  0.000000000E+00 -1.272846804E+03  1.272846804E+03  0.000000000E+00  0.00000E+00  9.000E+00
      25     1     1     2     0     0 -9.307282656E+01  2.931841818E+02 -1.078836014E+03  1.128774406E+03  1.250000000E+02  0.00000E+00  9.000E+00
      25     1     1     2     0     0  6.220992448E+01 -3.600872850E+02  5.768939671E+01  3.904945506E+02  1.250000000E+02  0.00000E+00  9.000E+00
       2     1     1     2   501     0  3.086290208E+01  6.690310326E+01  5.116191502E+02  5.168971840E+02  5.394796609E-06  0.00000E+00  9.000E+00
#rwgt            1           1   3.0592673513912382E-002           3      326007           0
</event>
<event>
      5   9999  3.19816E-02  4.56476E+02 -1.00000E+00  9.99888E-02
       5    -1     0     0   502     0  0.000000000E+00  0.000000000E+00  1.031150500E+03  1.031150500E+03  0.000000000E+00  0.00000E+00  9.000E+00
      21    -1     0     0   501   502  0.000000000E+00  0.000000000E+00 -9.563068454E+02  9.563068454E+02  0.000000000E+00  0.00000E+00  9.000E+00
      25     1     1     2     0     0  3.816808663E+02  1.340832678E+01  2.199414732E+02  4.581040477E+02  1.250000000E+02  0.00000E+00  9.000E+00
      25     1     1     2     0     0 -8.001431306E+02 -1.957798026E+02  3.059986263E+02  8.875916402E+02  1.250000000E+02  0.00000E+00  9.000E+00
       5     1     1     2   501     0  4.184622643E+02  1.823714758E+02 -4.510964452E+02  6.417616572E+02  7.629394531E-06  0.00000E+00  9.000E+00
#rwgt            2          21   2.3230823955478838E-006           3      326122           0
</event>
<event>
      5   9999  3.19816E-02  7.26865E+02 -1.00000E+00  9.44452E-02
       2    -1     0     0   502     0  0.000000000E+00  0.000000000E+00  1.777184461E+03  1.777184461E+03  0.000000000E+00  0.00000E+00  9.000E+00
      21    -1     0     0   501   502  0.000000000E+00  0.000000000E+00 -7.477909964E+02  7.477909964E+02  0.000000000E+00  0.00000E+00  9.000E+00
      25     1     1     2     0     0  7.719863520E+02 -4.634330600E+02  4.286059651E+02  1.005018011E+03  1.250000000E+02  0.00000E+00  9.000E+00
      25     1     1     2     0     0 -1.253587118E+02  1.314620891E+02 -2.937731182E+02  3.673210210E+02  1.250000000E+02  0.00000E+00  9.000E+00
       2     1     1     2   501     0 -6.466276402E+02  3.319709709E+02  8.945606173E+02  1.152636425E+03  1.868812365E-05  0.00000E+00  9.000E+00
#rwgt            2          18   1.0383340084924452E-003           3      326201           0
</event>
<event>
      5   9999  3.19816E-02  3.11778E+01 -1.00000E+00  1.51887E-01
      21    -1     0     0   502   511  0.000000000E+00  0.000000000E+00  8.621286894E+02  8.621286894E+02  0.000000000E+00  0.00000E+00  9.000E+00
      21    -1     0     0   501   502  0.000000000E+00  0.000000000E+00 -3.546603051E+01  3.546603051E+01  0.000000000E+00  0.00000E+00  9.000E+00
      25     1     1     2     0     0 -6.791799331E+01  4.166972245E+01  3.358231229E+02  3.670849894E+02  1.250000000E+02  0.00000E+00  9.000E+00
      25     1     1     2     0     0  6.230921892E+01 -7.233891774E+01  3.167869604E+02  3.536867768E+02  1.250000000E+02  0.00000E+00  9.000E+00
      21     1     1     2   501   511  5.608774395E+00  3.066919529E+01  1.740525756E+02  1.768229537E+02  2.697398305E-06  0.00000E+00  9.000E+00
#rwgt            1           1   5.2782461588173464E-002           3      326220           0
</event>
<event>
      5   9999  3.19816E-02  3.95208E+01 -1.00000E+00  1.45165E-01
      21    -1     0     0   512   501  0.000000000E+00  0.000000000E+00  2.266318095E+02  2.266318095E+02  0.000000000E+00  0.00000E+00  9.000E+00
      21    -1     0     0   501   502  0.000000000E+00  0.000000000E+00 -3.762343853E+02  3.762343853E+02  0.000000000E+00  0.00000E+00  9.000E+00
      25     1     1     2     0     0  3.648368726E+01 -1.678575078E+02  3.954625212E+01  2.160928236E+02  1.250000000E+02  0.00000E+00  9.000E+00
      25     1     1     2     0     0 -3.089370058E+01  2.069810048E+02 -2.262398732E+02  3.325733563E+02  1.250000000E+02  0.00000E+00  9.000E+00
      21     1     1     2   512   502 -5.589986679E+00 -3.912349703E+01  3.709104527E+01  5.420001485E+01  1.168007728E-06  0.00000E+00  9.000E+00
#rwgt            1           1   2.7299502374001743E-002           3      326284           0
</event>
<event>
      5   9999  3.19816E-02  1.13906E+02 -1.00000E+00  1.21337E-01
       2    -1     0     0   502     0  0.000000000E+00  0.000000000E+00  1.575252831E+03  1.575252831E+03  0.000000000E+00  0.00000E+00  9.000E+00
      21    -1     0     0   501   502  0.000000000E+00  0.000000000E+00 -8.833151747E+01  8.833151747E+01  0.000000000E+00  0.00000E+00  9.000E+00
      25     1     1     2     0     0  1.313373438E+02  2.040496094E+02  2.838067278E+02  3.937727768E+02  1.250000000E+02  0.00000E+00  9.000E+00
      25     1     1     2     0     0 -1.141575816E+02 -9.144619540E+01  2.802281672E+02  3.399223231E+02  1.250000000E+02  0.00000E+00  9.000E+00
       2     1     1     2   501     0 -1.717976229E+01 -1.126034140E+02  9.228864187E+02  9.298892487E+02  0.000000000E+00  0.00000E+00  9.000E+00
#rwgt            1           1   2.8487245764937368E-002           3      326396           0
</event>
<event>
      5   9999  3.19816E-02  4.96511E+01 -1.00000E+00  1.39249E-01
      21    -1     0     0   511   501  0.000000000E+00  0.000000000E+00  5.632396812E+02  5.632396812E+02  0.000000000E+00  0.00000E+00  9.000E+00
      21    -1     0     0   501   502  0.000000000E+00  0.000000000E+00 -1.672058266E+02  1.672058266E+02  0.000000000E+00  0.00000E+00  9.000E+00
      25     1     1     2     0     0  6.658744514E+01  1.859739792E+02  3.497825405E+01  2.363655792E+02  1.250000000E+02  0.00000E+00  9.000E+00
      25     1     1     2     0     0 -1.125114973E+02 -2.048476067E+02  2.197045790E+02  3.442622271E+02  1.250000000E+02  0.00000E+00  9.000E+00
      21     1     1     2   511   502  4.592405219E+01  1.887362745E+01  1.413510216E+02  1.498177015E+02  1.907348633E-06  0.00000E+00  9.000E+00
#rwgt            1           1   2.5331785450434352E-002           3      326460           0
</event>
<event>
      5   9999  3.19816E-02  5.24300E+01 -1.00000E+00  1.37910E-01
      21    -1     0     0   502   501  0.000000000E+00  0.000000000E+00  4.310897553E+02  4.310897553E+02  0.000000000E+00  0.00000E+00  9.000E+00
      21    -1     0     0   512   502  0.000000000E+00  0.000000000E+00 -1.540359337E+03  1.540359337E+03  0.000000000E+00  0.00000E+00  9.000E+00
      25     1     1     2     0     0  1.046442962E+02 -1.588592981E+02 -4.493029037E+02  5.036713259E+02  1.250000000E+02  0.00000E+00  9.000E+00
      25     1     1     2     0     0 -1.043503441E+02  1.064301390E+02  3.797844804E+02  4.267055429E+02  1.250000000E+02  0.00000E+00  9.000E+00
      21     1     1     2   512   501 -2.939521117E-01  5.242915913E+01 -1.039751158E+03  1.041072223E+03  1.525878906E-05  0.00000E+00  9.000E+00
#rwgt            1           1   3.0391882939439202E-002           3      326561           0
</event>
<event>
      5   9999  3.19816E-02  6.51638E+01 -1.00000E+00  1.32815E-01
      21    -1     0     0   502   501  0.000000000E+00  0.000000000E+00  1.421990860E+02  1.421990860E+02  0.000000000E+00  0.00000E+00  9.000E+00
       1    -1     0     0   501     0  0.000000000E+00  0.000000000E+00 -1.492050387E+03  1.492050387E+03  0.000000000E+00  0.00000E+00  9.000E+00
      25     1     1     2     0     0  1.150215045E+02  1.679258362E+02 -9.890436229E+02  1.017477922E+03  1.250000000E+02  0.00000E+00  9.000E+00
      25     1     1     2     0     0 -1.102493801E+02 -1.029369931E+02 -4.589246368E+02  4.989867459E+02  1.250000000E+02  0.00000E+00  9.000E+00
       1     1     1     2   502     0 -4.772124396E+00 -6.498884312E+01  9.811695845E+01  1.177848056E+02  3.303624740E-06  0.00000E+00  9.000E+00
#rwgt            1           1   3.1154522318152283E-002           3      326646           0
</event>
<event>
      5   9999  3.19816E-02  2.45463E+01 -1.00000E+00  1.59349E-01
       1    -1     0     0   502     0  0.000000000E+00  0.000000000E+00  1.102633917E+03  1.102633917E+03  0.000000000E+00  0.00000E+00  9.000E+00
      21    -1     0     0   501   502  0.000000000E+00  0.000000000E+00 -3.149757162E+02  3.149757162E+02  0.000000000E+00  0.00000E+00  9.000E+00
      25     1     1     2     0     0  3.103545471E+02  2.048288457E+02  2.247271578E+02  4.521085007E+02  1.250000000E+02  0.00000E+00  9.000E+00
      25     1     1     2     0     0 -3.329581164E+02 -2.143995516E+02  1.347130361E+01  4.154933826E+02  1.250000000E+02  0.00000E+00  9.000E+00
       1     1     1     2   501     0  2.260356925E+01  9.570705860E+00  5.494597391E+02  5.500077496E+02  0.000000000E+00  0.00000E+00  9.000E+00
#rwgt            1           1   2.6477811556073465E-002           3      326762           0
</event>
<event>
      5   9999  3.19816E-02  1.71187E+01 -1.00000E+00  1.72143E-01
      21    -1     0     0   511   501  0.000000000E+00  0.000000000E+00  2.426557130E+02  2.426557130E+02  0.000000000E+00  0.00000E+00  9.000E+00
      21    -1     0     0   501   502  0.000000000E+00  0.000000000E+00 -4.240343847E+02  4.240343847E+02  0.000000000E+00  0.00000E+00  9.000E+00
      25     1     1     2     0     0 -1.020971540E+02 -1.004604344E+02 -1.575393782E+02  2.469003512E+02  1.250000000E+02  0.00000E+00  9.000E+00
      25     1     1     2     0     0  1.188384845E+02  1.040352416E+02 -1.755073488E+02  2.671586540E+02  1.250000000E+02  0.00000E+00  9.000E+00
      21     1     1     2   511   502 -1.674133053E+01 -3.574807244E+00  1.516680553E+02  1.526310925E+02  3.303624740E-06  0.00000E+00  9.000E+00
#rwgt            1           1   3.1721945939617135E-002           3      327024           0
</event>
<event>
      5   9999  3.19816E-02  1.54525E+02 -1.00000E+00  1.15884E-01
      21    -1     0     0   512   501  0.000000000E+00  0.000000000E+00  5.803848846E+01  5.803848846E+01  0.000000000E+00  0.00000E+00  9.000E+00
      21    -1     0     0   501   502  0.000000000E+00  0.000000000E+00 -2.231696731E+03  2.231696731E+03  0.000000000E+00  0.00000E+00  9.000E+00
      25     1     1     2     0     0  4.686185454E+01 -9.812799588E+01 -7.539253345E+02  7.719155051E+02  1.250000000E+02  0.00000E+00  9.000E+00
      25     1     1     2     0     0 -4.085856327E+01  2.525363781E+02 -1.273948974E+03  1.305379267E+03  1.250000000E+02  0.00000E+00  9.000E+00
      21     1     1     2   512   502 -6.003291268E+00 -1.544083822E+02 -1.457839347E+02  2.124404472E+02  6.607249480E-06  0.00000E+00  9.000E+00
#rwgt            1           1   7.5559382699964053E-002           3      327184           0
</event>
<event>
      5   9999  3.19816E-02  4.58695E+01 -1.00000E+00  1.41246E-01
      21    -1     0     0   511   501  0.000000000E+00  0.000000000E+00  3.409718241E+02  3.409718241E+02  0.000000000E+00  0.00000E+00  9.000E+00
      21    -1     0     0   501   502  0.000000000E+00  0.000000000E+00 -2.468136441E+03  2.468136441E+03  0.000000000E+00  0.00000E+00  9.000E+00
      25     1     1     2     0     0 -6.848775822E+01 -4.148387205E+02 -2.162240124E+03  2.206284000E+03  1.250000000E+02  0.00000E+00  9.000E+00
      25     1     1     2     0     0  7.369930851E+01  4.604111998E+02 -7.036516345E+01  4.878384130E+02  1.250000000E+02  0.00000E+00  9.000E+00
      21     1     1     2   511   502 -5.211550288E+00 -4.557247934E+01  1.054406703E+02  1.149858517E+02  4.473129043E-06  0.00000E+00  9.000E+00
#rwgt            1           1   3.4907113421081590E-002           3      327245           0
</event>
<event>
      5   9999  3.19816E-02  5.44501E+01 -1.00000E+00  1.36995E-01
      21    -1     0     0   512   501  0.000000000E+00  0.000000000E+00  5.300066782E+02  5.300066782E+02  0.000000000E+00  0.00000E+00  9.000E+00
      21    -1     0     0   501   502  0.000000000E+00  0.000000000E+00 -1.065057909E+03  1.065057909E+03  0.000000000E+00  0.00000E+00  9.000E+00
      25     1     1     2     0     0 -3.187626395E+02 -5.795090404E+02  2.448392048E+01  6.735464428E+02  1.250000000E+02  0.00000E+00  9.000E+00
      25     1     1     2     0     0  3.110378788E+02  5.256096628E+02 -5.906713341E+02  8.587943320E+02  1.250000000E+02  0.00000E+00  9.000E+00
      21     1     1     2   512   502  7.724760771E+00  5.389937754E+01  3.113618246E+01  6.272381276E+01  1.118282261E-06  0.00000E+00  9.000E+00
#rwgt            1           1   2.8408027482630185E-002           3      327399           0
</event>
<event>
      5   9999  3.19816E-02  3.31453E+02 -1.00000E+00  1.04204E-01
      21    -1     0     0   502   501  0.000000000E+00  0.000000000E+00  5.893355827E+02  5.893355827E+02  0.000000000E+00  0.00000E+00  9.000E+00
      21    -1     0     0   511   502  0.000000000E+00  0.000000000E+00 -5.219472237E+02  5.219472237E+02  0.000000000E+00  0.00000E+00  9.000E+00
      25     1     1     2     0     0 -1.284029499E+02 -3.354062974E+02  1.474841496E+02  4.078740936E+02  1.250000000E+02  0.00000E+00  9.000E+00
      25     1     1     2     0     0  2.489327106E+02  2.664492777E+01  1.325249395E+02  3.096212302E+02  1.250000000E+02  0.00000E+00  9.000E+00
      21     1     1     2   511   501 -1.205297607E+02  3.087613696E+02 -2.126207300E+02  3.937874826E+02  0.000000000E+00  0.00000E+00  9.000E+00
#rwgt            1           1   2.7179096582059286E-002           3      327487           0
</event>
<event>
      5   9999  3.19816E-02  5.91135E+01 -1.00000E+00  1.35050E-01
      21    -1     0     0   502   512  0.000000000E+00  0.000000000E+00  5.731357681E+02  5.731357681E+02  0.000000000E+00  0.00000E+00  9.000E+00
      21    -1     0     0   501   502  0.000000000E+00  0.000000000E+00 -7.368272479E+02  7.368272479E+02  0.000000000E+00  0.00000E+00  9.000E+00
      25     1     1     2     0     0 -1.333807018E+02  4.859698735E+02 -3.794644833E+02  6.430983001E+02  1.250000000E+02  0.00000E+00  9.000E+00
      25     1     1     2     0     0  1.913498676E+02 -4.743946512E+02  9.875561196E+01  5.357636866E+02  1.250000000E+02  0.00000E+00  9.000E+00
      21     1     1     2   501   512 -5.796916584E+01 -1.157522227E+01  1.170173915E+02  1.311010293E+02  1.348699152E-06  0.00000E+00  9.000E+00
#rwgt            1           1   2.9177570730017321E-002           3      327557           0
</event>
<event>
      5   9999  3.19816E-02  9.48440E+01 -1.00000E+00  1.24871E-01
      21    -1     0     0   502   501  0.000000000E+00  0.000000000E+00  2.215434697E+02  2.215434697E+02  0.000000000E+00  0.00000E+00  9.000E+00
       1    -1     0     0   501     0  0.000000000E+00  0.000000000E+00 -8.020273531E+02  8.020273531E+02  0.000000000E+00  0.00000E+00  9.000E+00
      25     1     1     2     0     0 -1.976197525E+02 -1.220986076E+02  9.807691619E+01  2.814351045E+02  1.250000000E+02  0.00000E+00  9.000E+00
      25     1     1     2     0     0  1.217918924E+02  6.512914947E+01 -3.108636754E+02  3.624034986E+02  1.250000000E+02  0.00000E+00  9.000E+00
       1     1     1     2   502     0  7.582786014E+01  5.696945815E+01 -3.676971242E+02  3.797322197E+02  5.394796609E-06  0.00000E+00  9.000E+00
#rwgt            1           1   2.7344370704053437E-002           3      327705           0
</event>
<event>
      5   9999  3.33911E-02  4.15695E+01 -1.00000E+00  1.43811E-01
      21    -1     0     0   511   501  0.000000000E+00  0.000000000E+00  2.608580111E+03  2.608580111E+03  0.000000000E+00  0.00000E+00  9.000E+00
      21    -1     0     0   501   502  0.000000000E+00  0.000000000E+00 -8.456089949E+01  8.456089949E+01  0.000000000E+00  0.00000E+00  9.000E+00
      25     1     1     2     0     0 -2.793017672E+02 -1.165002541E+02  1.971896164E+03  1.998895012E+03  1.250000000E+02  0.00000E+00  9.000E+00
      25     1     1     2     0     0  3.208591664E+02  1.154954456E+02  4.176065206E+02  5.534528061E+02  1.250000000E+02  0.00000E+00  9.000E+00
      21     1     1     2   511   502 -4.155739915E+01  1.004808512E+00  1.345165271E+02  1.407931928E+02  1.907348633E-06  0.00000E+00  9.000E+00
#rwgt            1           1   9.4699543996347904E-002           3      327784           0
</event>
<event>
      5   9999  3.19816E-02  6.74189E+01 -1.00000E+00  1.32052E-01
      21    -1     0     0   502   512  0.000000000E+00  0.000000000E+00  2.473492284E+02  2.473492284E+02  0.000000000E+00  0.00000E+00  9.000E+00
      21    -1     0     0   501   502  0.000000000E+00  0.000000000E+00 -1.764682227E+03  1.764682227E+03  0.000000000E+00  0.00000E+00  9.000E+00
      25     1     1     2     0     0 -3.883483821E+02  3.184184143E+02 -9.686884516E+02  1.098265482E+03  1.250000000E+02  0.00000E+00  9.000E+00
      25     1     1     2     0     0  4.549924490E+02 -3.286103899E+02 -5.984678722E+02  8.299347631E+02  1.250000000E+02  0.00000E+00  9.000E+00
      21     1     1     2   501   512 -6.664406694E+01  1.019197560E+01  4.982332548E+01  8.383121010E+01  2.861022949E-06  0.00000E+00  9.000E+00
#rwgt            1           1   2.9807108602079430E-002           3      327916           0
</event>
<event>
      5   9999  3.19816E-02  1.13224E+02 -1.00000E+00  1.21449E-01
      21    -1     0     0   502   511  0.000000000E+00  0.000000000E+00  1.501815744E+02  1.501815744E+02  0.000000000E+00  0.00000E+00  9.000E+00
      21    -1     0     0   501   502  0.000000000E+00  0.000000000E+00 -1.941512437E+03  1.941512437E+03  0.000000000E+00  0.00000E+00  9.000E+00
      25     1     1     2     0     0 -2.646505025E+02  2.640383082E+02 -1.277830036E+03  1.337247441E+03  1.250000000E+02  0.00000E+00  9.000E+00
      25     1     1     2     0     0  2.006281248E+02 -3.574241636E+02 -3.388427679E+02  5.462994586E+02  1.250000000E+02  0.00000E+00  9.000E+00
      21     1     1     2   501   511  6.402237774E+01  9.338585540E+01 -1.746580591E+02  2.081471125E+02  2.697398305E-06  0.00000E+00  9.000E+00
#rwgt            1           1   3.0841344511748383E-002           3      328030           0
</event>
<event>
      5   9999  3.19816E-02  2.14503E+01 -1.00000E+00  1.63899E-01
      21    -1     0     0   502   512  0.000000000E+00  0.000000000E+00  7.246668198E+01  7.246668198E+01  0.000000000E+00  0.00000E+00  9.000E+00
      21    -1     0     0   501   502  0.000000000E+00  0.000000000E+00 -6.598663685E+02  6.598663685E+02  0.000000000E+00  0.00000E+00  9.000E+00
      25     1     1     2     0     0  1.678791845E+01 -8.609392066E+01 -7.352323043E+01  1.694835178E+02  1.250000000E+02  0.00000E+00  9.000E+00
      25     1     1     2     0     0 -3.757626972E+01  8.080626776E+01 -5.186348937E+02  5.408777883E+02  1.250000000E+02  0.00000E+00  9.000E+00
      21     1     1     2   501   512  2.078835127E+01  5.287652899E+00  4.758437630E+00  2.197174437E+01  4.539354507E-07  0.00000E+00  9.000E+00
#rwgt            1           1   2.3284038190837530E-002           3      328103           0
</event>
<event>
      5   9999  3.19816E-02  1.97812E+01 -1.00000E+00  1.66764E-01
      21    -1     0     0   502   511  0.000000000E+00  0.000000000E+00  4.262035953E+02  4.262035953E+02  0.000000000E+00  0.00000E+00  9.000E+00
      21    -1     0     0   501   502  0.000000000E+00  0.000000000E+00 -1.138019789E+02  1.138019789E+02  0.000000000E+00  0.00000E+00  9.000E+00
      25     1     1     2     0     0 -1.441496568E+02  6.697344756E+01  1.092589924E+02  2.298414533E+02  1.250000000E+02  0.00000E+00  9.000E+00
      25     1     1     2     0     0  1.363212073E+02 -4.880728078E+01  1.225431114E+02  2.271727016E+02  1.250000000E+02  0.00000E+00  9.000E+00
      21     1     1     2   501   511  7.828449502E+00 -1.816616679E+01  8.059951266E+01  8.299141931E+01  9.536743164E-07  0.00000E+00  9.000E+00
#rwgt            1           1   2.7768347209134594E-002           3      328251           0
</event>
<event>
      5   9999  3.19816E-02  5.95977E+02 -1.00000E+00  9.67328E-02
      -3    -1     0     0     0   501  0.000000000E+00  0.000000000E+00  1.294007963E+03  1.294007963E+03  0.000000000E+00  0.00000E+00  9.000E+00
      21    -1     0     0   501   502  0.000000000E+00  0.000000000E+00 -9.960303271E+02  9.960303271E+02  0.000000000E+00  0.00000E+00  9.000E+00
      25     1     1     2     0     0 -3.178058340E+02 -3.669143763E+02  5.549683584E+01  5.043130045E+02  1.250000000E+02  0.00000E+00  9.000E+00
      25     1     1     2     0     0  8.408513231E+02  6.525920441E+02 -1.351445569E+02  1.080183491E+03  1.250000000E+02  0.00000E+00  9.000E+00
      -3     1     1     2     0   502 -5.230454891E+02 -2.856776678E+02  3.776253569E+02  7.055417944E+02  0.000000000E+00  0.00000E+00  9.000E+00
#rwgt            2           3   2.9305369405958254E-005           3      328535           0
</event>
<event>
      5   9999  3.19816E-02  2.54230E+02 -1.00000E+00  1.07982E-01
      21    -1     0     0   502   501  0.000000000E+00  0.000000000E+00  1.440745659E+03  1.440745659E+03  0.000000000E+00  0.00000E+00  9.000E+00
      21    -1     0     0   501   511  0.000000000E+00  0.000000000E+00 -5.337391300E+02  5.337391300E+02  0.000000000E+00  0.00000E+00  9.000E+00
      25     1     1     2     0     0  5.454136888E+01 -5.909603881E+02  6.300373289E+02  8.745175681E+02  1.250000000E+02  0.00000E+00  9.000E+00
      25     1     1     2     0     0 -2.545899261E+02  7.478476090E+02  2.748434051E+02  8.457280734E+02  1.250000000E+02  0.00000E+00  9.000E+00
      21     1     1     2   502   511  2.000485572E+02 -1.568872210E+02  2.125795395E+00  2.542391479E+02  4.376174481E-06  0.00000E+00  9.000E+00
#rwgt            2          11   5.3895972594686604E-003           3      328584           0
</event>
<event>
      5   9999  3.19816E-02  1.78704E+02 -1.00000E+00  1.13457E-01
      21    -1     0     0   502   501  0.000000000E+00  0.000000000E+00  1.132015443E+03  1.132015443E+03  0.000000000E+00  0.00000E+00  9.000E+00
      21    -1     0     0   501   512  0.000000000E+00  0.000000000E+00 -3.444341366E+02  3.444341366E+02  0.000000000E+00  0.00000E+00  9.000E+00
      25     1     1     2     0     0 -7.481019585E+01 -2.338458978E+02  8.395786220E+02  8.836275979E+02  1.250000000E+02  0.00000E+00  9.000E+00
      25     1     1     2     0     0  2.459714022E+02  1.824739118E+02  1.130342978E+02  3.495717547E+02  1.250000000E+02  0.00000E+00  9.000E+00
      21     1     1     2   502   512 -1.711612063E+02  5.137198595E+01 -1.650316134E+02  2.432502270E+02  2.697398305E-06  0.00000E+00  9.000E+00
#rwgt            2          11   4.3462575061292939E-003           3      328634           0
</event>
<event>
      5   9999  3.19816E-02  3.11460E+01 -1.00000E+00  1.51918E-01
      21    -1     0     0   502   511  0.000000000E+00  0.000000000E+00  1.238158645E+03  1.238158645E+03  0.000000000E+00  0.00000E+00  9.000E+00
      21    -1     0     0   501   502  0.000000000E+00  0.000000000E+00 -3.014200011E+01  3.014200011E+01  0.000000000E+00  0.00000E+00  9.000E+00
      25     1     1     2     0     0 -9.610643320E+01 -5.117844333E+01  3.265445416E+02  3.662130763E+02  1.250000000E+02  0.00000E+00  9.000E+00
      25     1     1     2     0     0  6.672795481E+01  6.152155478E+01  6.285015658E+02  6.472068756E+02  1.250000000E+02  0.00000E+00  9.000E+00
      21     1     1     2   501   511  2.937847839E+01 -1.034311145E+01  2.529705372E+02  2.548806929E+02  0.000000000E+00  0.00000E+00  9.000E+00
#rwgt            1           1   2.9581524223028070E-002           3      328684           0
</event>
<event>
      5   9999  3.19816E-02  4.19727E+01 -1.00000E+00  1.43555E-01
      21    -1     0     0   502   501  0.000000000E+00  0.000000000E+00  6.596107348E+02  6.596107348E+02  0.000000000E+00  0.00000E+00  9.000E+00
      21    -1     0     0   501   512  0.000000000E+00  0.000000000E+00 -1.809547033E+02  1.809547033E+02  0.000000000E+00  0.00000E+00  9.000E+00
      25     1     1     2     0     0  1.969618069E+02  2.204419058E+01 -4.934154677E+01  2.394566515E+02  1.250000000E+02  0.00000E+00  9.000E+00
      25     1     1     2     0     0 -1.919575520E+02  1.962915251E+01  5.009156175E+02  5.511573834E+02  1.250000000E+02  0.00000E+00  9.000E+00
      21     1     1     2   502   512 -5.004254851E+00 -4.167334310E+01  2.708196074E+01  4.995140327E+01  4.768371582E-07  0.00000E+00  9.000E+00
#rwgt            1           1   2.3980117353238656E-002           3      328793           0
</event>
<event>
      5   9999  3.19816E-02  3.65307E+01 -1.00000E+00  1.47327E-01
      21    -1     0     0   502   511  0.000000000E+00  0.000000000E+00  8.751559719E+02  8.751559719E+02  0.000000000E+00  0.00000E+00  9.000E+00
      21    -1     0     0   501   502  0.000000000E+00  0.000000000E+00 -3.696402144E+02  3.696402144E+02  0.000000000E+00  0.00000E+00  9.000E+00
      25     1     1     2     0     0 -1.284782483E+02  1.302338252E+02  1.362387225E+02  2.601028624E+02  1.250000000E+02  0.00000E+00  9.000E+00
      25     1     1     2     0     0  9.797652940E+01 -1.503369206E+02 -2.682628466E+02  3.461077071E+02  1.250000000E+02  0.00000E+00  9.000E+00
      21     1     1     2   501   511  3.050171891E+01  2.010309541E+01  6.375398817E+02  6.385856169E+02  1.078959322E-05  0.00000E+00  9.000E+00
#rwgt            1           1   3.0205334237606813E-002           3      328887           0
</event>
<event>
      5   9999  3.19816E-02  4.79863E+01 -1.00000E+00  1.40102E-01
       2    -1     0     0   502     0  0.000000000E+00  0.000000000E+00  4.109205958E+03  4.109205958E+03  0.000000000E+00  0.00000E+00  9.000E+00
      21    -1     0     0   501   502  0.000000000E+00  0.000000000E+00 -7.369141321E+01  7.369141321E+01  0.000000000E+00  0.00000E+00  9.000E+00
      25     1     1     2     0     0 -2.992037541E+02  2.009971368E+02  7.322623150E+02  8.256850691E+02  1.250000000E+02  0.00000E+00  9.000E+00
      25     1     1     2     0     0  2.798774185E+02 -1.570747536E+02  1.083173075E+03  1.136614604E+03  1.250000000E+02  0.00000E+00  9.000E+00
       2     1     1     2   501     0  1.932633565E+01 -4.392238319E+01  2.220079155E+03  2.220597698E+03  0.000000000E+00  0.00000E+00  9.000E+00
#rwgt            1           1   3.4391983840063083E-002           3      329010           0
</event>
<event>
      5   9999  3.19816E-02  6.20661E+01 -1.00000E+00  1.33922E-01
       2    -1     0     0   502     0  0.000000000E+00  0.000000000E+00  2.935597767E+03  2.935597767E+03  0.000000000E+00  0.00000E+00  9.000E+00
      21    -1     0     0   501   502  0.000000000E+00  0.000000000E+00 -1.547387565E+02  1.547387565E+02  0.000000000E+00  0.00000E+00  9.000E+00
      25     1     1     2     0     0 -3.064600252E+02 -1.008433315E+02  7.854658058E+01  3.547980973E+02  1.250000000E+02  0.00000E+00  9.000E+00
      25     1     1     2     0     0  2.963731779E+02  3.960238518E+01  2.557961284E+03  2.578409653E+03  1.250000000E+02  0.00000E+00  9.000E+00
       2     1     1     2   501     0  1.008684729E+01  6.124094632E+01  1.443511467E+02  1.571287738E+02  1.907348633E-06  0.00000E+00  9.000E+00
#rwgt            1           1   8.3915455397952393E-002           3      329130           0
</event>
<event>
      5   9999  3.19816E-02  8.01069E+01 -1.00000E+00  1.28321E-01
      21    -1     0     0   502   501  0.000000000E+00  0.000000000E+00  1.265171243E+03  1.265171243E+03  0.000000000E+00  0.00000E+00  9.000E+00
      21    -1     0     0   501   511  0.000000000E+00  0.000000000E+00 -1.028568405E+02  1.028568405E+02  0.000000000E+00  0.00000E+00  9.000E+00
      25     1     1     2     0     0  7.649414108E+01  6.746533767E+01  4.345960491E+02  4.635748605E+02  1.250000000E+02  0.00000E+00  9.000E+00
      25     1     1     2     0     0 -1.455059164E+02 -1.081408523E+02  7.788746336E+02  8.094054055E+02  1.250000000E+02  0.00000E+00  9.000E+00
      21     1     1     2   502   511  6.901177531E+01  4.067551466E+01 -5.115628007E+01  9.504781752E+01  3.303624740E-06  0.00000E+00  9.000E+00
#rwgt            1           1   3.1152459310209813E-002           3      329229           0
</event>
<event>
      5   9999  3.19816E-02  6.88242E+00 -1.00000E+00  2.16599E-01
      21    -1     0     0   502   501  0.000000000E+00  0.000000000E+00  1.731186085E+03  1.731186085E+03  0.000000000E+00  0.00000E+00  9.000E+00
      21    -1     0     0   501   512  0.000000000E+00  0.000000000E+00 -5.390104664E+01  5.390104664E+01  0.000000000E+00  0.00000E+00  9.000E+00
      25     1     1     2     0     0 -1.208133990E+02 -1.428845598E+01  1.565028722E+03  1.574719003E+03  1.250000000E+02  0.00000E+00  9.000E+00
      25     1     1     2     0     0  1.152959798E+02  1.017436707E+01  1.111147990E+02  2.033916893E+02  1.250000000E+02  0.00000E+00  9.000E+00
      21     1     1     2   502   512  5.517419221E+00  4.114088910E+00  1.141516981E+00  6.976439166E+00  8.688795410E-08  0.00000E+00  9.000E+00
#rwgt            1           1   3.4610776266330134E-002           3      329289           0
</event>
<event>
      5   9999  3.19816E-02  3.42630E+01 -1.00000E+00  1.49137E-01
      21    -1     0     0   502   501  0.000000000E+00  0.000000000E+00  5.016176282E+02  5.016176282E+02  0.000000000E+00  0.00000E+00  9.000E+00
       1    -1     0     0   501     0  0.000000000E+00  0.000000000E+00 -4.336718341E+02  4.336718341E+02  0.000000000E+00  0.00000E+00  9.000E+00
      25     1     1     2     0     0  2.829343273E+02 -1.747870457E+01  2.447311189E+02  3.948109158E+02  1.250000000E+02  0.00000E+00  9.000E+00
      25     1     1     2     0     0 -3.171258283E+02  1.526655916E+01  1.897634496E+01  3.417410722E+02  1.250000000E+02  0.00000E+00  9.000E+00
       1     1     1     2   502     0  3.419150094E+01  2.212145407E+00 -1.957616698E+02  1.987374742E+02  2.697398305E-06  0.00000E+00  9.000E+00
#rwgt            1           1   2.6997654812898075E-002           3      329658           0
</event>
<event>
      5   9999  3.19816E-02  6.71432E+01 -1.00000E+00  1.32144E-01
      21    -1     0     0   511   501  0.000000000E+00  0.000000000E+00  1.101294264E+02  1.101294264E+02  0.000000000E+00  0.00000E+00  9.000E+00
      21    -1     0     0   501   502  0.000000000E+00  0.000000000E+00 -5.043057017E+02  5.043057017E+02  0.000000000E+00  0.00000E+00  9.000E+00
      25     1     1     2     0     0  1.194413714E+02 -4.222133591E+01 -1.334618383E+02  2.224543654E+02  1.250000000E+02  0.00000E+00  9.000E+00
      25     1     1     2     0     0 -6.734186001E+01 -1.324559923E-01 -2.867413746E+02  3.199696228E+02  1.250000000E+02  0.00000E+00  9.000E+00
      21     1     1     2   511   502 -5.209951138E+01  4.235379191E+01  2.602693767E+01  7.201113983E+01  1.507891493E-06  0.00000E+00  9.000E+00
#rwgt            1           1   3.5386055855625105E-002           3      329757           0
</event>
<event>
      5   9999  3.19816E-02  4.51458E+01 -1.00000E+00  1.41654E-01
      21    -1     0     0   512   501  0.000000000E+00  0.000000000E+00  6.179172311E+02  6.179172311E+02  0.000000000E+00  0.00000E+00  9.000E+00
      21    -1     0     0   501   502  0.000000000E+00  0.000000000E+00 -1.707496678E+02  1.707496678E+02  0.000000000E+00  0.00000E+00  9.000E+00
      25     1     1     2     0     0  8.707964720E+01 -1.512768735E+02  3.993608169E+02  4.534110933E+02  1.250000000E+02  0.00000E+00  9.000E+00
      25     1     1     2     0     0 -1.136482919E+02  1.877769009E+02 -2.045497075E+01  2.534156755E+02  1.250000000E+02  0.00000E+00  9.000E+00
      21     1     1     2   512   502  2.656864469E+01 -3.650002738E+01  6.826171713E+01  8.184013016E+01  9.536743164E-07  0.00000E+00  9.000E+00
#rwgt            1           1   2.8980745543435871E-002           3      329837           0
</event>
<event>
      5   9999  3.19816E-02  3.22298E+02 -1.00000E+00  1.04590E-01
      21    -1     0     0   511   501  0.000000000E+00  0.000000000E+00  1.673836615E+02  1.673836615E+02  0.000000000E+00  0.00000E+00  9.000E+00
      21    -1     0     0   501   502  0.000000000E+00  0.000000000E+00 -4.334775125E+03  4.334775125E+03  0.000000000E+00  0.00000E+00  9.000E+00
      25     1     1     2     0     0  3.988334303E+02 -3.981128105E+02 -1.278555378E+03  1.402815301E+03  1.250000000E+02  0.00000E+00  9.000E+00
      25     1     1     2     0     0 -1.607840444E+02  6.153880499E+02 -2.552465998E+03  2.633488491E+03  1.250000000E+02  0.00000E+00  9.000E+00
      21     1     1     2   511   502 -2.380493859E+02 -2.172752394E+02 -3.363700875E+02  4.658549941E+02  9.344061824E-06  0.00000E+00  9.000E+00
#rwgt            2          11   1.0659565201428811E-003           3      329975           0
</event>
<event>
      5   9999  3.19816E-02  3.97196E+02 -1.00000E+00  1.01777E-01
      21    -1     0     0   502   501  0.000000000E+00  0.000000000E+00  4.039054536E+02  4.039054536E+02  0.000000000E+00  0.00000E+00  9.000E+00
       2    -1     0     0   501     0  0.000000000E+00  0.000000000E+00 -1.483381182E+03  1.483381182E+03  0.000000000E+00  0.00000E+00  9.000E+00
      25     1     1     2     0     0 -6.354695205E+01  2.386108403E+02 -4.552837162E+00  2.768015111E+02  1.250000000E+02  0.00000E+00  9.000E+00
      25     1     1     2     0     0 -3.325953887E+02 -2.675278256E+02  2.053771900E+01  4.452388437E+02  1.250000000E+02  0.00000E+00  9.000E+00
       2     1     1     2   502     0  3.961423407E+02  2.891698530E+01 -1.095460610E+03  1.165246281E+03  1.525878906E-05  0.00000E+00  9.000E+00
#rwgt            2          13   2.2969063047205227E-003           3      330085           0
</event>
<event>
      5   9999  3.19816E-02  9.14652E+01 -1.00000E+00  1.25596E-01
       5    -1     0     0   502     0  0.000000000E+00  0.000000000E+00  2.374702194E+02  2.374702194E+02  0.000000000E+00  0.00000E+00  9.000E+00
      21    -1     0     0   501   502  0.000000000E+00  0.000000000E+00 -3.001712155E+02  3.001712155E+02  0.000000000E+00  0.00000E+00  9.000E+00
      25     1     1     2     0     0  4.480997452E+00  7.025686681E+01  3.304706360E+01  1.472182566E+02  1.250000000E+02  0.00000E+00  9.000E+00
      25     1     1     2     0     0  2.916615915E+01 -1.553083513E+02 -1.769179267E+02  2.681348572E+02  1.250000000E+02  0.00000E+00  9.000E+00
       5     1     1     2   501     0 -3.364715661E+01  8.505148453E+01  8.116986705E+01  1.222883211E+02  1.348699152E-06  0.00000E+00  9.000E+00
#rwgt            1           1   2.9129855249535725E-002           3      330119           0
</event>
<event>
      5   9999  3.19816E-02  3.26842E+01 -1.00000E+00  1.50499E-01
      21    -1     0     0   511   501  0.000000000E+00  0.000000000E+00  4.539746064E+01  4.539746064E+01  0.000000000E+00  0.00000E+00  9.000E+00
      21    -1     0     0   501   502  0.000000000E+00  0.000000000E+00 -1.413412725E+03  1.413412725E+03  0.000000000E+00  0.00000E+00  9.000E+00
      25     1     1     2     0     0  6.836278035E+01 -1.095682352E+02 -6.465181183E+02  6.710360238E+02  1.250000000E+02  0.00000E+00  9.000E+00
      25     1     1     2     0     0 -9.641584673E+01  9.279671188E+01 -7.311195800E+02  7.537029159E+02  1.250000000E+02  0.00000E+00  9.000E+00
      21     1     1     2   511   502  2.805306638E+01  1.677152335E+01  9.622434345E+00  3.407124552E+01  1.198038533E-06  0.00000E+00  9.000E+00
#rwgt            1           1   3.8008324303199996E-002           3      330229           0
</event>
<event>
      5   9999  3.19816E-02  1.41880E+02 -1.00000E+00  1.17360E-01
      21    -1     0     0   502   501  0.000000000E+00  0.000000000E+00  2.133081079E+02  2.133081079E+02  0.000000000E+00  0.00000E+00  9.000E+00
      21    -1     0     0   501   512  0.000000000E+00  0.000000000E+00 -9.809880790E+02  9.809880790E+02  0.000000000E+00  0.00000E+00  9.000E+00
      25     1     1     2     0     0  9.206934111E+01  8.813141007E+01  1.365372378E+02  2.247472499E+02  1.250000000E+02  0.00000E+00  9.000E+00
      25     1     1     2     0     0  2.908836305E+01 -1.619610766E+02 -5.773501612E+02  6.132175240E+02  1.250000000E+02  0.00000E+00  9.000E+00
      21     1     1     2   502   512 -1.211577042E+02  7.382966657E+01 -3.268670478E+02  3.563314130E+02  3.814697266E-06  0.00000E+00  9.000E+00
#rwgt            1           1   3.0105575877065013E-002           3      330321           0
</event>
<event>
      5   9999  3.19816E-02  2.67846E+02 -1.00000E+00  1.07217E-01
      21    -1     0     0   502   501  0.000000000E+00  0.000000000E+00  2.921085293E+02  2.921085293E+02  0.000000000E+00  0.00000E+00  9.000E+00
      21    -1     0     0   501   511  0.000000000E+00  0.000000000E+00 -1.164964369E+03  1.164964369E+03  0.000000000E+00  0.00000E+00  9.000E+00
      25     1     1     2     0     0 -3.509178438E+02  1.008677108E+02 -6.287679020E+02  7.377612776E+02  1.250000000E+02  0.00000E+00  9.000E+00
      25     1     1     2     0     0  1.823222197E+02 -3.089948890E+02 -3.891634032E+01  3.819145386E+02  1.250000000E+02  0.00000E+00  9.000E+00
      21     1     1     2   502   511  1.685956241E+02  2.081271782E+02 -2.051715978E+02  3.373970825E+02  5.394796609E-06  0.00000E+00  9.000E+00
#rwgt            2          11   3.6471369229762558E-003           3      330681           0
</event>
<event>
      5   9999  3.19816E-02  1.69710E+02 -1.00000E+00  1.14308E-01
       2    -1     0     0   502     0  0.000000000E+00  0.000000000E+00  1.421087294E+03  1.421087294E+03  0.000000000E+00  0.00000E+00  9.000E+00
      21    -1     0     0   501   502  0.000000000E+00  0.000000000E+00 -9.020504111E+02  9.020504111E+02  0.000000000E+00  0.00000E+00  9.000E+00
      25     1     1     2     0     0 -1.690559641E+02 -2.124820866E+02  4.513487476E+01  3.023089695E+02  1.250000000E+02  0.00000E+00  9.000E+00
      25     1     1     2     0     0  3.168045761E+02  1.289841659E+02 -7.242818787E+02  8.106856939E+02  1.250000000E+02  0.00000E+00  9.000E+00
       2     1     1     2   501     0 -1.477486119E+02  8.349792064E+01  1.198183887E+03  1.210143042E+03  1.525878906E-05  0.00000E+00  9.000E+00
#rwgt            1           1   2.8683364254238210E-002           3      330701           0
</event>
<event>
      5   9999  3.19816E-02  6.10341E+02 -1.00000E+00  9.64524E-02
      -3    -1     0     0     0   501  0.000000000E+00  0.000000000E+00  2.007984561E+03  2.007984561E+03  0.000000000E+00  0.00000E+00  9.000E+00
      21    -1     0     0   501   502  0.000000000E+00  0.000000000E+00 -3.654206022E+02  3.654206022E+02  0.000000000E+00  0.00000E+00  9.000E+00
      25     1     1     2     0     0  1.565253196E-01 -1.349523955E+02 -7.556424552E+01  1.988645990E+02  1.250000000E+02  0.00000E+00  9.000E+00
      25     1     1     2     0     0 -4.197254294E+02 -3.083067601E+02  2.631600175E+02  5.967417274E+02  1.250000000E+02  0.00000E+00  9.000E+00
      -3     1     1     2     0   502  4.195689041E+02  4.432591556E+02  1.454968187E+03  1.577798837E+03  3.051757812E-05  0.00000E+00  9.000E+00
#rwgt            2           3   3.5436147882343135E-005           3      330762           0
</event>
<event>
      5   9999  3.19816E-02  3.19541E+02 -1.00000E+00  1.04709E-01
      21    -1     0     0   502   501  0.000000000E+00  0.000000000E+00  7.852421858E+02  7.852421858E+02  0.000000000E+00  0.00000E+00  9.000E+00
      21    -1     0     0   511   502  0.000000000E+00  0.000000000E+00 -1.107144095E+03  1.107144095E+03  0.000000000E+00  0.00000E+00  9.000E+00
      25     1     1     2     0     0  7.280862002E+02  6.409961373E+00  3.773285308E+02  8.295495300E+02  1.250000000E+02  0.00000E+00  9.000E+00
      25     1     1     2     0     0 -4.400468033E+02 -1.447569027E+02 -4.465890152E+02  6.554864594E+02  1.250000000E+02  0.00000E+00  9.000E+00
      21     1     1     2   511   501 -2.880393969E+02  1.383469413E+02 -2.526414244E+02  4.073502911E+02  2.697398305E-06  0.00000E+00  9.000E+00
#rwgt            1           1   3.2457542673179011E-002           3      330781           0
</event>
<event>
      5   9999  3.19816E-02  7.92551E+02 -1.00000E+00  9.34824E-02
      21    -1     0     0   502   501  0.000000000E+00  0.000000000E+00  1.132500435E+03  1.132500435E+03  0.000000000E+00  0.00000E+00  9.000E+00
       2    -1     0     0   501     0  0.000000000E+00  0.000000000E+00 -1.521958722E+03  1.521958722E+03  0.000000000E+00  0.00000E+00  9.000E+00
      25     1     1     2     0     0 -7.440516778E+02 -8.998143821E+01 -2.825845102E+02  8.106716745E+02  1.250000000E+02  0.00000E+00  9.000E+00
      25     1     1     2     0     0 -2.061438412E+01  2.983649164E+02 -7.539209407E+02  8.206511811E+02  1.250000000E+02  0.00000E+00  9.000E+00
       2     1     1     2   502     0  7.646660619E+02 -2.083834781E+02  6.470471636E+02  1.023136302E+03  2.157918644E-05  0.00000E+00  9.000E+00
#rwgt            2          13   1.8449364707566154E-004           3      330837           0
</event>
<event>
      5   9999  3.19816E-02  2.92099E+01 -1.00000E+00  1.53849E-01
      21    -1     0     0   502   501  0.000000000E+00  0.000000000E+00  1.429020855E+03  1.429020855E+03  0.000000000E+00  0.00000E+00  9.000E+00
      21    -1     0     0   511   502  0.000000000E+00  0.000000000E+00 -1.437462110E+02  1.437462110E+02  0.000000000E+00  0.00000E+00  9.000E+00
      25     1     1     2     0     0 -3.108964850E+01 -2.998101945E+01 -1.028555788E+02  1.675401381E+02  1.250000000E+02  0.00000E+00  9.000E+00
      25     1     1     2     0     0  5.498712517E+01  1.318429567E+01  1.351171690E+03  1.358119047E+03  1.250000000E+02  0.00000E+00  9.000E+00
      21     1     1     2   511   501 -2.389747667E+01  1.679672377E+01  3.695853315E+01  4.710788143E+01  6.743495762E-07  0.00000E+00  9.000E+00
#rwgt            1           1   2.7116337584230377E-002           3      330856           0
</event>
<event>
      5   9999  3.19816E-02  2.37002E+01 -1.00000E+00  1.60508E-01
      21    -1     0     0   512   501  0.000000000E+00  0.000000000E+00  8.210900951E+02  8.210900951E+02  0.000000000E+00  0.00000E+00  9.000E+00
      21    -1     0     0   501   502  0.000000000E+00  0.000000000E+00 -1.297224002E+03  1.297224002E+03  0.000000000E+00  0.00000E+00  9.000E+00
      25     1     1     2     0     0  8.082717808E+01  2.223293034E+02 -1.213523000E+02  2.937936905E+02  1.250000000E+02  0.00000E+00  9.000E+00
      25     1     1     2     0     0 -5.937606200E+01 -2.122521351E+02 -1.074723545E+03  1.104188473E+03  1.250000000E+02  0.00000E+00  9.000E+00
      21     1     1     2   512   502 -2.145111607E+01 -1.007716829E+01  7.199419383E+02  7.203319334E+02  1.078959322E-05  0.00000E+00  9.000E+00
#rwgt            1           1   2.6494211907849424E-002           3      330998           0
</event>
<event>
      5   9999  3.19816E-02  8.88778E+00 -1.00000E+00  2.01869E-01
      21    -1     0     0   502   501  0.000000000E+00  0.000000000E+00  2.630562396E+02  2.630562396E+02  0.000000000E+00  0.00000E+00  9.000E+00
      21    -1     0     0   511   502  0.000000000E+00  0.000000000E+00 -1.289171619E+02  1.289171619E+02  0.000000000E+00  0.00000E+00  9.000E+00
      25     1     1     2     0     0 -1.052110520E+01  1.130312845E+02  7.556326321E+01  1.849907340E+02  1.250000000E+02  0.00000E+00  9.000E+00
      25     1     1     2     0     0  2.007747570E+00 -1.104787739E+02  7.908378238E+01  1.846316202E+02  1.250000000E+02  0.00000E+00  9.000E+00
      21     1     1     2   511   501  8.513357630E+00 -2.552510584E+00 -2.050796789E+01  2.235104730E+01  2.384185791E-07  0.00000E+00  9.000E+00
#rwgt            1           1   3.0745157683347707E-002           3      331200           0
</event>
<event>
      5   9999  3.19816E-02  1.98445E+02 -1.00000E+00  1.11772E-01
      21    -1     0     0   512   501  0.000000000E+00  0.000000000E+00  1.050915817E+03  1.050915817E+03  0.000000000E+00  0.00000E+00  9.000E+00
      21    -1     0     0   501   502  0.000000000E+00  0.000000000E+00 -4.134633884E+02  4.134633884E+02  0.000000000E+00  0.00000E+00  9.000E+00
      25     1     1     2     0     0 -9.420425197E+01 -2.314490079E+02  4.313684073E+02  5.139521253E+02  1.250000000E+02  0.00000E+00  9.000E+00
      25     1     1     2     0     0  5.939694399E+01  4.268176741E+02 -2.054893854E+02  4.935100925E+02  1.250000000E+02  0.00000E+00  9.000E+00
      21     1     1     2   512   502  3.480730798E+01 -1.953686662E+02  4.115734063E+02  4.569169872E+02  5.394796609E-06  0.00000E+00  9.000E+00
#rwgt            1           1   2.3923187168017633E-002           3      331372           0
</event>
<event>
      5   9999  3.19816E-02  1.54140E+02 -1.00000E+00  1.15927E-01
      21    -1     0     0   502   501  0.000000000E+00  0.000000000E+00  1.771160969E+03  1.771160969E+03  0.000000000E+00  0.00000E+00  9.000E+00
      21    -1     0     0   501   511  0.000000000E+00  0.000000000E+00 -4.322540498E+02  4.322540498E+02  0.000000000E+00  0.00000E+00  9.000E+00
      25     1     1     2     0     0 -2.207416799E+02  5.394453060E+02  1.150157160E+03  1.295459231E+03  1.250000000E+02  0.00000E+00  9.000E+00
      25     1     1     2     0     0  1.981353848E+02 -6.919184093E+02  1.248447233E+02  7.410937328E+02  1.250000000E+02  0.00000E+00  9.000E+00
      21     1     1     2   502   511  2.260629507E+01  1.524731032E+02  6.390503636E+01  1.668620552E+02  3.015782986E-06  0.00000E+00  9.000E+00
#rwgt            1           1   1.5663523679824966E-002           3      331455           0
</event>
<event>
      5   9999  3.19816E-02  1.73623E+01 -1.00000E+00  1.71602E-01
      21    -1     0     0   502   501  0.000000000E+00  0.000000000E+00  4.587938608E+02  4.587938608E+02  0.000000000E+00  0.00000E+00  9.000E+00
      21    -1     0     0   501   512  0.000000000E+00  0.000000000E+00 -1.266757978E+03  1.266757978E+03  0.000000000E+00  0.00000E+00  9.000E+00
      25     1     1     2     0     0  1.858294917E+02 -5.373656565E+02  1.397855144E+02  5.987148226E+02  1.250000000E+02  0.00000E+00  9.000E+00
      25     1     1     2     0     0 -2.031915805E+02  5.372708585E+02 -8.906776414E+02  1.067182484E+03  1.250000000E+02  0.00000E+00  9.000E+00
      21     1     1     2   502   512  1.736208878E+01  9.479801148E-02 -5.707198997E+01  5.965453170E+01  0.000000000E+00  0.00000E+00  9.000E+00
#rwgt            1           1   3.0567040241439233E-002           3      331601           0
</event>
<event>
      5   9999  3.19816E-02  1.48385E+02 -1.00000E+00  1.16580E-01
      21    -1     0     0   502   501  0.000000000E+00  0.000000000E+00  2.531314999E+03  2.531314999E+03  0.000000000E+00  0.00000E+00  9.000E+00
      -4    -1     0     0     0   502  0.000000000E+00  0.000000000E+00 -7.245529422E+02  7.245529422E+02  0.000000000E+00  0.00000E+00  9.000E+00
      25     1     1     2     0     0  1.911979429E+02  3.745693381E+02  2.263650771E+03  2.305775066E+03  1.250000000E+02  0.00000E+00  9.000E+00
      25     1     1     2     0     0 -6.048463601E+01 -3.043394743E+02  1.192573901E+02  3.551453673E+02  1.250000000E+02  0.00000E+00  9.000E+00
      -4     1     1     2     0   501 -1.307133069E+02 -7.022986383E+01 -5.761461048E+02  5.949475073E+02  1.321449896E-05  0.00000E+00  9.000E+00
#rwgt            1           1   2.6533857250513080E-002           3      331833           0
</event>
<event>
      5   9999  3.19816E-02  1.91046E+02 -1.00000E+00  1.12377E-01
      21    -1     0     0   511   501  0.000000000E+00  0.000000000E+00  2.440381022E+02  2.440381022E+02  0.000000000E+00  0.00000E+00  9.000E+00
      21    -1     0     0   501   502  0.000000000E+00  0.000000000E+00 -1.415990513E+03  1.415990513E+03  0.000000000E+00  0.00000E+00  9.000E+00
      25     1     1     2     0     0 -3.566459437E+02  3.387695854E+02 -9.889353173E+02  1.111566113E+03  1.250000000E+02  0.00000E+00  9.000E+00
      25     1     1     2     0     0  2.150137814E+02 -2.105554146E+02 -1.098370115E+02  3.438803250E+02  1.250000000E+02  0.00000E+00  9.000E+00
      21     1     1     2   511   502  1.416321623E+02 -1.282141708E+02 -7.318008228E+01  2.045821777E+02  4.156969970E-06  0.00000E+00  9.000E+00
#rwgt            1           1   2.6820557168941692E-002           3      331893           0
</event>
<event>
      5   9999  3.19816E-02  2.40931E+02 -1.00000E+00  1.08781E-01
      21    -1     0     0   502   512  0.000000000E+00  0.000000000E+00  3.230755449E+02  3.230755449E+02  0.000000000E+00  0.00000E+00  9.000E+00
      21    -1     0     0   501   502  0.000000000E+00  0.000000000E+00 -7.531693727E+02  7.531693727E+02  0.000000000E+00  0.00000E+00  9.000E+00
      25     1     1     2     0     0  2.113809469E+02 -5.608429226E+01 -2.362431750E+02  3.453450308E+02  1.250000000E+02  0.00000E+00  9.000E+00
      25     1     1     2     0     0 -4.466001963E+02  3.933637592E+00 -1.296834380E+02  4.815703509E+02  1.250000000E+02  0.00000E+00  9.000E+00
      21     1     1     2   501   512  2.352192494E+02  5.215065466E+01 -6.416721482E+01  2.493295360E+02  4.156969970E-06  0.00000E+00  9.000E+00
#rwgt            1           1   2.7458642145781028E-002           3      331988           0
</event>
<event>
      5   9999  3.19816E-02  1.61342E+02 -1.00000E+00  1.15153E-01
      21    -1     0     0   502   511  0.000000000E+00  0.000000000E+00  3.302172388E+02  3.302172388E+02  0.000000000E+00  0.00000E+00  9.000E+00
      21    -1     0     0   501   502  0.000000000E+00  0.000000000E+00 -3.158919211E+03  3.158919211E+03  0.000000000E+00  0.00000E+00  9.000E+00
      25     1     1     2     0     0  1.933272680E+02  4.164880362E+02 -4.725975392E+02  6.706796187E+02  1.250000000E+02  0.00000E+00  9.000E+00
      25     1     1     2     0     0 -3.649396245E+01 -3.786139812E+02 -2.541409918E+03  2.572755279E+03  1.250000000E+02  0.00000E+00  9.000E+00
      21     1     1     2   501   511 -1.568333055E+02 -3.787405506E+01  1.853054850E+02  2.457015517E+02  6.607249480E-06  0.00000E+00  9.000E+00
#rwgt            1           1   4.1135718844588443E-002           3      332034           0
</event>
<event>
      5   9999  3.19816E-02  2.53216E+01 -1.00000E+00  1.58336E-01
      21    -1     0     0   502   501  0.000000000E+00  0.000000000E+00  1.909524068E+02  1.909524068E+02  0.000000000E+00  0.00000E+00  9.000E+00
      21    -1     0     0   501   512  0.000000000E+00  0.000000000E+00 -1.177897753E+03  1.177897753E+03  0.000000000E+00  0.00000E+00  9.000E+00
      25     1     1     2     0     0 -2.285459472E+02 -3.162840867E+01 -7.132803720E+02  7.600180888E+02  1.250000000E+02  0.00000E+00  9.000E+00
      25     1     1     2     0     0  2.169219140E+02  9.132552365E+00  7.323334925E+01  2.610108115E+02  1.250000000E+02  0.00000E+00  9.000E+00
      21     1     1     2   502   512  1.162403315E+01  2.249585631E+01 -3.468983232E+02  3.478212592E+02  5.394796609E-06  0.00000E+00  9.000E+00
#rwgt            1           1   2.9956063083237280E-002           3      332163           0
</event>
<event>
      5   9999  3.19816E-02  1.08419E+02 -1.00000E+00  1.22269E-01
      21    -1     0     0   502   501  0.000000000E+00  0.000000000E+00  7.779448642E+02  7.779448642E+02  0.000000000E+00  0.00000E+00  9.000E+00
      21    -1     0     0   511   502  0.000000000E+00  0.000000000E+00 -3.715962492E+02  3.715962492E+02  0.000000000E+00  0.00000E+00  9.000E+00
      25     1     1     2     0     0  2.599884881E+02 -1.884736782E+02  4.580411656E+02  5.731867503E+02  1.250000000E+02  0.00000E+00  9.000E+00
      25     1     1     2     0     0 -1.912234392E+02  2.722956703E+02  1.184055081E+02  3.746414287E+02  1.250000000E+02  0.00000E+00  9.000E+00
      21     1     1     2   511   501 -6.876504891E+01 -8.382199217E+01 -1.700980587E+02  2.017129344E+02  3.303624740E-06  0.00000E+00  9.000E+00
#rwgt            2          11   3.1621151982432422E-003           3      332370           0
</event>
<event>
      5   9999  3.19816E-02  4.41106E+01 -1.00000E+00  1.42254E-01
      21    -1     0     0   502   501  0.000000000E+00  0.000000000E+00  1.028541523E+03  1.028541523E+03  0.000000000E+00  0.00000E+00  9.000E+00
      21    -1     0     0   501   512  0.000000000E+00  0.000000000E+00 -7.040135272E+02  7.040135272E+02  0.000000000E+00  0.00000E+00  9.000E+00
      25     1     1     2     0     0 -3.293770799E+02 -3.052787162E+02  4.990179880E+02  6.828823527E+02  1.250000000E+02  0.00000E+00  9.000E+00
      25     1     1     2     0     0  3.101042689E+02  3.449562608E+02  3.044223670E+02  5.687332037E+02  1.250000000E+02  0.00000E+00  9.000E+00
      21     1     1     2   502   512  1.927281104E+01 -3.967754468E+01 -4.789123592E+02  4.809394937E+02  1.078959322E-05  0.00000E+00  9.000E+00
#rwgt            1           1   3.1269953194721312E-002           3      332390           0
</event>
<event>
      5   9999  3.19816E-02  2.00822E+02 -1.00000E+00  1.11583E-01
       2    -1     0     0   502     0  0.000000000E+00  0.000000000E+00  1.171350706E+03  1.171350706E+03  0.000000000E+00  0.00000E+00  9.000E+00
      21    -1     0     0   501   502  0.000000000E+00  0.000000000E+00 -1.712153942E+02  1.712153942E+02  0.000000000E+00  0.00000E+00  9.000E+00
      25     1     1     2     0     0 -2.983646356E+02 -1.422965277E+02  8.366958252E+02  9.082701479E+02  1.250000000E+02  0.00000E+00  9.000E+00
      25     1     1     2     0     0  1.528439722E+02  3.901437075E+00  5.028579633E+01  2.037895051E+02  1.250000000E+02  0.00000E+00  9.000E+00
       2     1     1     2   501     0  1.455206634E+02  1.383950906E+02  1.131536902E+02  2.305064472E+02  3.303624740E-06  0.00000E+00  9.000E+00
#rwgt            1           1   2.6011630487206248E-002           3      332496           0
</event>
<event>
      5   9999  3.19816E-02  5.79145E+02 -1.00000E+00  9.70722E-02
      21    -1     0     0   502   501  0.000000000E+00  0.000000000E+00  9.173339593E+02  9.173339593E+02  0.000000000E+00  0.00000E+00  9.000E+00
       2    -1     0     0   501     0  0.000000000E+00  0.000000000E+00 -2.963193535E+03  2.963193535E+03  0.000000000E+00  0.00000E+00  9.000E+00
      25     1     1     2     0     0 -1.975972333E+02 -1.116584397E+03 -2.656115184E+02  1.171315440E+03  1.250000000E+02  0.00000E+00  9.000E+00
      25     1     1     2     0     0 -3.513428000E+02  1.301175018E+03 -8.046679131E+02  1.574678901E+03  1.250000000E+02  0.00000E+00  9.000E+00
       2     1     1     2   502     0  5.489400333E+02 -1.845906210E+02 -9.755801440E+02  1.134533153E+03  1.078959322E-05  0.00000E+00  9.000E+00
#rwgt            2          13   1.5230350929730649E-003           3      332557           0
</event>
<event>
      5   9999  3.19816E-02  2.27810E+01 -1.00000E+00  1.61835E-01
       2    -1     0     0   502     0  0.000000000E+00  0.000000000E+00  2.393613047E+03  2.393613047E+03  0.000000000E+00  0.00000E+00  9.000E+00
      21    -1     0     0   501   502  0.000000000E+00  0.000000000E+00 -5.462941002E+02  5.462941002E+02  0.000000000E+00  0.00000E+00  9.000E+00
      25     1     1     2     0     0  6.904011531E+02 -3.275907592E+02  6.212830540E+02  9.927673901E+02  1.250000000E+02  0.00000E+00  9.000E+00
      25     1     1     2     0     0 -7.127878752E+02  3.318109800E+02  7.915734796E+01  8.000349788E+02  1.250000000E+02  0.00000E+00  9.000E+00
       2     1     1     2   501     0  2.238672209E+01 -4.220220768E+00  1.146878545E+03  1.147104779E+03  1.525878906E-05  0.00000E+00  9.000E+00
#rwgt            1           1   3.3264807192335932E-002           3      332576           0
</event>
<event>
      5   9999  3.19816E-02  4.65138E+01 -1.00000E+00  1.40890E-01
      21    -1     0     0   511   501  0.000000000E+00  0.000000000E+00  9.703935798E+02  9.703935798E+02  0.000000000E+00  0.00000E+00  9.000E+00
      21    -1     0     0   501   502  0.000000000E+00  0.000000000E+00 -2.864016330E+02  2.864016330E+02  0.000000000E+00  0.00000E+00  9.000E+00
      25     1     1     2     0     0 -2.288188155E+02  3.167780880E+02 -8.832299923E+00  4.103771642E+02  1.250000000E+02  0.00000E+00  9.000E+00
      25     1     1     2     0     0  2.103951217E+02 -3.594875908E+02  6.561654783E+02  7.871947473E+02  1.250000000E+02  0.00000E+00  9.000E+00
      21     1     1     2   511   502  1.842369378E+01  4.270950275E+01  3.665876835E+01  5.922330128E+01  1.066240300E-06  0.00000E+00  9.000E+00
#rwgt            1           1   3.1803673170523870E-002           3      332761           0
</event>
<event>
      5   9999  3.19816E-02  3.30680E+02 -1.00000E+00  1.04236E-01
      21    -1     0     0   512   501  0.000000000E+00  0.000000000E+00  8.631397299E+02  8.631397299E+02  0.000000000E+00  0.00000E+00  9.000E+00
      21    -1     0     0   501   502  0.000000000E+00  0.000000000E+00 -3.310972648E+02  3.310972648E+02  0.000000000E+00  0.00000E+00  9.000E+00
      25     1     1     2     0     0 -1.130689981E+02  2.448316377E+01 -1.874434104E+01  1.713486911E+02  1.250000000E+02  0.00000E+00  9.000E+00
      25     1     1     2     0     0  3.331027357E+02  2.223660819E+02  4.965498999E+01  4.224863607E+02  1.250000000E+02  0.00000E+00  9.000E+00
      21     1     1     2   512   502 -2.200337377E+02 -2.468492457E+02  5.011318162E+02  6.004019429E+02  7.629394531E-06  0.00000E+00  9.000E+00
#rwgt            1           1   3.0657046827555202E-002           3      332966           0
</event>
<event>
      5   9999  3.19816E-02  9.42536E+01 -1.00000E+00  1.24995E-01
      21    -1     0     0   511   501  0.000000000E+00  0.000000000E+00  4.786805928E+02  4.786805928E+02  0.000000000E+00  0.00000E+00  9.000E+00
      21    -1     0     0   501   502  0.000000000E+00  0.000000000E+00 -1.334790738E+03  1.334790738E+03  0.000000000E+00  0.00000E+00  9.000E+00
      25     1     1     2     0     0 -5.289588653E+01  3.822599623E+02  8.076663679E+01  4.136047669E+02  1.250000000E+02  0.00000E+00  9.000E+00
      25     1     1     2     0     0  1.049097162E+02 -4.608621105E+02 -1.104328304E+03  1.207711032E+03  1.250000000E+02  0.00000E+00  9.000E+00
      21     1     1     2   511   502 -5.201382963E+01  7.860214824E+01  1.674515221E+02  1.921555319E+02  2.697398305E-06  0.00000E+00  9.000E+00
#rwgt            1           1   3.1657092272259588E-002           3      332996           0
</event>
<event>
      5   9999  3.19816E-02  3.31475E+01 -1.00000E+00  1.50090E-01
      21    -1     0     0   502   501  0.000000000E+00  0.000000000E+00  2.063726294E+02  2.063726294E+02  0.000000000E+00  0.00000E+00  9.000E+00
       2    -1     0     0   501     0  0.000000000E+00  0.000000000E+00 -6.917729536E+02  6.917729536E+02  0.000000000E+00  0.00000E+00  9.000E+00
      25     1     1     2     0     0  1.306082001E+02  7.594141531E+01  3.841957275E+01  1.998165761E+02  1.250000000E+02  0.00000E+00  9.000E+00
      25     1     1     2     0     0 -1.488616624E+02 -4.827251517E+01 -2.897176145E+01  2.023719180E+02  1.250000000E+02  0.00000E+00  9.000E+00
       2     1     1     2   502     0  1.825346227E+01 -2.766890015E+01 -4.948481355E+02  4.959570890E+02  7.629394531E-06  0.00000E+00  9.000E+00
#rwgt            1           1   2.8113430100621010E-002           3      333219           0
</event>
<event>
      5   9999  3.19816E-02  2.90393E+01 -1.00000E+00  1.54028E-01
      21    -1     0     0   511   501  0.000000000E+00  0.000000000E+00  4.302618812E+02  4.302618812E+02  0.000000000E+00  0.00000E+00  9.000E+00
      21    -1     0     0   501   502  0.000000000E+00  0.000000000E+00 -3.066667069E+02  3.066667069E+02  0.000000000E+00  0.00000E+00  9.000E+00
      25     1     1     2     0     0  1.353422202E+02  4.910071775E+01 -1.694515584E+02  2.550827860E+02  1.250000000E+02  0.00000E+00  9.000E+00
      25     1     1     2     0     0 -1.619713828E+02 -6.068387156E+01  2.802588747E+01  2.152387314E+02  1.250000000E+02  0.00000E+00  9.000E+00
      21     1     1     2   511   502  2.662916262E+01  1.158315381E+01  2.650208452E+02  2.666070707E+02  3.814697266E-06  0.00000E+00  9.000E+00
#rwgt            1           1   2.9792056043935384E-002           3      333286           0
</event>
<event>
      5   9999  3.19816E-02  1.52274E+01 -1.00000E+00  1.76770E-01
      21    -1     0     0   502   501  0.000000000E+00  0.000000000E+00  5.608929508E+02  5.608929508E+02  0.000000000E+00  0.00000E+00  9.000E+00
      21    -1     0     0   512   502  0.000000000E+00  0.000000000E+00 -1.129407230E+02  1.129407230E+02  0.000000000E+00  0.00000E+00  9.000E+00
      25     1     1     2     0     0 -1.786724631E+02 -9.533656767E+01  2.439457572E+02  3.408041119E+02  1.250000000E+02  0.00000E+00  9.000E+00
      25     1     1     2     0     0  1.839332478E+02  1.096263270E+02  1.938538478E+02  3.147279548E+02  1.250000000E+02  0.00000E+00  9.000E+00
      21     1     1     2   512   501 -5.260784717E+00 -1.428975934E+01  1.015262277E+01  1.830160722E+01  1.685873940E-07  0.00000E+00  9.000E+00
#rwgt            1           1   2.7627839955756840E-002           3      333364           0
</event>
<event>
      5   9999  3.19816E-02  4.61300E+01 -1.00000E+00  1.41102E-01
      21    -1     0     0   502   511  0.000000000E+00  0.000000000E+00  1.183799606E+02  1.183799606E+02  0.000000000E+00  0.00000E+00  9.000E+00
      21    -1     0     0   501   502  0.000000000E+00  0.000000000E+00 -1.614370128E+03  1.614370128E+03  0.000000000E+00  0.00000E+00  9.000E+00
      25     1     1     2     0     0 -2.712879413E+02 -9.182331199E+01 -5.879269806E+02  6.658166431E+02  1.250000000E+02  0.00000E+00  9.000E+00
      25     1     1     2     0     0  3.039546230E+02  5.925234028E+01 -9.485102829E+02  1.005582423E+03  1.250000000E+02  0.00000E+00  9.000E+00
      21     1     1     2   501   511 -3.266668165E+01  3.257097171E+01  4.044709650E+01  6.135102203E+01  4.768371582E-07  0.00000E+00  9.000E+00
#rwgt            1           1   2.6428627933558373E-002           3      333575           0
</event>
<event>
      5   9999  3.19816E-02  4.29149E+01 -1.00000E+00  1.42971E-01
      21    -1     0     0   502   501  0.000000000E+00  0.000000000E+00  2.037038782E+03  2.037038782E+03  0.000000000E+00  0.00000E+00  9.000E+00
      21    -1     0     0   512   502  0.000000000E+00  0.000000000E+00 -1.034510806E+02  1.034510806E+02  0.000000000E+00  0.00000E+00  9.000E+00
      25     1     1     2     0     0  1.009022333E+02 -3.135441705E+02  1.515578057E+03  1.555986200E+03  1.250000000E+02  0.00000E+00  9.000E+00
      25     1     1     2     0     0 -1.437812381E+02  3.117901615E+02  3.800615817E+02  5.272171802E+02  1.250000000E+02  0.00000E+00  9.000E+00
      21     1     1     2   512   501  4.287900482E+01  1.754009023E+00  3.794806228E+01  5.728648211E+01  9.536743164E-07  0.00000E+00  9.000E+00
#rwgt            1           1   3.3070321009232517E-002           3      333680           0
</event>
<event>
      5   9999  3.19816E-02  8.28448E+01 -1.00000E+00  1.27619E-01
      -4    -1     0     0     0   501  0.000000000E+00  0.000000000E+00  1.190528466E+02  1.190528466E+02  0.000000000E+00  0.00000E+00  9.000E+00
      21    -1     0     0   501   502  0.000000000E+00  0.000000000E+00 -6.190783798E+02  6.190783798E+02  0.000000000E+00  0.00000E+00  9.000E+00
      25     1     1     2     0     0  1.147770354E+01  2.186472662E+01 -5.381661129E+00  1.275294720E+02  1.250000000E+02  0.00000E+00  9.000E+00
      25     1     1     2     0     0  6.918217691E+01 -2.963810109E+00 -5.070786633E+02  5.268289367E+02  1.250000000E+02  0.00000E+00  9.000E+00
      -4     1     1     2     0   502 -8.065988045E+01 -1.890091651E+01  1.243479128E+01  8.377281774E+01  9.078709013E-07  0.00000E+00  9.000E+00
#rwgt            1           1   3.2187193852959241E-002           3      333822           0
</event>
<event>
      5   9999  3.19816E-02  2.59352E+01 -1.00000E+00  1.57565E-01
      21    -1     0     0   502   501  0.000000000E+00  0.000000000E+00  1.918018787E+02  1.918018787E+02  0.000000000E+00  0.00000E+00  9.000E+00
      21    -1     0     0   511   502  0.000000000E+00  0.000000000E+00 -1.095115593E+03  1.095115593E+03  0.000000000E+00  0.00000E+00  9.000E+00
      25     1     1     2     0     0  1.874744690E+02  1.082074635E+01 -9.650181828E+02  9.910342367E+02  1.250000000E+02  0.00000E+00  9.000E+00
      25     1     1     2     0     0 -2.085313737E+02  4.319994925E+00  8.833316741E+01  2.587117018E+02  1.250000000E+02  0.00000E+00  9.000E+00
      21     1     1     2   511   501  2.105690470E+01 -1.514074127E+01 -2.662869899E+01  3.717153336E+01  6.743495762E-07  0.00000E+00  9.000E+00
#rwgt            1           1   2.8945396480063008E-002           3      333858           0
</event>
<event>
      5   9999  3.19816E-02  9.08328E+01 -1.00000E+00  1.25736E-01
      21    -1     0     0   512   501  0.000000000E+00  0.000000000E+00  1.911157859E+02  1.911157859E+02  0.000000000E+00  0.00000E+00  9.000E+00
      21    -1     0     0   501   502  0.000000000E+00  0.000000000E+00 -8.868368849E+02  8.868368849E+02  0.000000000E+00  0.00000E+00  9.000E+00
      25     1     1     2     0     0 -2.299653754E+02  5.724903299E+01 -2.898556418E+01  2.694933925E+02  1.250000000E+02  0.00000E+00  9.000E+00
      25     1     1     2     0     0  3.153942078E+02 -8.811168674E+01 -6.030734594E+02  6.975383667E+02  1.250000000E+02  0.00000E+00  9.000E+00
      21     1     1     2   512   502 -8.542883237E+01  3.086265375E+01 -6.366207546E+01  1.109209117E+02  9.536743164E-07  0.00000E+00  9.000E+00
#rwgt            2          11   4.5419173894778531E-003           3      334131           0
</event>
<event>
      5   9999  3.19816E-02  1.24501E+02 -1.00000E+00  1.19693E-01
      21    -1     0     0   502   501  0.000000000E+00  0.000000000E+00  8.335615236E+02  8.335615236E+02  0.000000000E+00  0.00000E+00  9.000E+00
      21    -1     0     0   511   502  0.000000000E+00  0.000000000E+00 -3.536045546E+02  3.536045546E+02  0.000000000E+00  0.00000E+00  9.000E+00
      25     1     1     2     0     0 -3.754532604E+02 -2.844379519E+02  3.272608566E+02  5.870219481E+02  1.250000000E+02  0.00000E+00  9.000E+00
      25     1     1     2     0     0  3.237758904E+02  1.711688787E+02  2.332643003E+02  4.518482555E+02  1.250000000E+02  0.00000E+00  9.000E+00
      21     1     1     2   511   501  5.167737007E+01  1.132690732E+02 -8.056818799E+01  1.482958746E+02  1.907348633E-06  0.00000E+00  9.000E+00
#rwgt            1           1   2.8361534420763165E-002           3      334166           0
</event>
<event>
      5   9999  3.19816E-02  7.76300E+01 -1.00000E+00  1.28985E-01
      21    -1     0     0   502   501  0.000000000E+00  0.000000000E+00  9.156719809E+02  9.156719809E+02  0.000000000E+00  0.00000E+00  9.000E+00
      21    -1     0     0   512   502  0.000000000E+00  0.000000000E+00 -1.463222961E+02  1.463222961E+02  0.000000000E+00  0.00000E+00  9.000E+00
      25     1     1     2     0     0  9.155063724E+01 -8.416478839E+01  6.567602173E+02  6.800178040E+02  1.250000000E+02  0.00000E+00  9.000E+00
      25     1     1     2     0     0 -1.673430895E+02  1.009550767E+02  1.681415141E+02  2.865173745E+02  1.250000000E+02  0.00000E+00  9.000E+00
      21     1     1     2   512   501  7.579245230E+01 -1.679028831E+01 -5.555204658E+01  9.545909850E+01  2.523185073E-06  0.00000E+00  9.000E+00
#rwgt            1           1   3.3421739177381601E-002           3      334228           0
</event>
<event>
      5   9999  3.19816E-02  2.30005E+02 -1.00000E+00  1.09482E-01
       2    -1     0     0   502     0  0.000000000E+00  0.000000000E+00  2.588022009E+03  2.588022009E+03  0.000000000E+00  0.00000E+00  9.000E+00
      21    -1     0     0   501   502  0.000000000E+00  0.000000000E+00 -6.817158872E+02  6.817158872E+02  0.000000000E+00  0.00000E+00  9.000E+00
      25     1     1     2     0     0 -5.537488841E+02 -2.808949101E+02  8.594934890E+01  6.391807786E+02  1.250000000E+02  0.00000E+00  9.000E+00
      25     1     1     2     0     0  7.421287277E+02  4.128628762E+02  6.571350525E+01  8.609030537E+02  1.250000000E+02  0.00000E+00  9.000E+00
       2     1     1     2   501     0 -1.883798437E+02 -1.319679660E+02  1.754643268E+03  1.769654064E+03  0.000000000E+00  0.00000E+00  9.000E+00
#rwgt            1           1   3.1359178965746019E-002           3      334294           0
</event>
<event>
      5   9999  3.19816E-02  1.20824E+02 -1.00000E+00  1.20242E-01
      21    -1     0     0   511   501  0.000000000E+00  0.000000000E+00  2.154893401E+02  2.154893401E+02  0.000000000E+00  0.00000E+00  9.000E+00
      21    -1     0     0   501   502  0.000000000E+00  0.000000000E+00 -7.426314637E+02  7.426314637E+02  0.000000000E+00  0.00000E+00  9.000E+00
      25     1     1     2     0     0  2.344504894E+02 -3.569575382E+01 -1.490206533E+02  3.067138307E+02  1.250000000E+02  0.00000E+00  9.000E+00
      25     1     1     2     0     0 -3.490038030E+02 -2.721592562E+00 -3.795700045E+02  5.305746412E+02  1.250000000E+02  0.00000E+00  9.000E+00
      21     1     1     2   511   502  1.145533136E+02  3.841734638E+01  1.448534222E+00  1.208323319E+02  1.129739965E-06  0.00000E+00  9.000E+00
#rwgt            1           1   2.7055299844057277E-002           3      334366           0
</event>
<event>
      5   9999  3.19816E-02  2.12476E+01 -1.00000E+00  1.64229E-01
      21    -1     0     0   502   501  0.000000000E+00  0.000000000E+00  1.416005160E+02  1.416005160E+02  0.000000000E+00  0.00000E+00  9.000E+00
      21    -1     0     0   501   512  0.000000000E+00  0.000000000E+00 -1.135734114E+03  1.135734114E+03  0.000000000E+00  0.00000E+00  9.000E+00
      25     1     1     2     0     0 -2.688850904E+02 -1.506923775E+02 -5.810745787E+02  6.695371912E+02  1.250000000E+02  0.00000E+00  9.000E+00
      25     1     1     2     0     0  2.632737770E+02  1.301990833E+02 -1.659242170E+02  3.597509259E+02  1.250000000E+02  0.00000E+00  9.000E+00
      21     1     1     2   502   512  5.611313420E+00  2.049329424E+01 -2.471348022E+02  2.480465126E+02  4.672030912E-06  0.00000E+00  9.000E+00
#rwgt            1           1   2.6676442996472382E-002           3      334453           0
</event>
<event>
      5   9999  3.19816E-02  1.32656E+02 -1.00000E+00  1.18549E-01
      21    -1     0     0   511   501  0.000000000E+00  0.000000000E+00  3.486404766E+02  3.486404766E+02  0.000000000E+00  0.00000E+00  9.000E+00
      21    -1     0     0   501   502  0.000000000E+00  0.000000000E+00 -1.869848716E+02  1.869848716E+02  0.000000000E+00  0.00000E+00  9.000E+00
      25     1     1     2     0     0  8.021587958E+01  1.622021525E+01 -5.941642180E+01  1.607886622E+02  1.250000000E+02  0.00000E+00  9.000E+00
      25     1     1     2     0     0  8.389875433E+00 -1.149450912E+02  1.265831476E+02  2.119694724E+02  1.250000000E+02  0.00000E+00  9.000E+00
      21     1     1     2   511   502 -8.860575501E+01  9.872487594E+01  9.448887927E+01  1.628672136E+02  3.814697266E-06  0.00000E+00  9.000E+00
#rwgt            2          11   2.1680118268256536E-003           3      334679           0
</event>
<event>
      5   9999  3.19816E-02  1.85017E+01 -1.00000E+00  1.69209E-01
      21    -1     0     0   502   501  0.000000000E+00  0.000000000E+00  4.769079832E+02  4.769079832E+02  0.000000000E+00  0.00000E+00  9.000E+00
      21    -1     0     0   512   502  0.000000000E+00  0.000000000E+00 -1.785020541E+02  1.785020541E+02  0.000000000E+00  0.00000E+00  9.000E+00
      25     1     1     2     0     0 -2.293885325E+01 -7.290250655E+01  1.807846039E+01  1.476238368E+02  1.250000000E+02  0.00000E+00  9.000E+00
      25     1     1     2     0     0  4.443266316E+00  7.242769897E+01  3.799226564E+02  4.064870712E+02  1.250000000E+02  0.00000E+00  9.000E+00
      21     1     1     2   512   501  1.849558694E+01  4.748075783E-01 -9.959518773E+01  1.012991293E+02  1.348699152E-06  0.00000E+00  9.000E+00
#rwgt            1           1   3.0749372657571435E-002           3      334699           0
</event>
<event>
      5   9999  3.19816E-02  3.95672E+01 -1.00000E+00  1.45134E-01
      21    -1     0     0   502   511  0.000000000E+00  0.000000000E+00  5.146132075E+02  5.146132075E+02  0.000000000E+00  0.00000E+00  9.000E+00
      21    -1     0     0   501   502  0.000000000E+00  0.000000000E+00 -5.101041065E+02  5.101041065E+02  0.000000000E+00  0.00000E+00  9.000E+00
      25     1     1     2     0     0  2.135053379E+02  2.514702239E+02 -3.334451453E+02  4.854198881E+02  1.250000000E+02  0.00000E+00  9.000E+00
      25     1     1     2     0     0 -1.783933543E+02 -2.697107245E+02  2.099214955E+02  4.052901406E+02  1.250000000E+02  0.00000E+00  9.000E+00
      21     1     1     2   501   511 -3.511198363E+01  1.824050068E+01  1.280327508E+02  1.340072854E+02  3.303624740E-06  0.00000E+00  9.000E+00
#rwgt            1           1   2.9639254786725203E-002           3      334842           0
</event>
<event>
      5   9999  3.19816E-02  4.17933E+01 -1.00000E+00  1.43669E-01
      21    -1     0     0   502   501  0.000000000E+00  0.000000000E+00  2.552029012E+02  2.552029012E+02  0.000000000E+00  0.00000E+00  9.000E+00
      -2    -1     0     0     0   502  0.000000000E+00  0.000000000E+00 -1.232972107E+03  1.232972107E+03  0.000000000E+00  0.00000E+00  9.000E+00
      25     1     1     2     0     0 -2.950013298E+02 -1.946108154E+01 -2.526794589E+02  4.085051128E+02  1.250000000E+02  0.00000E+00  9.000E+00
      25     1     1     2     0     0  2.712492544E+02 -1.492668195E+01  5.022731606E+01  3.032272203E+02  1.250000000E+02  0.00000E+00  9.000E+00
      -2     1     1     2     0   501  2.375207538E+01  3.438776348E+01 -7.753170630E+02  7.764426750E+02  1.078959322E-05  0.00000E+00  9.000E+00
#rwgt            1           1   2.3207979191924896E-002           3      334918           0
</event>
<event>
      5   9999  3.19816E-02  9.77183E+01 -1.00000E+00  1.24280E-01
      21    -1     0     0   511   501  0.000000000E+00  0.000000000E+00  3.845536160E+02  3.845536160E+02  0.000000000E+00  0.00000E+00  9.000E+00
      21    -1     0     0   501   502  0.000000000E+00  0.000000000E+00 -5.856968749E+02  5.856968749E+02  0.000000000E+00  0.00000E+00  9.000E+00
      25     1     1     2     0     0 -8.335943961E+01  3.162289823E+02  7.532478725E+01  3.581178423E+02  1.250000000E+02  0.00000E+00  9.000E+00
      25     1     1     2     0     0  6.129679086E+00 -3.760990216E+02 -3.157992627E+02  5.067960352E+02  1.250000000E+02  0.00000E+00  9.000E+00
      21     1     1     2   511   502  7.722976052E+01  5.987003931E+01  3.933121658E+01  1.053366134E+02  2.236564522E-06  0.00000E+00  9.000E+00
#rwgt            1           1   2.8861051744948515E-002           3      335018           0
</event>
<event>
      5   9999  3.19816E-02  4.35060E+02 -1.00000E+00  1.00599E-01
      21    -1     0     0   502   501  0.000000000E+00  0.000000000E+00  5.055265351E+02  5.055265351E+02  0.000000000E+00  0.00000E+00  9.000E+00
      21    -1     0     0   501   512  0.000000000E+00  0.000000000E+00 -1.507437572E+03  1.507437572E+03  0.000000000E+00  0.00000E+00  9.000E+00
      25     1     1     2     0     0  2.508391637E+02 -2.818686762E+02 -2.254755999E+02  4.569841166E+02  1.250000000E+02  0.00000E+00  9.000E+00
      25     1     1     2     0     0 -6.472852210E+02  1.026832617E+02 -1.411507323E+00  6.671948755E+02  1.250000000E+02  0.00000E+00  9.000E+00
      21     1     1     2   502   512  3.964460573E+02  1.791854145E+02 -7.750239293E+02  8.887851147E+02  1.868812365E-05  0.00000E+00  9.000E+00
#rwgt            2          11   1.8102445691582710E-003           3      335084           0
</event>
<event>
      5   9999  3.19816E-02  1.45817E+01 -1.00000E+00  1.78549E-01
      21    -1     0     0   502   501  0.000000000E+00  0.000000000E+00  1.955202775E+03  1.955202775E+03  0.000000000E+00  0.00000E+00  9.000E+00
      21    -1     0     0   511   502  0.000000000E+00  0.000000000E+00 -1.023592918E+02  1.023592918E+02  0.000000000E+00  0.00000E+00  9.000E+00
      25     1     1     2     0     0  1.861404009E+02 -2.339146494E+02  1.601743561E+03  1.634188406E+03  1.250000000E+02  0.00000E+00  9.000E+00
      25     1     1     2     0     0 -1.980602758E+02  2.255156812E+02  2.323483169E+02  3.996197389E+02  1.250000000E+02  0.00000E+00  9.000E+00
      21     1     1     2   511   501  1.191987492E+01  8.398968210E+00  1.875160497E+01  2.375392124E+01  2.384185791E-07  0.00000E+00  9.000E+00
#rwgt            1           1   7.4657082519324685E-003           3      335134           0
</event>
<event>
      5   9999  3.19816E-02  6.75952E+01 -1.00000E+00  1.31994E-01
      -3    -1     0     0     0   501  0.000000000E+00  0.000000000E+00  7.281678113E+02  7.281678113E+02  0.000000000E+00  0.00000E+00  9.000E+00
      21    -1     0     0   501   502  0.000000000E+00  0.000000000E+00 -1.343114634E+02  1.343114634E+02  0.000000000E+00  0.00000E+00  9.000E+00
      25     1     1     2     0     0  3.237189630E+01  8.654738010E+01  1.152087040E+02  1.934849714E+02  1.250000000E+02  0.00000E+00  9.000E+00
      25     1     1     2     0     0 -8.495208670E+01 -1.290260373E+02  1.373557498E+01  1.991939792E+02  1.250000000E+02  0.00000E+00  9.000E+00
      -3     1     1     2     0   502  5.258019040E+01  4.247865721E+01  4.649120689E+02  4.698003241E+02  9.344061824E-06  0.00000E+00  9.000E+00
#rwgt            1           1   2.3931374071894038E-002           3      335367           0
</event>
<event>
      5   9999  3.19816E-02  2.79882E+01 -1.00000E+00  1.55164E-01
      21    -1     0     0   511   501  0.000000000E+00  0.000000000E+00  1.708527932E+03  1.708527932E+03  0.000000000E+00  0.00000E+00  9.000E+00
      21    -1     0     0   501   502  0.000000000E+00  0.000000000E+00 -2.440134391E+01  2.440134391E+01  0.000000000E+00  0.00000E+00  9.000E+00
      25     1     1     2     0     0  2.991570442E+01 -1.002700794E+02  3.446395635E+02  3.812485632E+02  1.250000000E+02  0.00000E+00  9.000E+00
      25     1     1     2     0     0 -4.581199512E+00  8.837465040E+01  1.127916861E+03  1.138267329E+03  1.250000000E+02  0.00000E+00  9.000E+00
      21     1     1     2   511   502 -2.533450490E+01  1.189542901E+01  2.115701635E+02  2.134133839E+02  4.672030912E-06  0.00000E+00  9.000E+00
#rwgt            1           1   3.2556818252054490E-002           3      335441           0
</event>
<event>
      5   9999  3.19816E-02  3.80114E+02 -1.00000E+00  1.02356E-01
      21    -1     0     0   502   512  0.000000000E+00  0.000000000E+00  1.136389431E+03  1.136389431E+03  0.000000000E+00  0.00000E+00  9.000E+00
      21    -1     0     0   501   502  0.000000000E+00  0.000000000E+00 -1.924576660E+03  1.924576660E+03  0.000000000E+00  0.00000E+00  9.000E+00
      25     1     1     2     0     0  7.133679628E+02 -2.277860448E+02 -6.752793623E+02  1.016074579E+03  1.250000000E+02  0.00000E+00  9.000E+00
      25     1     1     2     0     0 -3.334908810E+02  2.143816808E+02 -9.982803770E+02  1.081371529E+03  1.250000000E+02  0.00000E+00  9.000E+00
      21     1     1     2   501   512 -3.798770818E+02  1.340436398E+01  8.853725111E+02  9.635199830E+02  1.078959322E-05  0.00000E+00  9.000E+00
#rwgt            2          11   5.1536031753449544E-003           3      335604           0
</event>
<event>
      5   9999  3.19816E-02  9.63431E+01 -1.00000E+00  1.24560E-01
      21    -1     0     0   511   501  0.000000000E+00  0.000000000E+00  2.308453404E+02  2.308453404E+02  0.000000000E+00  0.00000E+00  9.000E+00
      21    -1     0     0   501   502  0.000000000E+00  0.000000000E+00 -5.161156131E+02  5.161156131E+02  0.000000000E+00  0.00000E+00  9.000E+00
      25     1     1     2     0     0 -3.191966487E+00  1.692951665E+02 -2.909859952E+02  3.591223906E+02  1.250000000E+02  0.00000E+00  9.000E+00
      25     1     1     2     0     0 -2.436594852E+01 -2.616128532E+02 -4.134119539E+00  2.909932566E+02  1.250000000E+02  0.00000E+00  9.000E+00
      21     1     1     2   511   502  2.755791500E+01  9.231768675E+01  9.849841986E+00  9.684530630E+01  2.068203875E-06  0.00000E+00  9.000E+00
#rwgt            1           1   2.7194490793802688E-002           3      335624           0
</event>
<event>
      5   9999  3.19816E-02  6.28657E+01 -1.00000E+00  1.33629E-01
      21    -1     0     0   502   512  0.000000000E+00  0.000000000E+00  2.103259281E+02  2.103259281E+02  0.000000000E+00  0.00000E+00  9.000E+00
      21    -1     0     0   501   502  0.000000000E+00  0.000000000E+00 -1.120705337E+03  1.120705337E+03  0.000000000E+00  0.00000E+00  9.000E+00
      25     1     1     2     0     0  4.576331617E+01  1.444338254E+02 -1.037652741E+03  1.056079363E+03  1.250000000E+02  0.00000E+00  9.000E+00
      25     1     1     2     0     0 -7.092025041E+01 -8.682109596E+01  1.295036374E+02  2.120466381E+02  1.250000000E+02  0.00000E+00  9.000E+00
      21     1     1     2   501   512  2.515693425E+01 -5.761272944E+01 -2.230305522E+00  6.290526367E+01  7.195887844E-07  0.00000E+00  9.000E+00
#rwgt            1           1   2.7813851441405277E-002           3      335692           0
</event>
<event>
      5   9999  3.19816E-02  1.63120E+01 -1.00000E+00  1.74020E-01
      21    -1     0     0   502   501  0.000000000E+00  0.000000000E+00  7.134484291E+02  7.134484291E+02  0.000000000E+00  0.00000E+00  9.000E+00
      21    -1     0     0   511   502  0.000000000E+00  0.000000000E+00 -2.927711923E+02  2.927711923E+02  0.000000000E+00  0.00000E+00  9.000E+00
      25     1     1     2     0     0 -9.002296443E+01 -9.711589357E+01  4.734370431E+02  5.072506922E+02  1.250000000E+02  0.00000E+00  9.000E+00
      25     1     1     2     0     0  1.034734511E+02  1.063444834E+02  1.805873946E+02  2.650522803E+02  1.250000000E+02  0.00000E+00  9.000E+00
      21     1     1     2   511   501 -1.345048665E+01 -9.228589800E+00 -2.333472009E+02  2.339166489E+02  0.000000000E+00  0.00000E+00  9.000E+00
#rwgt            1           1   3.3451896316329728E-002           3      335802           0
</event>
<event>
      5   9999  3.19816E-02  2.07787E+02 -1.00000E+00  1.11047E-01
      21    -1     0     0   502   512  0.000000000E+00  0.000000000E+00  5.515004257E+02  5.515004257E+02  0.000000000E+00  0.00000E+00  9.000E+00
      21    -1     0     0   501   502  0.000000000E+00  0.000000000E+00 -1.144789233E+03  1.144789233E+03  0.000000000E+00  0.00000E+00  9.000E+00
      25     1     1     2     0     0 -9.350142338E+01 -2.773405209E+02  2.063118101E+02  3.792754193E+02  1.250000000E+02  0.00000E+00  9.000E+00
      25     1     1     2     0     0  2.867591448E+01  7.992400434E+01 -1.010037491E+03  1.021279045E+03  1.250000000E+02  0.00000E+00  9.000E+00
      21     1     1     2   501   512  6.482550890E+01  1.974165165E+02  2.104368734E+02  2.957351946E+02  5.394796609E-06  0.00000E+00  9.000E+00
#rwgt            1           1   2.5948664520931104E-002           3      335947           0
</event>
<event>
      5   9999  3.19816E-02  4.54923E+01 -1.00000E+00  1.41458E-01
      21    -1     0     0   511   501  0.000000000E+00  0.000000000E+00  4.124993386E+02  4.124993386E+02  0.000000000E+00  0.00000E+00  9.000E+00
      21    -1     0     0   501   502  0.000000000E+00  0.000000000E+00 -3.035662660E+02  3.035662660E+02  0.000000000E+00  0.00000E+00  9.000E+00
      25     1     1     2     0     0 -5.523796914E+01  5.805115963E+01 -2.506354905E+02  2.913148116E+02  1.250000000E+02  0.00000E+00  9.000E+00
      25     1     1     2     0     0  1.002372413E+02 -6.473082015E+01  3.232385432E+02  3.665320443E+02  1.250000000E+02  0.00000E+00  9.000E+00
      21     1     1     2   511   502 -4.499927219E+01  6.679660520E+00  3.633001983E+01  5.821874873E+01  8.259061849E-07  0.00000E+00  9.000E+00
#rwgt            1           1   2.6340250843342097E-002           3      335999           0
</event>
<event>
      5   9999  3.19816E-02  6.89036E+01 -1.00000E+00  1.31569E-01
       2    -1     0     0   502     0  0.000000000E+00  0.000000000E+00  6.495089582E+02  6.495089582E+02  0.000000000E+00  0.00000E+00  9.000E+00
      21    -1     0     0   501   502  0.000000000E+00  0.000000000E+00 -3.389790060E+02  3.389790060E+02  0.000000000E+00  0.00000E+00  9.000E+00
      25     1     1     2     0     0  2.862932684E+01 -2.144699401E+02  8.857099830E+01  2.651166070E+02  1.250000000E+02  0.00000E+00  9.000E+00
      25     1     1     2     0     0 -9.715610750E+01  2.072734739E+02 -1.791291612E+02  3.164077410E+02  1.250000000E+02  0.00000E+00  9.000E+00
       2     1     1     2   501     0  6.852678066E+01  7.196466218E+00  4.010881151E+02  4.069636162E+02  9.344061824E-06  0.00000E+00  9.000E+00
#rwgt            1           1   3.4605372170373343E-002           3      336103           0
</event>
<event>
      5   9999  3.19816E-02  2.35757E+02 -1.00000E+00  1.09108E-01
      21    -1     0     0   502   501  0.000000000E+00  0.000000000E+00  2.167391760E+02  2.167391760E+02  0.000000000E+00  0.00000E+00  9.000E+00
       2    -1     0     0   501     0  0.000000000E+00  0.000000000E+00 -3.339681149E+03  3.339681149E+03  0.000000000E+00  0.00000E+00  9.000E+00
      25     1     1     2     0     0  1.109588744E+02 -3.503614194E+02 -9.301236813E+01  3.991757716E+02  1.250000000E+02  0.00000E+00  9.000E+00
      25     1     1     2     0     0 -3.457314816E+02  3.718800124E+02 -1.158849099E+03  1.271369827E+03  1.250000000E+02  0.00000E+00  9.000E+00
       2     1     1     2   502     0  2.347726072E+02 -2.151859301E+01 -1.871080505E+03  1.885874727E+03  2.157918644E-05  0.00000E+00  9.000E+00
#rwgt            1           1   2.9123984790729605E-002           3      336182           0
</event>
<event>
      5   9999  3.19816E-02  3.62437E+02 -1.00000E+00  1.02991E-01
      21    -1     0     0   502   501  0.000000000E+00  0.000000000E+00  1.396316944E+03  1.396316944E+03  0.000000000E+00  0.00000E+00  9.000E+00
      21    -1     0     0   501   511  0.000000000E+00  0.000000000E+00 -2.651426254E+02  2.651426254E+02  0.000000000E+00  0.00000E+00  9.000E+00
      25     1     1     2     0     0 -1.648774181E+02 -1.165150737E+02  8.511673596E+02  8.836691686E+02  1.250000000E+02  0.00000E+00  9.000E+00
      25     1     1     2     0     0 -3.336559629E+01 -1.868993963E+02  3.414397388E+02  4.101837912E+02  1.250000000E+02  0.00000E+00  9.000E+00
      21     1     1     2   502   511  1.982430143E+02  3.034144700E+02 -6.143277944E+01  3.676066100E+02  4.623107774E-06  0.00000E+00  9.000E+00
#rwgt            2          11   1.0959107962823964E-002           3      336306           0
</event>
<event>
      5   9999  3.19816E-02  8.26419E+01 -1.00000E+00  1.27670E-01
       2    -1     0     0   502     0  0.000000000E+00  0.000000000E+00  3.612694830E+02  3.612694830E+02  0.000000000E+00  0.00000E+00  9.000E+00
      21    -1     0     0   501   502  0.000000000E+00  0.000000000E+00 -8.856479010E+02  8.856479010E+02  0.000000000E+00  0.00000E+00  9.000E+00
      25     1     1     2     0     0 -2.711866406E+02 -1.526993770E+02  8.510799488E+01  3.460168559E+02  1.250000000E+02  0.00000E+00  9.000E+00
      25     1     1     2     0     0  3.440823100E+02  1.916340770E+02 -6.777038274E+02  7.937403437E+02  1.250000000E+02  0.00000E+00  9.000E+00
       2     1     1     2   501     0 -7.289566941E+01 -3.893470004E+01  6.821741456E+01  1.071601845E+02  9.536743164E-07  0.00000E+00  9.000E+00
#rwgt            1           1   2.7480356146332489E-002           3      336326           0
</event>
<event>
      5   9999  3.19816E-02  1.55530E+02 -1.00000E+00  1.15774E-01
      21    -1     0     0   502   501  0.000000000E+00  0.000000000E+00  1.890400344E+02  1.890400344E+02  0.000000000E+00  0.00000E+00  9.000E+00
      21    -1     0     0   511   502  0.000000000E+00  0.000000000E+00 -8.131790948E+02  8.131790948E+02  0.000000000E+00  0.00000E+00  9.000E+00
      25     1     1     2     0     0 -1.006555245E+02 -3.461810404E+02 -2.753557874E+02  4.705514393E+02  1.250000000E+02  0.00000E+00  9.000E+00
      25     1     1     2     0     0  6.332794957E+01  1.951969566E+02 -1.680142851E+02  2.931997290E+02  1.250000000E+02  0.00000E+00  9.000E+00
      21     1     1     2   511   501  3.732757495E+01  1.509840838E+02 -1.807689880E+02  2.384679610E+02  3.303624740E-06  0.00000E+00  9.000E+00
#rwgt            1           1   2.4431116609218890E-002           3      336387           0
</event>
<event>
      5   9999  3.19816E-02  1.83659E+02 -1.00000E+00  1.13012E-01
      21    -1     0     0   502   512  0.000000000E+00  0.000000000E+00  2.094598699E+02  2.094598699E+02  0.000000000E+00  0.00000E+00  9.000E+00
      21    -1     0     0   501   502  0.000000000E+00  0.000000000E+00 -4.783616146E+02  4.783616146E+02  0.000000000E+00  0.00000E+00  9.000E+00
      25     1     1     2     0     0 -8.491224923E+01  1.157400721E+02 -1.626912202E+02  2.503982578E+02  1.250000000E+02  0.00000E+00  9.000E+00
      25     1     1     2     0     0 -8.737227967E+01 -1.793696339E+02 -9.349219892E+01  2.533242430E+02  1.250000000E+02  0.00000E+00  9.000E+00
      21     1     1     2   501   512  1.722845289E+02  6.362956178E+01 -1.271832549E+01  1.840989838E+02  3.220857641E-06  0.00000E+00  9.000E+00
#rwgt            1           1   2.3975766656929100E-002           3      336429           0
</event>
<event>
      5   9999  3.19816E-02  7.99496E+01 -1.00000E+00  1.28363E-01
      21    -1     0     0   502   501  0.000000000E+00  0.000000000E+00  1.613455917E+03  1.613455917E+03  0.000000000E+00  0.00000E+00  9.000E+00
      21    -1     0     0   511   502  0.000000000E+00  0.000000000E+00 -3.987870928E+02  3.987870928E+02  0.000000000E+00  0.00000E+00  9.000E+00
      25     1     1     2     0     0 -5.120291602E+02  3.647345856E+02  3.579740699E+01  6.419592145E+02  1.250000000E+02  0.00000E+00  9.000E+00
      25     1     1     2     0     0  4.359065574E+02 -3.402949504E+02  1.155322198E+03  1.286938056E+03  1.250000000E+02  0.00000E+00  9.000E+00
      21     1     1     2   511   501  7.612260274E+01 -2.443963514E+01  2.354921900E+01  8.334573852E+01  7.539457465E-07  0.00000E+00  9.000E+00
#rwgt            1           1   2.6796393836996165E-002           3      336467           0
</event>
<event>
      5   9999  3.19816E-02  1.56708E+02 -1.00000E+00  1.15646E-01
      21    -1     0     0   502   501  0.000000000E+00  0.000000000E+00  1.058875243E+03  1.058875243E+03  0.000000000E+00  0.00000E+00  9.000E+00
       2    -1     0     0   501     0  0.000000000E+00  0.000000000E+00 -1.440507967E+03  1.440507967E+03  0.000000000E+00  0.00000E+00  9.000E+00
      25     1     1     2     0     0 -4.815178529E+01  3.945079505E+02  3.941130369E+02  5.735025748E+02  1.250000000E+02  0.00000E+00  9.000E+00
      25     1     1     2     0     0 -7.374371019E+01 -4.929909643E+02  4.542811099E+02  6.859114757E+02  1.250000000E+02  0.00000E+00  9.000E+00
       2     1     1     2   502     0  1.218954955E+02  9.848301376E+01 -1.230026871E+03  1.239969160E+03  0.000000000E+00  0.00000E+00  9.000E+00
#rwgt            1           1   2.8655971346752497E-002           3      336576           0
</event>
<event>
      5   9999  3.19816E-02  7.53254E+01 -1.00000E+00  1.29628E-01
      21    -1     0     0   502   511  0.000000000E+00  0.000000000E+00  1.033501568E+02  1.033501568E+02  0.000000000E+00  0.00000E+00  9.000E+00
      21    -1     0     0   501   502  0.000000000E+00  0.000000000E+00 -8.329034402E+02  8.329034402E+02  0.000000000E+00  0.00000E+00  9.000E+00
      25     1     1     2     0     0 -4.316531846E+00  1.452983746E+02 -4.773876890E+02  5.144455809E+02  1.250000000E+02  0.00000E+00  9.000E+00
      25     1     1     2     0     0 -7.097549567E+01 -1.430552498E+02 -2.762758228E+02  3.427180411E+02  1.250000000E+02  0.00000E+00  9.000E+00
      21     1     1     2   501   511  7.529202752E+01 -2.243124799E+00  2.411022840E+01  7.908997490E+01  1.305872339E-06  0.00000E+00  9.000E+00
#rwgt            1           1   2.4514659972663277E-002           3      336641           0
</event>
<event>
      5   9999  3.19816E-02  9.25163E+01 -1.00000E+00  1.25367E-01
      21    -1     0     0   502   501  0.000000000E+00  0.000000000E+00  2.000476327E+03  2.000476327E+03  0.000000000E+00  0.00000E+00  9.000E+00
      21    -1     0     0   512   502  0.000000000E+00  0.000000000E+00 -1.464142100E+02  1.464142100E+02  0.000000000E+00  0.00000E+00  9.000E+00
      25     1     1     2     0     0  3.087057564E+02  6.818998991E+01  1.510903451E+02  3.720247453E+02  1.250000000E+02  0.00000E+00  9.000E+00
      25     1     1     2     0     0 -3.525526103E+02  1.327612118E+01  1.562206569E+03  1.606419609E+03  1.250000000E+02  0.00000E+00  9.000E+00
      21     1     1     2   512   501  4.384685386E+01 -8.146611109E+01  1.407652035E+02  1.684461824E+02  2.697398305E-06  0.00000E+00  9.000E+00
#rwgt            1           1   3.5582992841760377E-002           3      336739           0
</event>
<event>
      5   9999  3.19816E-02  4.31736E+01 -1.00000E+00  1.42813E-01
      21    -1     0     0   502   501  0.000000000E+00  0.000000000E+00  1.645230264E+03  1.645230264E+03  0.000000000E+00  0.00000E+00  9.000E+00
      21    -1     0     0   511   502  0.000000000E+00  0.000000000E+00 -6.500778324E+02  6.500778324E+02  0.000000000E+00  0.00000E+00  9.000E+00
      25     1     1     2     0     0  3.361472675E+01 -4.006568181E+02  1.409787377E+03  1.471319572E+03  1.250000000E+02  0.00000E+00  9.000E+00
      25     1     1     2     0     0 -3.491705436E+01  3.575028751E+02  2.602236759E+01  3.812212874E+02  1.250000000E+02  0.00000E+00  9.000E+00
      21     1     1     2   511   501  1.302327618E+00  4.315394303E+01 -4.406573126E+02  4.427672369E+02  0.000000000E+00  0.00000E+00  9.000E+00
#rwgt            1           1   2.8168715676858826E-002           3      336870           0
</event>
<event>
      5   9999  3.19816E-02  2.03746E+02 -1.00000E+00  1.11355E-01
      21    -1     0     0   512   501  0.000000000E+00  0.000000000E+00  1.805440600E+03  1.805440600E+03  0.000000000E+00  0.00000E+00  9.000E+00
      21    -1     0     0   501   502  0.000000000E+00  0.000000000E+00 -1.129882713E+02  1.129882713E+02  0.000000000E+00  0.00000E+00  9.000E+00
      25     1     1     2     0     0  7.004001592E+01  2.020193967E+02  5.415432511E+02  5.954926811E+02  1.250000000E+02  0.00000E+00  9.000E+00
      25     1     1     2     0     0 -1.806658595E+02 -3.092236810E+01  8.476843269E+01  2.375016480E+02  1.250000000E+02  0.00000E+00  9.000E+00
      21     1     1     2   512   502  1.106258436E+02 -1.710970286E+02  1.066140645E+03  1.085434542E+03  1.525878906E-05  0.00000E+00  9.000E+00
#rwgt            2          11   1.5011503613003730E-003           3      337066           0
</event>
<event>
      5   9999  3.19816E-02  1.44976E+02 -1.00000E+00  1.16983E-01
      21    -1     0     0   511   501  0.000000000E+00  0.000000000E+00  9.129190618E+02  9.129190618E+02  0.000000000E+00  0.00000E+00  9.000E+00
      21    -1     0     0   501   502  0.000000000E+00  0.000000000E+00 -9.579095770E+02  9.579095770E+02  0.000000000E+00  0.00000E+00  9.000E+00
      25     1     1     2     0     0  4.498756063E+02 -1.986565638E+02  4.813510968E+02  6.994114453E+02  1.250000000E+02  0.00000E+00  9.000E+00
      25     1     1     2     0     0 -5.761849171E+02  2.698174008E+02 -6.940044527E+02  9.497671656E+02  1.250000000E+02  0.00000E+00  9.000E+00
      21     1     1     2   511   502  1.263093108E+02 -7.116083704E+01  1.676628407E+02  2.216500279E+02  2.697398305E-06  0.00000E+00  9.000E+00
#rwgt            1           1   3.4050736588523908E-002           3      337116           0
</event>
<event>
      5   9999  3.19816E-02  2.80390E+02 -1.00000E+00  1.06555E-01
      21    -1     0     0   502   501  0.000000000E+00  0.000000000E+00  4.210783707E+02  4.210783707E+02  0.000000000E+00  0.00000E+00  9.000E+00
      -2    -1     0     0     0   502  0.000000000E+00  0.000000000E+00 -5.219956959E+02  5.219956959E+02  0.000000000E+00  0.00000E+00  9.000E+00
      25     1     1     2     0     0  2.640340075E+02 -1.246070960E+02  2.323036494E+02  3.934855411E+02  1.250000000E+02  0.00000E+00  9.000E+00
      25     1     1     2     0     0  1.434003009E+01  9.104217989E+01 -9.836194942E+01  1.838325001E+02  1.250000000E+02  0.00000E+00  9.000E+00
      -2     1     1     2     0   501 -2.783740376E+02  3.356491611E+01 -2.348590252E+02  3.657560254E+02  5.394796609E-06  0.00000E+00  9.000E+00
#rwgt            2           9   1.0193811576884167E-004           3      337224           0
</event>
<event>
      5   9999  3.19816E-02  9.43271E+01 -1.00000E+00  1.24980E-01
      21    -1     0     0   502   501  0.000000000E+00  0.000000000E+00  1.854215141E+02  1.854215141E+02  0.000000000E+00  0.00000E+00  9.000E+00
       2    -1     0     0   501     0  0.000000000E+00  0.000000000E+00 -3.092004926E+03  3.092004926E+03  0.000000000E+00  0.00000E+00  9.000E+00
      25     1     1     2     0     0 -8.690821803E+01  7.515113150E+01 -6.837616849E+02  7.045252108E+02  1.250000000E+02  0.00000E+00  9.000E+00
      25     1     1     2     0     0  3.139656795E+01  1.112009092E+00  1.502490689E+02  1.979564693E+02  1.250000000E+02  0.00000E+00  9.000E+00
       2     1     1     2   502     0  5.551165008E+01 -7.626314059E+01 -2.373070796E+03  2.374944760E+03  4.315837288E-05  0.00000E+00  9.000E+00
#rwgt            1           1   2.8415096605853795E-002           3      337243           0
</event>
<event>
      5   9999  3.19816E-02  1.81007E+02 -1.00000E+00  1.13249E-01
      21    -1     0     0   502   501  0.000000000E+00  0.000000000E+00  4.545594606E+02  4.545594606E+02  0.000000000E+00  0.00000E+00  9.000E+00
       1    -1     0     0   501     0  0.000000000E+00  0.000000000E+00 -1.344229255E+03  1.344229255E+03  0.000000000E+00  0.00000E+00  9.000E+00
      25     1     1     2     0     0  1.082601946E+02  3.166107121E+02 -1.611043927E+01  3.575572108E+02  1.250000000E+02  0.00000E+00  9.000E+00
      25     1     1     2     0     0 -2.830789868E+02 -3.635365728E+02  6.818319018E+01  4.822514904E+02  1.250000000E+02  0.00000E+00  9.000E+00
       1     1     1     2   502     0  1.748187923E+02  4.692586064E+01 -9.417425456E+02  9.589800147E+02  1.525878906E-05  0.00000E+00  9.000E+00
#rwgt            1           1   2.7958430966935226E-002           3      337316           0
</event>
<event>
      5   9999  3.19816E-02  1.20685E+01 -1.00000E+00  1.86769E-01
      21    -1     0     0   502   501  0.000000000E+00  0.000000000E+00  3.763694736E+02  3.763694736E+02  0.000000000E+00  0.00000E+00  9.000E+00
      21    -1     0     0   511   502  0.000000000E+00  0.000000000E+00 -3.195157589E+02  3.195157589E+02  0.000000000E+00  0.00000E+00  9.000E+00
      25     1     1     2     0     0  1.754449433E+02  1.396749549E+02  2.251240757E+02  3.414613750E+02  1.250000000E+02  0.00000E+00  9.000E+00
      25     1     1     2     0     0 -1.843317157E+02 -1.478403585E+02 -1.005002538E+02  2.855875593E+02  1.250000000E+02  0.00000E+00  9.000E+00
      21     1     1     2   511   501  8.886772412E+00  8.165403526E+00 -6.777010714E+01  6.883629828E+01  1.348699152E-06  0.00000E+00  9.000E+00
#rwgt            1           1   2.5531098441038180E-002           3      337402           0
</event>
<event>
      5   9999  3.19816E-02  2.51594E+02 -1.00000E+00  1.08136E-01
       2    -1     0     0   502     0  0.000000000E+00  0.000000000E+00  2.392303955E+03  2.392303955E+03  0.000000000E+00  0.00000E+00  9.000E+00
      21    -1     0     0   501   502  0.000000000E+00  0.000000000E+00 -1.489250529E+02  1.489250529E+02  0.000000000E+00  0.00000E+00  9.000E+00
      25     1     1     2     0     0  8.247329180E+00 -1.031941055E+02  2.575406486E+02  3.044162077E+02  1.250000000E+02  0.00000E+00  9.000E+00
      25     1     1     2     0     0 -3.671751404E+01  3.531717329E+02  1.867415678E+02  4.202093073E+02  1.250000000E+02  0.00000E+00  9.000E+00
       2     1     1     2   501     0  2.847018486E+01 -2.499776274E+02  1.799096686E+03  1.816603493E+03  2.157918644E-05  0.00000E+00  9.000E+00
#rwgt            2          18   2.4180435769440593E-003           3      337593           0
</event>
<event>
      5   9999  3.19816E-02  6.43855E+01 -1.00000E+00  1.33086E-01
      21    -1     0     0   511   501  0.000000000E+00  0.000000000E+00  8.669687845E+02  8.669687845E+02  0.000000000E+00  0.00000E+00  9.000E+00
      21    -1     0     0   501   502  0.000000000E+00  0.000000000E+00 -7.788161721E+02  7.788161721E+02  0.000000000E+00  0.00000E+00  9.000E+00
      25     1     1     2     0     0  1.304651398E+02  2.277566854E+02 -5.297858899E+02  6.043114674E+02  1.250000000E+02  0.00000E+00  9.000E+00
      25     1     1     2     0     0 -7.519545703E+01 -2.607831977E+02 -1.042102880E+02  3.164601351E+02  1.250000000E+02  0.00000E+00  9.000E+00
      21     1     1     2   511   502 -5.526968281E+01  3.302651230E+01  7.221487903E+02  7.250133542E+02  1.078959322E-05  0.00000E+00  9.000E+00
#rwgt            1           1   3.2258016321102992E-002           3      337627           0
</event>
<event>
      5   9999  3.19816E-02  2.05985E+02 -1.00000E+00  1.11184E-01
       2    -1     0     0   502     0  0.000000000E+00  0.000000000E+00  3.430335961E+03  3.430335961E+03  0.000000000E+00  0.00000E+00  9.000E+00
      21    -1     0     0   501   502  0.000000000E+00  0.000000000E+00 -2.498013466E+02  2.498013466E+02  0.000000000E+00  0.00000E+00  9.000E+00
      25     1     1     2     0     0  4.280992869E+02 -4.121568212E+02  2.497104222E+02  6.565992230E+02  1.250000000E+02  0.00000E+00  9.000E+00
      25     1     1     2     0     0 -2.232893328E+02  3.901891925E+02  1.329233943E+03  1.408756050E+03  1.250000000E+02  0.00000E+00  9.000E+00
       2     1     1     2   501     0 -2.048099541E+02  2.196762872E+01  1.601590249E+03  1.614782035E+03  3.051757812E-05  0.00000E+00  9.000E+00
#rwgt            2          18   1.3984287996555514E-003           3      337712           0
</event>
<event>
      5   9999  3.19816E-02  3.00825E+01 -1.00000E+00  1.52957E-01
      21    -1     0     0   511   501  0.000000000E+00  0.000000000E+00  3.320571707E+02  3.320571707E+02  0.000000000E+00  0.00000E+00  9.000E+00
      21    -1     0     0   501   502  0.000000000E+00  0.000000000E+00 -1.719726465E+02  1.719726465E+02  0.000000000E+00  0.00000E+00  9.000E+00
      25     1     1     2     0     0 -1.097708297E+02 -1.278623369E+02 -3.137716373E+01  2.121507451E+02  1.250000000E+02  0.00000E+00  9.000E+00
      25     1     1     2     0     0  8.214255355E+01  1.159613376E+02  1.551584612E+02  2.447316469E+02  1.250000000E+02  0.00000E+00  9.000E+00
      21     1     1     2   511   502  2.762827618E+01  1.190099930E+01  3.630322673E+01  4.714742517E+01  4.768371582E-07  0.00000E+00  9.000E+00
#rwgt            1           1   3.1169878974634954E-002           3      337746           0
</event>
<event>
      5   9999  3.19816E-02  6.03063E+01 -1.00000E+00  1.34585E-01
      21    -1     0     0   502   501  0.000000000E+00  0.000000000E+00  1.659364286E+02  1.659364286E+02  0.000000000E+00  0.00000E+00  9.000E+00
      21    -1     0     0   512   502  0.000000000E+00  0.000000000E+00 -3.231578023E+02  3.231578023E+02  0.000000000E+00  0.00000E+00  9.000E+00
      25     1     1     2     0     0 -2.837764687E+01 -1.057910839E+02 -1.104755391E+02  1.995667533E+02  1.250000000E+02  0.00000E+00  9.000E+00
      25     1     1     2     0     0  9.199521381E+00  1.629666833E+02  1.119708009E+01  2.058959583E+02  1.250000000E+02  0.00000E+00  9.000E+00
      21     1     1     2   512   501  1.917812549E+01 -5.717559939E+01 -5.794291474E+01  8.363151937E+01  1.168007728E-06  0.00000E+00  9.000E+00
#rwgt            1           1   2.8366490458803115E-002           3      337840           0
</event>
<event>
      5   9999  3.19816E-02  4.56106E+01 -1.00000E+00  1.41391E-01
      21    -1     0     0   502   501  0.000000000E+00  0.000000000E+00  7.327967627E+02  7.327967627E+02  0.000000000E+00  0.00000E+00  9.000E+00
      21    -1     0     0   501   511  0.000000000E+00  0.000000000E+00 -1.113222108E+02  1.113222108E+02  0.000000000E+00  0.00000E+00  9.000E+00
      25     1     1     2     0     0  2.338045162E+02  2.101289070E-01  1.967046461E+02  3.301246942E+02  1.250000000E+02  0.00000E+00  9.000E+00
      25     1     1     2     0     0 -1.920503040E+02 -1.856524553E+01  4.018116409E+02  4.629315094E+02  1.250000000E+02  0.00000E+00  9.000E+00
      21     1     1     2   502   511 -4.175421217E+01  1.835511662E+01  2.295826490E+01  5.106276988E+01  8.259061849E-07  0.00000E+00  9.000E+00
#rwgt            1           1   2.8071209196179135E-002           3      337935           0
</event>
<event>
      5   9999  3.19816E-02  6.33904E+01 -1.00000E+00  1.33440E-01
       2    -1     0     0   502     0  0.000000000E+00  0.000000000E+00  3.424413883E+03  3.424413883E+03  0.000000000E+00  0.00000E+00  9.000E+00
      21    -1     0     0   501   502  0.000000000E+00  0.000000000E+00 -1.158143451E+02  1.158143451E+02  0.000000000E+00  0.00000E+00  9.000E+00
      25     1     1     2     0     0 -2.086294894E+02  2.158047086E+02  1.939028727E+02  3.785779446E+02  1.250000000E+02  0.00000E+00  9.000E+00
      25     1     1     2     0     0  1.653472745E+02 -1.694906599E+02  7.544748253E+02  8.005773336E+02  1.250000000E+02  0.00000E+00  9.000E+00
       2     1     1     2   501     0  4.328221490E+01 -4.631404871E+01  2.360221840E+03  2.361072950E+03  4.315837288E-05  0.00000E+00  9.000E+00
#rwgt            1           1   2.6125700345117596E-002           3      337997           0
</event>
<event>
      5   9999  3.19816E-02  1.40275E+02 -1.00000E+00  1.17559E-01
      21    -1     0     0   502   511  0.000000000E+00  0.000000000E+00  3.255097565E+02  3.255097565E+02  0.000000000E+00  0.00000E+00  9.000E+00
      21    -1     0     0   501   502  0.000000000E+00  0.000000000E+00 -6.375905364E+02  6.375905364E+02  0.000000000E+00  0.00000E+00  9.000E+00
      25     1     1     2     0     0  2.877285239E+02  2.782335889E+02 -3.067506922E+02  5.195407786E+02  1.250000000E+02  0.00000E+00  9.000E+00
      25     1     1     2     0     0 -1.604643680E+02 -2.192331704E+02 -3.201318740E+01  3.007687493E+02  1.250000000E+02  0.00000E+00  9.000E+00
      21     1     1     2   501   511 -1.272641559E+02 -5.900041850E+01  2.668309980E+01  1.427907650E+02  8.920806376E-07  0.00000E+00  9.000E+00
#rwgt            1           1   2.5267750277139660E-002           3      338075           0
</event>
<event>
      5   9999  3.19816E-02  4.05752E+01 -1.00000E+00  1.44457E-01
      21    -1     0     0   502   512  0.000000000E+00  0.000000000E+00  1.885304871E+03  1.885304871E+03  0.000000000E+00  0.00000E+00  9.000E+00
      21    -1     0     0   501   502  0.000000000E+00  0.000000000E+00 -8.712985984E+02  8.712985984E+02  0.000000000E+00  0.00000E+00  9.000E+00
      25     1     1     2     0     0  9.094768817E+01  9.358254052E+01 -7.115418348E+02  7.341293868E+02  1.250000000E+02  0.00000E+00  9.000E+00
      25     1     1     2     0     0 -1.279932817E+02 -1.101346292E+02 -7.379650137E+01  2.226720466E+02  1.250000000E+02  0.00000E+00  9.000E+00
      21     1     1     2   501   512  3.704559355E+01  1.655208872E+01  1.799344608E+03  1.799802036E+03  2.157918644E-05  0.00000E+00  9.000E+00
#rwgt            1           1   2.9567726004578961E-002           3      338137           0
</event>
<event>
      5   9999  3.19816E-02  2.60183E+01 -1.00000E+00  1.57463E-01
      21    -1     0     0   502   501  0.000000000E+00  0.000000000E+00  2.323162585E+02  2.323162585E+02  0.000000000E+00  0.00000E+00  9.000E+00
      21    -1     0     0   511   502  0.000000000E+00  0.000000000E+00 -4.816428806E+02  4.816428806E+02  0.000000000E+00  0.00000E+00  9.000E+00
      25     1     1     2     0     0 -1.230871367E+02 -9.864188672E+01 -3.498678898E+02  4.036250802E+02  1.250000000E+02  0.00000E+00  9.000E+00
      25     1     1     2     0     0  1.485735029E+02  9.340782130E+01  1.443741894E+02  2.593607784E+02  1.250000000E+02  0.00000E+00  9.000E+00
      21     1     1     2   511   501 -2.548636621E+01  5.234065416E+00 -4.383292171E+01  5.097328054E+01  4.768371582E-07  0.00000E+00  9.000E+00
#rwgt            1           1   3.3556688205119485E-002           3      338183           0
</event>
<event>
      5   9999  3.19816E-02  2.37415E+02 -1.00000E+00  1.09002E-01
       2    -1     0     0   502     0  0.000000000E+00  0.000000000E+00  3.404559330E+03  3.404559330E+03  0.000000000E+00  0.00000E+00  9.000E+00
      21    -1     0     0   501   502  0.000000000E+00  0.000000000E+00 -3.709643525E+01  3.709643525E+01  0.000000000E+00  0.00000E+00  9.000E+00
      25     1     1     2     0     0 -3.253441624E+01  3.557944959E+01  9.497605953E+02  9.591634761E+02  1.250000000E+02  0.00000E+00  9.000E+00
      25     1     1     2     0     0  2.646428073E+02 -8.549290196E+01  1.013898902E+03  1.058754380E+03  1.250000000E+02  0.00000E+00  9.000E+00
       2     1     1     2   501     0 -2.321083911E+02  4.991345237E+01  1.403803397E+03  1.423737910E+03  1.525878906E-05  0.00000E+00  9.000E+00
#rwgt            2          18   5.0280999743258330E-003           3      338357           0
</event>
<event>
      5   9999  3.19816E-02  3.15569E+01 -1.00000E+00  1.51529E-01
      21    -1     0     0   511   501  0.000000000E+00  0.000000000E+00  1.268022993E+02  1.268022993E+02  0.000000000E+00  0.00000E+00  9.000E+00
      21    -1     0     0   501   502  0.000000000E+00  0.000000000E+00 -7.973568089E+02  7.973568089E+02  0.000000000E+00  0.00000E+00  9.000E+00
      25     1     1     2     0     0  2.772627849E-01 -2.096853937E+02 -1.421763510E+02  2.825016035E+02  1.250000000E+02  0.00000E+00  9.000E+00
      25     1     1     2     0     0  2.376862249E+01  2.301214569E+02 -5.456334578E+02  6.056910950E+02  1.250000000E+02  0.00000E+00  9.000E+00
      21     1     1     2   511   502 -2.404588528E+01 -2.043606322E+01  1.725529916E+01  3.596640971E+01  4.768371582E-07  0.00000E+00  9.000E+00
#rwgt            1           1   2.4659061183744588E-002           3      338376           0
</event>
<event>
      5   9999  3.19816E-02  1.06563E+02 -1.00000E+00  1.22599E-01
      21    -1     0     0   502   501  0.000000000E+00  0.000000000E+00  2.605721204E+02  2.605721204E+02  0.000000000E+00  0.00000E+00  9.000E+00
      21    -1     0     0   501   512  0.000000000E+00  0.000000000E+00 -2.874920980E+02  2.874920980E+02  0.000000000E+00  0.00000E+00  9.000E+00
      25     1     1     2     0     0 -5.865156297E+01 -1.061767425E+02 -7.050165855E+01  1.879068661E+02  1.250000000E+02  0.00000E+00  9.000E+00
      25     1     1     2     0     0 -4.340527733E+01  7.551511430E+01  1.469659425E+02  2.116849991E+02  1.250000000E+02  0.00000E+00  9.000E+00
      21     1     1     2   502   512  1.020568403E+02  3.066162820E+01 -1.033842616E+02  1.484723531E+02  1.907348633E-06  0.00000E+00  9.000E+00
#rwgt            1           1   2.2806313955952697E-002           3      338545           0
</event>
<event>
      5   9999  3.19816E-02  1.85089E+02 -1.00000E+00  1.12887E-01
      21    -1     0     0   502   511  0.000000000E+00  0.000000000E+00  2.864107699E+03  2.864107699E+03  0.000000000E+00  0.00000E+00  9.000E+00
      21    -1     0     0   501   502  0.000000000E+00  0.000000000E+00 -7.689631478E+02  7.689631478E+02  0.000000000E+00  0.00000E+00  9.000E+00
      25     1     1     2     0     0 -3.640797620E+02 -6.060289448E+02 -4.730009496E+02  8.597558103E+02  1.250000000E+02  0.00000E+00  9.000E+00
      25     1     1     2     0     0  3.127659053E+02  7.838627576E+02  1.960223355E+03  2.137840952E+03  1.250000000E+02  0.00000E+00  9.000E+00
      21     1     1     2   501   511  5.131385663E+01 -1.778338127E+02  6.079221457E+02  6.354740845E+02  0.000000000E+00  0.00000E+00  9.000E+00
#rwgt            1           1   5.6721427749174588E-002           3      338614           0
</event>
<event>
      5   9999  3.19816E-02  4.88087E+01 -1.00000E+00  1.39676E-01
      21    -1     0     0   502   501  0.000000000E+00  0.000000000E+00  1.708709269E+02  1.708709269E+02  0.000000000E+00  0.00000E+00  9.000E+00
      21    -1     0     0   512   502  0.000000000E+00  0.000000000E+00 -1.017423296E+03  1.017423296E+03  0.000000000E+00  0.00000E+00  9.000E+00
      25     1     1     2     0     0 -2.175107276E+02  6.208843877E+01 -1.620087662E+02  3.050208700E+02  1.250000000E+02  0.00000E+00  9.000E+00
      25     1     1     2     0     0  2.520105383E+02 -9.661454998E+01 -1.266990205E+02  3.232975788E+02  1.250000000E+02  0.00000E+00  9.000E+00
      21     1     1     2   512   501 -3.449981074E+01  3.452611121E+01 -5.578445826E+02  5.599757742E+02  7.629394531E-06  0.00000E+00  9.000E+00
#rwgt            1           1   2.7076446821524838E-002           3      338750           0
</event>
<event>
      5   9999  3.61267E-02  1.02647E+02 -1.00000E+00  1.23320E-01
      21    -1     0     0   502   501  0.000000000E+00  0.000000000E+00  1.509744444E+03  1.509744444E+03  0.000000000E+00  0.00000E+00  9.000E+00
      21    -1     0     0   501   511  0.000000000E+00  0.000000000E+00 -5.245688792E+01  5.245688792E+01  0.000000000E+00  0.00000E+00  9.000E+00
      25     1     1     2     0     0 -8.097898904E+00  1.353262196E+02  9.429429141E+02  9.608044030E+02  1.250000000E+02  0.00000E+00  9.000E+00
      25     1     1     2     0     0  5.147595806E+00 -3.272147360E+01  4.736366823E+02  4.909724019E+02  1.250000000E+02  0.00000E+00  9.000E+00
      21     1     1     2   502   511  2.950303098E+00 -1.026047460E+02  4.070795981E+01  1.104245271E+02  1.507891493E-06  0.00000E+00  9.000E+00
#rwgt            1           1  0.10603695911595870                3      338814           0
</event>
<event>
      5   9999  3.19816E-02  1.36325E+02 -1.00000E+00  1.18063E-01
      21    -1     0     0   502   501  0.000000000E+00  0.000000000E+00  4.439409628E+02  4.439409628E+02  0.000000000E+00  0.00000E+00  9.000E+00
      21    -1     0     0   501   512  0.000000000E+00  0.000000000E+00 -1.714281754E+02  1.714281754E+02  0.000000000E+00  0.00000E+00  9.000E+00
      25     1     1     2     0     0  1.906890866E+02 -2.337426035E+01  1.962807910E+02  3.017612181E+02  1.250000000E+02  0.00000E+00  9.000E+00
      25     1     1     2     0     0 -6.934119378E+01  8.549712702E+01  2.740062956E+01  1.688009312E+02  1.250000000E+02  0.00000E+00  9.000E+00
      21     1     1     2   502   512 -1.213478928E+02 -6.212286668E+01  4.883136685E+01  1.448069889E+02  9.536743164E-07  0.00000E+00  9.000E+00
#rwgt            1           1   3.0545314822877860E-002           3      338869           0
</event>
<event>
      5   9999  3.22167E-02  3.22105E+02 -1.00000E+00  1.04598E-01
      21    -1     0     0   502   501  0.000000000E+00  0.000000000E+00  5.251790982E+02  5.251790982E+02  0.000000000E+00  0.00000E+00  9.000E+00
      21    -1     0     0   511   502  0.000000000E+00  0.000000000E+00 -9.460952946E+02  9.460952946E+02  0.000000000E+00  0.00000E+00  9.000E+00
      25     1     1     2     0     0 -3.771604404E+02  3.568876979E+02  2.322064256E+01  5.345867796E+02  1.250000000E+02  0.00000E+00  9.000E+00
      25     1     1     2     0     0  3.215282663E+02 -3.962361781E+01  4.590835478E+01  3.502613797E+02  1.250000000E+02  0.00000E+00  9.000E+00
      21     1     1     2   511   501  5.563217415E+01 -3.172640801E+02 -4.900451938E+02  5.864262334E+02  5.394796609E-06  0.00000E+00  9.000E+00
#rwgt            1           1   3.0109696078479398E-002           3      338916           0
</event>
<event>
      5   9999  3.19816E-02  6.16517E+01 -1.00000E+00  1.34076E-01
      21    -1     0     0   502   501  0.000000000E+00  0.000000000E+00  2.281372609E+02  2.281372609E+02  0.000000000E+00  0.00000E+00  9.000E+00
       1    -1     0     0   501     0  0.000000000E+00  0.000000000E+00 -7.860091998E+02  7.860091998E+02  0.000000000E+00  0.00000E+00  9.000E+00
      25     1     1     2     0     0 -1.313089212E+02  4.574262212E+01  2.476660456E+01  1.886075422E+02  1.250000000E+02  0.00000E+00  9.000E+00
      25     1     1     2     0     0  1.119471090E+02 -1.042751279E+02  3.855944689E+01  2.012890669E+02  1.250000000E+02  0.00000E+00  9.000E+00
       1     1     1     2   502     0  1.936181222E+01  5.853250580E+01 -6.211979903E+02  6.242498516E+02  0.000000000E+00  0.00000E+00  9.000E+00
#rwgt            1           1   2.4915404632767965E-002           3      338999           0
</event>
<event>
      5   9999  3.19816E-02  1.65901E+02 -1.00000E+00  1.14685E-01
      21    -1     0     0   502   501  0.000000000E+00  0.000000000E+00  1.364277469E+03  1.364277469E+03  0.000000000E+00  0.00000E+00  9.000E+00
      21    -1     0     0   501   511  0.000000000E+00  0.000000000E+00 -7.421948074E+02  7.421948074E+02  0.000000000E+00  0.00000E+00  9.000E+00
      25     1     1     2     0     0  1.254305320E+02  4.528163292E+01  1.093295314E+03  1.108468713E+03  1.250000000E+02  0.00000E+00  9.000E+00
      25     1     1     2     0     0 -2.758273969E+02 -1.153085031E+02  1.485162405E+02  3.564531911E+02  1.250000000E+02  0.00000E+00  9.000E+00
      21     1     1     2   502   511  1.503968649E+02  7.002687014E+01 -6.197288928E+02  6.415503722E+02  0.000000000E+00  0.00000E+00  9.000E+00
#rwgt            1           1   2.8147719950767206E-002           3      339093           0
</event>
<event>
      5   9999  3.19816E-02  2.68286E+01 -1.00000E+00  1.56488E-01
      21    -1     0     0   512   501  0.000000000E+00  0.000000000E+00  5.804063532E+02  5.804063532E+02  0.000000000E+00  0.00000E+00  9.000E+00
      21    -1     0     0   501   502  0.000000000E+00  0.000000000E+00 -4.444510891E+01  4.444510891E+01  0.000000000E+00  0.00000E+00  9.000E+00
      25     1     1     2     0     0  6.050015715E+01 -1.238554760E+01  1.454677866E+02  2.014932945E+02  1.250000000E+02  0.00000E+00  9.000E+00
      25     1     1     2     0     0 -4.232911399E+01  3.212352241E+01  3.082164617E+02  3.368175498E+02  1.250000000E+02  0.00000E+00  9.000E+00
      21     1     1     2   512   502 -1.817104316E+01 -1.973797481E+01  8.227699597E+01  8.654061777E+01  1.348699152E-06  0.00000E+00  9.000E+00
#rwgt            1           1   3.5502359273823676E-002           3      339129           0
</event>
<event>
      5   9999  3.19816E-02  9.46903E+01 -1.00000E+00  1.24903E-01
      21    -1     0     0   502   511  0.000000000E+00  0.000000000E+00  3.225031067E+02  3.225031067E+02  0.000000000E+00  0.00000E+00  9.000E+00
      21    -1     0     0   501   502  0.000000000E+00  0.000000000E+00 -1.497008759E+02  1.497008759E+02  0.000000000E+00  0.00000E+00  9.000E+00
      25     1     1     2     0     0  3.361652621E+01 -6.346486717E+01  7.343132560E+01  1.617869580E+02  1.250000000E+02  0.00000E+00  9.000E+00
      25     1     1     2     0     0  1.469144301E+01  1.449056475E+02  3.291940791E+01  1.947361615E+02  1.250000000E+02  0.00000E+00  9.000E+00
      21     1     1     2   501   511 -4.830796923E+01 -8.144078030E+01  6.645149733E+01  1.156808631E+02  1.651812370E-06  0.00000E+00  9.000E+00
#rwgt            1           1   2.3848758971960159E-002           3      339184           0
</event>
<event>
      5   9999  3.19816E-02  1.00487E+02 -1.00000E+00  1.23733E-01
      21    -1     0     0   502   512  0.000000000E+00  0.000000000E+00  4.490193124E+02  4.490193124E+02  0.000000000E+00  0.00000E+00  9.000E+00
      21    -1     0     0   501   502  0.000000000E+00  0.000000000E+00 -2.336800061E+02  2.336800061E+02  0.000000000E+00  0.00000E+00  9.000E+00
      25     1     1     2     0     0 -2.501891322E+01  5.249948339E+01  1.811234357E+02  2.276243413E+02  1.250000000E+02  0.00000E+00  9.000E+00
      25     1     1     2     0     0  1.152769853E+02 -9.667095435E+01 -1.491519387E+02  2.459783681E+02  1.250000000E+02  0.00000E+00  9.000E+00
      21     1     1     2   501   512 -9.025807212E+01  4.417147096E+01  1.833678093E+02  2.090966090E+02  3.814697266E-06  0.00000E+00  9.000E+00
#rwgt            2          11   2.1828284420988089E-003           3      339239           0
</event>
<event>
      5   9999  3.19816E-02  7.04451E+02 -1.00000E+00  9.47988E-02
       1    -1     0     0   502     0  0.000000000E+00  0.000000000E+00  4.805109697E+02  4.805109697E+02  0.000000000E+00  0.00000E+00  9.000E+00
      21    -1     0     0   501   502  0.000000000E+00  0.000000000E+00 -1.287903499E+03  1.287903499E+03  0.000000000E+00  0.00000E+00  9.000E+00
      25     1     1     2     0     0  5.707419546E+02 -2.610413469E+02 -6.181898043E+02  8.897598539E+02  1.250000000E+02  0.00000E+00  9.000E+00
      25     1     1     2     0     0  8.837077546E+01  1.240146598E+01 -3.518001081E+01  1.575621258E+02  1.250000000E+02  0.00000E+00  9.000E+00
       1     1     1     2   501     0 -6.591127300E+02  2.486398809E+02 -1.540227143E+02  7.210924891E+02  7.136645101E-06  0.00000E+00  9.000E+00
#rwgt            2          17   2.9213157963170006E-004           3      339304           0
</event>
<event>
      5   9999  3.19816E-02  1.97258E+01 -1.00000E+00  1.66865E-01
      21    -1     0     0   502   501  0.000000000E+00  0.000000000E+00  2.581195686E+02  2.581195686E+02  0.000000000E+00  0.00000E+00  9.000E+00
       2    -1     0     0   501     0  0.000000000E+00  0.000000000E+00 -4.630490776E+02  4.630490776E+02  0.000000000E+00  0.00000E+00  9.000E+00
      25     1     1     2     0     0 -2.804794795E-01 -1.308320039E+02 -1.113063528E+02  2.124410415E+02  1.250000000E+02  0.00000E+00  9.000E+00
      25     1     1     2     0     0  4.411019983E+00  1.115435536E+02  1.732983088E+02  2.410782555E+02  1.250000000E+02  0.00000E+00  9.000E+00
       2     1     1     2   502     0 -4.130540503E+00  1.928845036E+01 -2.669214649E+02  2.676493492E+02  0.000000000E+00  0.00000E+00  9.000E+00
#rwgt            1           1   2.8214186827116801E-002           3      339338           0
</event>
<event>
      5   9999  3.19816E-02  1.22301E+02 -1.00000E+00  1.20019E-01
      21    -1     0     0   502   501  0.000000000E+00  0.000000000E+00  7.686529191E+02  7.686529191E+02  0.000000000E+00  0.00000E+00  9.000E+00
      -3    -1     0     0     0   502  0.000000000E+00  0.000000000E+00 -4.697375758E+02  4.697375758E+02  0.000000000E+00  0.00000E+00  9.000E+00
      25     1     1     2     0     0  4.098671957E+02 -1.554873079E+02 -4.064756163E+00  4.558606621E+02  1.250000000E+02  0.00000E+00  9.000E+00
      25     1     1     2     0     0 -5.159173538E+02  9.457100487E+01  3.592352975E+02  6.479115602E+02  1.250000000E+02  0.00000E+00  9.000E+00
      -3     1     1     2     0   501  1.060501581E+02  6.091630299E+01 -5.625519798E+01  1.346182725E+02  2.780414531E-06  0.00000E+00  9.000E+00
#rwgt            1           1   2.8750801081615037E-002           3      339516           0
</event>
</LesHouchesEvents>
 #Random number generator exit values:            3        339572             0
