<LesHouchesEvents version="3.0">
<!--
file generated with POWHEG-BOX-V2
Input file powheg.input contained:
! ggHH production parameters:
mtdep 0              ! 0: Higgs effective field theory (HEFT)

hmass 125            ! Higgs boson mass
topmass 173          ! top quark mass (THIS VALUE IS HARD CODED IN THE VIRTUAL
hdecaymode -1        ! PDG code for Higgs boson decay products (it affects only the SMC)
!                      allowed values are:
!                      0 all decay channels open
!                      1-6 d dbar, u ubar,..., t tbar (as in HERWIG)
!                      7-9 e+ e-, mu+ mu-, tau+ tau-
!                      10  W+W-
!                      11  ZZ
!                      12  gamma gamma
!                      -1  all decay channels closed

! general parameters:
numevts  3000        ! number of events to be generated
ih1         1        ! hadron 1 (1 for protons, -1 for antiprotons)
ih2         1        ! hadron 2 (1 for protons, -1 for antiprotons)
ebeam1 7000d0        ! energy of beam 1
ebeam2 7000d0        ! energy of beam 2
! To be set only if using LHA pdfs
lhans1 90200         ! pdf set for hadron 1 (LHA numbering)
lhans2 90200 	     ! pdf set for hadron 2 (LHA numbering)
! To be set only if using internal mlm pdf
# ndns1 131          ! pdf set for hadron 1 (mlm numbering)
# ndns2 131          ! pdf set for hadron 2 (mlm numbering)
! To be set only if using different pdf sets for the two incoming hadrons
! QCDLambda5 0.25    ! for not equal pdf sets

! Parameters to allow or not the use of stored data
use-old-grid    1    ! if 1 use old grid if file pwggrids.dat is present (<> 1 regenerate)
use-old-ubound  1    ! if 1 use norm of upper bounding function stored in pwgubound.dat, if present;
!
ncall1  10000        ! number of calls for initializing the integration grid
itmx1       3        ! number of iterations for initializing the integration grid
ncall2  10000        ! number of calls for computing the integral and finding upper bound
itmx2       3        ! number of iterations for computing the integral and finding upper bound
foldcsi     1        ! number of folds on csi integration
foldy       1        ! number of folds on  y  integration
foldphi     1        ! number of folds on phi integration
nubound 10000        ! number of bbarra calls to setup norm of upper bounding function
# icsimax   1        ! <= 100, number of csi subdivision when computing the upper bounds
# iymax     1        ! <= 100, number of y subdivision when computing the upper bounds
# xupbound 2d0       ! increase upper bound for radiation generation

! OPTIONAL PARAMETERS

! scale settings:
#fixedscale   1      ! (dafault 0) Use muren = mufac = 2*m_H
facscfact   1d0      ! (default 1d0) fac scale factor: mufact = muref * facscfact
renscfact   1d0      ! (default 1d0) ren scale factor: muren  = muref * renscfact

! Born, plots and powheg strategy:
#bornonly         1  ! (default 0) if 1 do Born only
# testplots 1
fastbtlbound      1  ! fast evaluation of Btilde upper bounds
storemintupb      1  ! store function calls in binary file for more precise generation
ubexcess_correct  1  ! corrects for error in upper bound estimate
storeinfo_rwgt    1  ! store info to allow for reweighting
softtest          0  ! no check of the soft limit in the real
colltest          0  ! no check of the collinear limit in the real

! PARAMETERS needed for ggHH
hdamp           250

! PARAMETERS for parallel runnning
! -- non parallel (for testing purposes only)
#iseed    547        !  Start the random number generator with seed iseed
#rand1     0         !  skipping  rand2*100000000+rand1 numbers.
#rand2     0         !  (see RM48 short writeup in CERNLIB)

! -- parallel
manyseeds 1          ! Used to perform multiple runs with different random
                     ! seeds in the same directory.
                     ! If set to 1, the program asks for an integer j;
                     ! The file pwgseeds.dat at line j is read, and the
                     ! integer at line j is used to initialize the random
                     ! sequence for the generation of the event.
                     ! The event file is called pwgevents-'j'.lhe
parallelstage 4
xgriditeration 1
maxseeds    1000

! PARAMETERS for reweighting
#rwl_file 'reweight_setup.xml'


! PARAMETERS for Pythia8
#py8tune  xxx
#py8hepmc 1
#py8nohad 1
#py8nompi 1
End of powheg.input content
PDF package: lha
 Random number generator initialized with:           10             0             0
-->
<init>
     2212     2212  7.00000E+03  7.00000E+03     -1     -1     -1     -1     -4      1
  3.19670E-02  5.76697E-06  1.00000E+00   9999
</init>
<event>
      5   9999  3.19816E-02  1.12357E+02 -1.00000E+00  1.21594E-01
      21    -1     0     0   502   501  0.000000000E+00  0.000000000E+00  3.497839781E+02  3.497839781E+02  0.000000000E+00  0.00000E+00  9.000E+00
       2    -1     0     0   501     0  0.000000000E+00  0.000000000E+00 -1.599345021E+03  1.599345021E+03  0.000000000E+00  0.00000E+00  9.000E+00
      25     1     1     2     0     0  3.042035108E+02  1.340476039E+02 -6.638531300E+02  7.528841307E+02  1.250000000E+02  0.00000E+00  9.000E+00
      25     1     1     2     0     0 -2.931339400E+02 -2.223722732E+01  2.166973874E+02  3.860113454E+02  1.250000000E+02  0.00000E+00  9.000E+00
       2     1     1     2   502     0 -1.106957085E+01 -1.118103766E+02 -8.024053002E+02  8.102335228E+02  1.078959322E-05  0.00000E+00  9.000E+00
#rwgt            1           1   2.4480389717115202E-002          10           1           0
</event>
<event>
      5   9999  3.19816E-02  2.84063E+02 -1.00000E+00  1.06368E-01
      21    -1     0     0   502   501  0.000000000E+00  0.000000000E+00  2.221195926E+02  2.221195926E+02  0.000000000E+00  0.00000E+00  9.000E+00
       1    -1     0     0   501     0  0.000000000E+00  0.000000000E+00 -2.391551221E+03  2.391551221E+03  0.000000000E+00  0.00000E+00  9.000E+00
      25     1     1     2     0     0 -1.482149877E+02 -3.734327108E+02 -1.454884662E+02  4.452095753E+02  1.250000000E+02  0.00000E+00  9.000E+00
      25     1     1     2     0     0 -1.357292206E+02  3.816484801E+02 -1.620614009E+03  1.675139621E+03  1.250000000E+02  0.00000E+00  9.000E+00
       1     1     1     2   502     0  2.839442083E+02 -8.215769209E+00 -4.033291534E+02  4.933216175E+02  5.394796609E-06  0.00000E+00  9.000E+00
#rwgt            1           1   2.8270843207269070E-002          10          79           0
</event>
<event>
      5   9999  3.19816E-02  7.02498E+01 -1.00000E+00  1.31142E-01
      21    -1     0     0   502   501  0.000000000E+00  0.000000000E+00  1.326783755E+02  1.326783755E+02  0.000000000E+00  0.00000E+00  9.000E+00
      21    -1     0     0   511   502  0.000000000E+00  0.000000000E+00 -2.712530798E+03  2.712530798E+03  0.000000000E+00  0.00000E+00  9.000E+00
      25     1     1     2     0     0 -1.791862734E+02 -1.620191469E+02 -5.706139140E+01  2.779189215E+02  1.250000000E+02  0.00000E+00  9.000E+00
      25     1     1     2     0     0  1.828416997E+02  9.186453561E+01 -6.440717974E+02  6.872580740E+02  1.250000000E+02  0.00000E+00  9.000E+00
      21     1     1     2   511   501 -3.655426309E+00  7.015461128E+01 -1.878719233E+03  1.880032178E+03  0.000000000E+00  0.00000E+00  9.000E+00
#rwgt            1           1   3.4217974963072224E-002          10         130           0
</event>
<event>
      5   9999  3.19816E-02  1.46371E+02 -1.00000E+00  1.16817E-01
      21    -1     0     0   512   501  0.000000000E+00  0.000000000E+00  1.506931168E+02  1.506931168E+02  0.000000000E+00  0.00000E+00  9.000E+00
      21    -1     0     0   501   502  0.000000000E+00  0.000000000E+00 -9.230737954E+02  9.230737954E+02  0.000000000E+00  0.00000E+00  9.000E+00
      25     1     1     2     0     0 -2.517045105E+02 -1.371073135E+02 -2.133080267E+02  3.785219813E+02  1.250000000E+02  0.00000E+00  9.000E+00
      25     1     1     2     0     0  1.605997755E+02  2.254574441E+01 -4.945918500E+02  5.353005666E+02  1.250000000E+02  0.00000E+00  9.000E+00
      21     1     1     2   512   502  9.110473508E+01  1.145615691E+02 -6.448080183E+01  1.599443643E+02  2.336015456E-06  0.00000E+00  9.000E+00
#rwgt            1           1   2.7634464123466866E-002          10         222           0
</event>
<event>
      5   9999  3.19816E-02  1.91498E+01 -1.00000E+00  1.67941E-01
      21    -1     0     0   502   511  0.000000000E+00  0.000000000E+00  7.594604883E+02  7.594604883E+02  0.000000000E+00  0.00000E+00  9.000E+00
      21    -1     0     0   501   502  0.000000000E+00  0.000000000E+00 -2.344774463E+02  2.344774463E+02  0.000000000E+00  0.00000E+00  9.000E+00
      25     1     1     2     0     0  1.550036284E+02  2.177305383E+02 -1.603758199E+01  2.954909748E+02  1.250000000E+02  0.00000E+00  9.000E+00
      25     1     1     2     0     0 -1.388872747E+02 -2.073874548E+02  1.698063706E+02  3.267390931E+02  1.250000000E+02  0.00000E+00  9.000E+00
      21     1     1     2   501   511 -1.611635370E+01 -1.034308349E+01  3.712142534E+02  3.717078667E+02  0.000000000E+00  0.00000E+00  9.000E+00
#rwgt            1           1   2.4236045537077349E-002          10         276           0
</event>
<event>
      5   9999  3.19816E-02  1.40652E+02 -1.00000E+00  1.17512E-01
      21    -1     0     0   502   501  0.000000000E+00  0.000000000E+00  7.352943060E+01  7.352943060E+01  0.000000000E+00  0.00000E+00  9.000E+00
      21    -1     0     0   512   502  0.000000000E+00  0.000000000E+00 -1.764582504E+03  1.764582504E+03  0.000000000E+00  0.00000E+00  9.000E+00
      25     1     1     2     0     0  7.410179888E+01  2.372304260E+01 -5.193794725E+02  5.398461779E+02  1.250000000E+02  0.00000E+00  9.000E+00
      25     1     1     2     0     0  5.446723468E+01  3.331157888E+01 -2.447782915E+01  1.424798409E+02  1.250000000E+02  0.00000E+00  9.000E+00
      21     1     1     2   512   501 -1.285690336E+02 -5.703462148E+01 -1.147195772E+03  1.155785916E+03  0.000000000E+00  0.00000E+00  9.000E+00
#rwgt            1           1   2.9310844860489849E-002          10         420           0
</event>
<event>
      5   9999  3.19816E-02  3.94357E+02 -1.00000E+00  1.01871E-01
      21    -1     0     0   502   501  0.000000000E+00  0.000000000E+00  1.269455914E+03  1.269455914E+03  0.000000000E+00  0.00000E+00  9.000E+00
      21    -1     0     0   511   502  0.000000000E+00  0.000000000E+00 -1.726038895E+03  1.726038895E+03  0.000000000E+00  0.00000E+00  9.000E+00
      25     1     1     2     0     0  7.990443905E+01 -4.569478328E+02  1.017798770E+03  1.125488951E+03  1.250000000E+02  0.00000E+00  9.000E+00
      25     1     1     2     0     0 -3.925712408E+02  2.166204432E+02 -1.513591436E+02  4.894600963E+02  1.250000000E+02  0.00000E+00  9.000E+00
      21     1     1     2   511   501  3.126668017E+02  2.403273896E+02 -1.323022607E+03  1.380545763E+03  1.525878906E-05  0.00000E+00  9.000E+00
#rwgt            1           1   3.4245093360500301E-002          10         483           0
</event>
<event>
      5   9999  3.19816E-02  2.11656E+01 -1.00000E+00  1.64365E-01
      21    -1     0     0   512   501  0.000000000E+00  0.000000000E+00  1.799801503E+02  1.799801503E+02  0.000000000E+00  0.00000E+00  9.000E+00
      21    -1     0     0   501   502  0.000000000E+00  0.000000000E+00 -8.207606216E+02  8.207606216E+02  0.000000000E+00  0.00000E+00  9.000E+00
      25     1     1     2     0     0 -1.031053562E+02 -2.064701571E+02 -6.272518328E+02  6.799488966E+02  1.250000000E+02  0.00000E+00  9.000E+00
      25     1     1     2     0     0  8.786984071E+01  2.211623479E+02 -5.486479101E+01  2.743520336E+02  1.250000000E+02  0.00000E+00  9.000E+00
      21     1     1     2   512   502  1.523551550E+01 -1.469219079E+01  4.133615244E+01  4.643984175E+01  9.536743164E-07  0.00000E+00  9.000E+00
#rwgt            1           1   2.6925125062242813E-002          10         519           0
</event>
<event>
      5   9999  3.19816E-02  4.15895E+01 -1.00000E+00  1.43798E-01
      21    -1     0     0   502   501  0.000000000E+00  0.000000000E+00  8.526261895E+02  8.526261895E+02  0.000000000E+00  0.00000E+00  9.000E+00
       1    -1     0     0   501     0  0.000000000E+00  0.000000000E+00 -9.354063397E+02  9.354063397E+02  0.000000000E+00  0.00000E+00  9.000E+00
      25     1     1     2     0     0 -4.652992694E+01 -7.606860871E+01  6.733698906E+02  6.906543831E+02  1.250000000E+02  0.00000E+00  9.000E+00
      25     1     1     2     0     0  8.556090049E+00  5.910776881E+01  1.419314160E+02  1.983342176E+02  1.250000000E+02  0.00000E+00  9.000E+00
       1     1     1     2   502     0  3.797383689E+01  1.696083990E+01 -8.980814568E+02  8.990439286E+02  0.000000000E+00  0.00000E+00  9.000E+00
#rwgt            1           1   2.9025070812056609E-002          10         642           0
</event>
<event>
      5   9999  3.19816E-02  7.91004E+01 -1.00000E+00  1.28588E-01
      21    -1     0     0   511   501  0.000000000E+00  0.000000000E+00  1.380326962E+03  1.380326962E+03  0.000000000E+00  0.00000E+00  9.000E+00
      21    -1     0     0   501   502  0.000000000E+00  0.000000000E+00 -8.545220394E+02  8.545220394E+02  0.000000000E+00  0.00000E+00  9.000E+00
      25     1     1     2     0     0  3.203326951E+02  1.864822910E+02 -7.215003212E+02  8.207169999E+02  1.250000000E+02  0.00000E+00  9.000E+00
      25     1     1     2     0     0 -2.421752324E+02 -1.986593232E+02  2.656964722E+02  4.293413388E+02  1.250000000E+02  0.00000E+00  9.000E+00
      21     1     1     2   511   502 -7.815746264E+01  1.217703221E+01  9.816087716E+02  9.847906628E+02  1.868812365E-05  0.00000E+00  9.000E+00
#rwgt            1           1   2.9642974997970421E-002          10         727           0
</event>
<event>
      5   9999  3.19816E-02  2.00774E+01 -1.00000E+00  1.66231E-01
      21    -1     0     0   502   501  0.000000000E+00  0.000000000E+00  4.070849156E+02  4.070849156E+02  0.000000000E+00  0.00000E+00  9.000E+00
      21    -1     0     0   512   502  0.000000000E+00  0.000000000E+00 -7.108293972E+02  7.108293972E+02  0.000000000E+00  0.00000E+00  9.000E+00
      25     1     1     2     0     0  1.266262803E+02 -4.344611452E+02 -1.054958899E+02  4.811913179E+02  1.250000000E+02  0.00000E+00  9.000E+00
      25     1     1     2     0     0 -1.070781714E+02  4.390406879E+02 -3.276114441E+01  4.700220772E+02  1.250000000E+02  0.00000E+00  9.000E+00
      21     1     1     2   512   501 -1.954810889E+01 -4.579542669E+00 -1.654874473E+02  1.667009178E+02  3.814697266E-06  0.00000E+00  9.000E+00
#rwgt            1           1   2.7281527207727710E-002          10         844           0
</event>
<event>
      5   9999  3.19816E-02  1.39152E+02 -1.00000E+00  1.17700E-01
      21    -1     0     0   502   501  0.000000000E+00  0.000000000E+00  8.238489096E+02  8.238489096E+02  0.000000000E+00  0.00000E+00  9.000E+00
      21    -1     0     0   511   502  0.000000000E+00  0.000000000E+00 -9.388951023E+02  9.388951023E+02  0.000000000E+00  0.00000E+00  9.000E+00
      25     1     1     2     0     0 -1.535303746E+02  5.349557621E+02  5.533904994E+02  7.947422778E+02  1.250000000E+02  0.00000E+00  9.000E+00
      25     1     1     2     0     0  2.529150587E+02 -4.375595570E+02 -3.699730572E+02  6.386935540E+02  1.250000000E+02  0.00000E+00  9.000E+00
      21     1     1     2   511   501 -9.938468412E+01 -9.739620508E+01 -2.984636348E+02  3.293081801E+02  0.000000000E+00  0.00000E+00  9.000E+00
#rwgt            1           1   2.7974723007707390E-002          10        1050           0
</event>
<event>
      5   9999  3.19816E-02  2.67119E+02 -1.00000E+00  1.07256E-01
      21    -1     0     0   512   501  0.000000000E+00  0.000000000E+00  1.563209975E+03  1.563209975E+03  0.000000000E+00  0.00000E+00  9.000E+00
      21    -1     0     0   501   502  0.000000000E+00  0.000000000E+00 -7.487030558E+02  7.487030558E+02  0.000000000E+00  0.00000E+00  9.000E+00
      25     1     1     2     0     0  3.360660239E+02  4.719342801E+02 -6.234724216E+01  5.959651968E+02  1.250000000E+02  0.00000E+00  9.000E+00
      25     1     1     2     0     0 -2.126794061E+02 -7.088481067E+02 -4.917945524E+01  7.521580864E+02  1.250000000E+02  0.00000E+00  9.000E+00
      21     1     1     2   512   502 -1.233866178E+02  2.369138265E+02  9.260336165E+02  9.637897476E+02  0.000000000E+00  0.00000E+00  9.000E+00
#rwgt            2          11   2.1427756863008807E-003          10        1169           0
</event>
<event>
      5   9999  3.19816E-02  1.30519E+01 -1.00000E+00  1.83271E-01
      21    -1     0     0   502   501  0.000000000E+00  0.000000000E+00  1.458587495E+02  1.458587495E+02  0.000000000E+00  0.00000E+00  9.000E+00
      21    -1     0     0   501   511  0.000000000E+00  0.000000000E+00 -9.275914638E+02  9.275914638E+02  0.000000000E+00  0.00000E+00  9.000E+00
      25     1     1     2     0     0 -7.371182598E+01  1.526731567E+02  4.455588695E+01  2.152968953E+02  1.250000000E+02  0.00000E+00  9.000E+00
      25     1     1     2     0     0  8.592453188E+01 -1.572778234E+02 -7.729425277E+02  8.032337705E+02  1.250000000E+02  0.00000E+00  9.000E+00
      21     1     1     2   502   511 -1.221270590E+01  4.604666675E+00 -5.334607348E+01  5.491954749E+01  6.743495762E-07  0.00000E+00  9.000E+00
#rwgt            1           1   3.3296241474627293E-002          10        1189           0
</event>
<event>
      5   9999  3.19816E-02  7.48763E+01 -1.00000E+00  1.29756E-01
      21    -1     0     0   502   501  0.000000000E+00  0.000000000E+00  1.203346805E+03  1.203346805E+03  0.000000000E+00  0.00000E+00  9.000E+00
      21    -1     0     0   512   502  0.000000000E+00  0.000000000E+00 -2.873363279E+02  2.873363279E+02  0.000000000E+00  0.00000E+00  9.000E+00
      25     1     1     2     0     0 -2.510613183E+02  9.929669692E+01  6.122249695E+02  6.806879115E+02  1.250000000E+02  0.00000E+00  9.000E+00
      25     1     1     2     0     0  2.341344550E+02 -1.722346711E+02  5.046467938E+02  5.956316911E+02  1.250000000E+02  0.00000E+00  9.000E+00
      21     1     1     2   512   501  1.692686333E+01  7.293797415E+01 -2.008612862E+02  2.143635302E+02  4.672030912E-06  0.00000E+00  9.000E+00
#rwgt            1           1   2.7774966523028192E-002          10        1421           0
</event>
<event>
      5   9999  3.19816E-02  1.75039E+02 -1.00000E+00  1.13797E-01
      21    -1     0     0   502   501  0.000000000E+00  0.000000000E+00  9.432265189E+02  9.432265189E+02  0.000000000E+00  0.00000E+00  9.000E+00
      21    -1     0     0   511   502  0.000000000E+00  0.000000000E+00 -4.709768565E+02  4.709768565E+02  0.000000000E+00  0.00000E+00  9.000E+00
      25     1     1     2     0     0  1.004432828E+02 -1.956528015E+02  7.913644301E+02  8.308137776E+02  1.250000000E+02  0.00000E+00  9.000E+00
      25     1     1     2     0     0 -2.591946980E+02  1.219196903E+02 -1.882756198E+02  3.648547812E+02  1.250000000E+02  0.00000E+00  9.000E+00
      21     1     1     2   511   501  1.587514152E+02  7.373311123E+01 -1.308391479E+02  2.185348167E+02  0.000000000E+00  0.00000E+00  9.000E+00
#rwgt            1           1   2.8019134324367485E-002          10        1500           0
</event>
<event>
      5   9999  3.19816E-02  3.15094E+01 -1.00000E+00  1.51574E-01
      21    -1     0     0   512   501  0.000000000E+00  0.000000000E+00  4.337419569E+02  4.337419569E+02  0.000000000E+00  0.00000E+00  9.000E+00
      21    -1     0     0   501   502  0.000000000E+00  0.000000000E+00 -9.988137134E+02  9.988137134E+02  0.000000000E+00  0.00000E+00  9.000E+00
      25     1     1     2     0     0 -1.293571746E+02  4.728797659E+01 -8.697099531E+02  8.893760925E+02  1.250000000E+02  0.00000E+00  9.000E+00
      25     1     1     2     0     0  9.795397747E+01 -4.470329212E+01 -6.121606463E+01  1.759709425E+02  1.250000000E+02  0.00000E+00  9.000E+00
      21     1     1     2   512   502  3.140319710E+01 -2.584684476E+00  3.658542612E+02  3.672086353E+02  5.394796609E-06  0.00000E+00  9.000E+00
#rwgt            1           1   2.8108656460091683E-002          10        1546           0
</event>
<event>
      5   9999  3.19816E-02  4.09895E+01 -1.00000E+00  1.44185E-01
      21    -1     0     0   502   501  0.000000000E+00  0.000000000E+00  5.539914057E+02  5.539914057E+02  0.000000000E+00  0.00000E+00  9.000E+00
      21    -1     0     0   511   502  0.000000000E+00  0.000000000E+00 -2.785480257E+02  2.785480257E+02  0.000000000E+00  0.00000E+00  9.000E+00
      25     1     1     2     0     0 -1.173446005E+02  1.579246878E+02  4.393260923E+02  4.973352770E+02  1.250000000E+02  0.00000E+00  9.000E+00
      25     1     1     2     0     0  1.200684168E+02 -1.170257703E+02 -5.121572794E+01  2.153125784E+02  1.250000000E+02  0.00000E+00  9.000E+00
      21     1     1     2   511   501 -2.723816301E+00 -4.089891756E+01 -1.126669844E+02  1.198915761E+02  1.907348633E-06  0.00000E+00  9.000E+00
#rwgt            1           1   3.1179185344203473E-002          10        1607           0
</event>
<event>
      5   9999  3.19816E-02  2.41491E+02 -1.00000E+00  1.08747E-01
       1    -1     0     0   502     0  0.000000000E+00  0.000000000E+00  1.189210597E+03  1.189210597E+03  0.000000000E+00  0.00000E+00  9.000E+00
      21    -1     0     0   501   502  0.000000000E+00  0.000000000E+00 -4.646647494E+02  4.646647494E+02  0.000000000E+00  0.00000E+00  9.000E+00
      25     1     1     2     0     0 -1.271357520E+02  9.508375710E+01 -3.390586374E+02  3.947026475E+02  1.250000000E+02  0.00000E+00  9.000E+00
      25     1     1     2     0     0 -1.139141022E+02 -1.096695486E+02  3.748797396E+01  2.050223909E+02  1.250000000E+02  0.00000E+00  9.000E+00
       1     1     1     2   501     0  2.410498542E+02  1.458579149E+01  1.026116511E+03  1.054150308E+03  2.642899792E-05  0.00000E+00  9.000E+00
#rwgt            1           1   2.7757763554890895E-002          10        1692           0
</event>
<event>
      5   9999  3.19816E-02  1.85113E+01 -1.00000E+00  1.69189E-01
      21    -1     0     0   502   511  0.000000000E+00  0.000000000E+00  1.073036781E+03  1.073036781E+03  0.000000000E+00  0.00000E+00  9.000E+00
      21    -1     0     0   501   502  0.000000000E+00  0.000000000E+00 -1.588560946E+02  1.588560946E+02  0.000000000E+00  0.00000E+00  9.000E+00
      25     1     1     2     0     0  2.125363818E+02  6.126005436E+01 -2.432878589E+01  2.552281287E+02  1.250000000E+02  0.00000E+00  9.000E+00
      25     1     1     2     0     0 -2.142355436E+02 -4.282685890E+01  8.670367438E+02  9.028337184E+02  1.250000000E+02  0.00000E+00  9.000E+00
      21     1     1     2   501   511  1.699161814E+00 -1.843319546E+01  7.147272828E+01  7.383102825E+01  9.536743164E-07  0.00000E+00  9.000E+00
#rwgt            1           1   2.4743476895460633E-002          10        1727           0
</event>
<event>
      5   9999  3.19816E-02  6.37345E+02 -1.00000E+00  9.59471E-02
       2    -1     0     0   502     0  0.000000000E+00  0.000000000E+00  1.459585311E+03  1.459585311E+03  0.000000000E+00  0.00000E+00  9.000E+00
      21    -1     0     0   501   502  0.000000000E+00  0.000000000E+00 -4.131665511E+02  4.131665511E+02  0.000000000E+00  0.00000E+00  9.000E+00
      25     1     1     2     0     0  2.453704869E+02 -3.676290366E+02  7.232083739E+01  4.649871912E+02  1.250000000E+02  0.00000E+00  9.000E+00
      25     1     1     2     0     0 -5.417392754E+01 -2.403614836E+02  4.327864350E+01  2.796542476E+02  1.250000000E+02  0.00000E+00  9.000E+00
       2     1     1     2   501     0 -1.911965594E+02  6.079905202E+02  9.308192792E+02  1.128110423E+03  1.078959322E-05  0.00000E+00  9.000E+00
#rwgt            2          18   3.4802179077950183E-003          10        2031           0
</event>
<event>
      5   9999  3.19816E-02  1.85415E+02 -1.00000E+00  1.12858E-01
      21    -1     0     0   502   501  0.000000000E+00  0.000000000E+00  1.051364187E+03  1.051364187E+03  0.000000000E+00  0.00000E+00  9.000E+00
      21    -1     0     0   511   502  0.000000000E+00  0.000000000E+00 -2.863361367E+02  2.863361367E+02  0.000000000E+00  0.00000E+00  9.000E+00
      25     1     1     2     0     0 -1.461417264E+02  2.134328005E+02  7.073917069E+02  7.635044149E+02  1.250000000E+02  0.00000E+00  9.000E+00
      25     1     1     2     0     0  2.811283880E+02 -8.632151024E+01  1.653213361E+02  3.597787068E+02  1.250000000E+02  0.00000E+00  9.000E+00
      21     1     1     2   511   501 -1.349866616E+02 -1.271112903E+02 -1.076849926E+02  2.144172021E+02  4.264961200E-06  0.00000E+00  9.000E+00
#rwgt            1           1   2.8541299191458661E-002          10        2065           0
</event>
<event>
      5   9999  3.19816E-02  9.36385E+01 -1.00000E+00  1.25126E-01
      21    -1     0     0   502   501  0.000000000E+00  0.000000000E+00  2.345991224E+02  2.345991224E+02  0.000000000E+00  0.00000E+00  9.000E+00
      21    -1     0     0   512   502  0.000000000E+00  0.000000000E+00 -1.395374770E+03  1.395374770E+03  0.000000000E+00  0.00000E+00  9.000E+00
      25     1     1     2     0     0 -5.482365380E+02 -1.408784734E-01 -6.523837239E+02  8.612739661E+02  1.250000000E+02  0.00000E+00  9.000E+00
      25     1     1     2     0     0  4.627840733E+02 -3.814811685E+01 -4.003161711E+02  6.257015376E+02  1.250000000E+02  0.00000E+00  9.000E+00
      21     1     1     2   512   501  8.545246472E+01  3.828899532E+01 -1.080757524E+02  1.429983886E+02  1.348699152E-06  0.00000E+00  9.000E+00
#rwgt            1           1   2.9679522801759072E-002          10        2148           0
</event>
<event>
      5   9999  3.19816E-02  7.30018E+01 -1.00000E+00  1.30304E-01
      21    -1     0     0   502   501  0.000000000E+00  0.000000000E+00  3.426430851E+02  3.426430851E+02  0.000000000E+00  0.00000E+00  9.000E+00
      21    -1     0     0   511   502  0.000000000E+00  0.000000000E+00 -9.589159306E+02  9.589159306E+02  0.000000000E+00  0.00000E+00  9.000E+00
      25     1     1     2     0     0  2.992283761E+02  3.491098261E+02 -6.343024519E+01  4.806908443E+02  1.250000000E+02  0.00000E+00  9.000E+00
      25     1     1     2     0     0 -3.680136474E+02 -3.246589563E+02 -3.796752837E+02  6.329421803E+02  1.250000000E+02  0.00000E+00  9.000E+00
      21     1     1     2   511   501  6.878527125E+01 -2.445086978E+01 -1.731673167E+02  1.879259911E+02  0.000000000E+00  0.00000E+00  9.000E+00
#rwgt            1           1   2.7934072390140965E-002          10        2233           0
</event>
<event>
      5   9999  3.19816E-02  4.62841E+01 -1.00000E+00  1.41017E-01
       1    -1     0     0   502     0  0.000000000E+00  0.000000000E+00  9.652219535E+02  9.652219535E+02  0.000000000E+00  0.00000E+00  9.000E+00
      21    -1     0     0   501   502  0.000000000E+00  0.000000000E+00 -3.601043344E+02  3.601043344E+02  0.000000000E+00  0.00000E+00  9.000E+00
      25     1     1     2     0     0  1.549881843E+02  1.132940315E+02  5.505419179E+02  5.963038472E+02  1.250000000E+02  0.00000E+00  9.000E+00
      25     1     1     2     0     0 -1.919925463E+02 -1.410949394E+02 -2.817157448E+02  3.895608818E+02  1.250000000E+02  0.00000E+00  9.000E+00
       1     1     1     2   501     0  3.700436199E+01  2.780090796E+01  3.362914460E+02  3.394615589E+02  0.000000000E+00  0.00000E+00  9.000E+00
#rwgt            1           1   2.9143662229968545E-002          10        2381           0
</event>
<event>
      5   9999  3.19816E-02  5.80219E+01 -1.00000E+00  1.35486E-01
      21    -1     0     0   502   501  0.000000000E+00  0.000000000E+00  2.068200805E+02  2.068200805E+02  0.000000000E+00  0.00000E+00  9.000E+00
      21    -1     0     0   501   511  0.000000000E+00  0.000000000E+00 -5.209729726E+02  5.209729726E+02  0.000000000E+00  0.00000E+00  9.000E+00
      25     1     1     2     0     0  2.550787020E+02 -9.500696414E+01 -7.872958909E+01  3.097011716E+02  1.250000000E+02  0.00000E+00  9.000E+00
      25     1     1     2     0     0 -2.159112872E+02  5.219981665E+01 -1.056072591E+02  2.758992533E+02  1.250000000E+02  0.00000E+00  9.000E+00
      21     1     1     2   502   511 -3.916741486E+01  4.280714749E+01 -1.298160440E+02  1.421926283E+02  1.907348633E-06  0.00000E+00  9.000E+00
#rwgt            1           1   2.6627874175155102E-002          10        2548           0
</event>
<event>
      5   9999  3.19816E-02  2.07707E+01 -1.00000E+00  1.65025E-01
      21    -1     0     0   502   501  0.000000000E+00  0.000000000E+00  4.879769698E+02  4.879769698E+02  0.000000000E+00  0.00000E+00  9.000E+00
      21    -1     0     0   512   502  0.000000000E+00  0.000000000E+00 -1.535551278E+03  1.535551278E+03  0.000000000E+00  0.00000E+00  9.000E+00
      25     1     1     2     0     0 -4.098129296E+02 -6.738264591E+02 -1.878742132E+02  8.203111936E+02  1.250000000E+02  0.00000E+00  9.000E+00
      25     1     1     2     0     0  4.205534479E+02  6.916046365E+02 -8.232847906E+02  1.161294546E+03  1.250000000E+02  0.00000E+00  9.000E+00
      21     1     1     2   512   501 -1.074051833E+01 -1.777817733E+01 -3.641530486E+01  4.192250889E+01  9.536743164E-07  0.00000E+00  9.000E+00
#rwgt            1           1   3.4435288760773432E-002          10        2647           0
</event>
<event>
      5   9999  3.19816E-02  4.91597E+01 -1.00000E+00  1.39497E-01
      21    -1     0     0   511   501  0.000000000E+00  0.000000000E+00  1.041016233E+02  1.041016233E+02  0.000000000E+00  0.00000E+00  9.000E+00
      21    -1     0     0   501   502  0.000000000E+00  0.000000000E+00 -8.648901357E+02  8.648901357E+02  0.000000000E+00  0.00000E+00  9.000E+00
      25     1     1     2     0     0 -2.122251589E+02  1.482085569E+02 -2.828509139E+02  4.032802176E+02  1.250000000E+02  0.00000E+00  9.000E+00
      25     1     1     2     0     0  1.650636575E+02 -1.343352072E+02 -4.363676208E+02  5.013318855E+02  1.250000000E+02  0.00000E+00  9.000E+00
      21     1     1     2   511   502  4.716150144E+01 -1.387334963E+01 -4.156997765E+01  6.437965587E+01  1.507891493E-06  0.00000E+00  9.000E+00
#rwgt            1           1   2.8914351265403114E-002          10        2988           0
</event>
<event>
      5   9999  3.19816E-02  2.62020E+01 -1.00000E+00  1.57238E-01
      21    -1     0     0   502   512  0.000000000E+00  0.000000000E+00  6.516498062E+02  6.516498062E+02  0.000000000E+00  0.00000E+00  9.000E+00
      21    -1     0     0   501   502  0.000000000E+00  0.000000000E+00 -6.106419743E+02  6.106419743E+02  0.000000000E+00  0.00000E+00  9.000E+00
      25     1     1     2     0     0 -8.987440100E+01  5.054657467E+02 -2.956168908E+02  6.054645945E+02  1.250000000E+02  0.00000E+00  9.000E+00
      25     1     1     2     0     0  1.159908500E+02 -5.075814597E+02  3.067923928E+02  6.171218582E+02  1.250000000E+02  0.00000E+00  9.000E+00
      21     1     1     2   501   512 -2.611644902E+01  2.115713062E+00  2.983232988E+01  3.970532782E+01  0.000000000E+00  0.00000E+00  9.000E+00
#rwgt            1           1   2.8350185717924407E-002          10        3084           0
</event>
<event>
      5   9999  3.19816E-02  3.05156E+01 -1.00000E+00  1.52528E-01
      21    -1     0     0   502   501  0.000000000E+00  0.000000000E+00  4.991015614E+02  4.991015614E+02  0.000000000E+00  0.00000E+00  9.000E+00
      21    -1     0     0   501   511  0.000000000E+00  0.000000000E+00 -6.261579554E+02  6.261579554E+02  0.000000000E+00  0.00000E+00  9.000E+00
      25     1     1     2     0     0 -4.868879263E+01  3.182429166E+02 -8.562568852E+01  3.558172438E+02  1.250000000E+02  0.00000E+00  9.000E+00
      25     1     1     2     0     0  6.482668414E+01 -3.441421440E+02  2.681011814E+02  4.584098141E+02  1.250000000E+02  0.00000E+00  9.000E+00
      21     1     1     2   502   511 -1.613789151E+01  2.589922742E+01 -3.095318868E+02  3.110324588E+02  5.394796609E-06  0.00000E+00  9.000E+00
#rwgt            1           1   2.7240269874997322E-002          10        3244           0
</event>
<event>
      5   9999  3.19816E-02  8.97730E+01 -1.00000E+00  1.25973E-01
      21    -1     0     0   502   501  0.000000000E+00  0.000000000E+00  6.969555078E+02  6.969555078E+02  0.000000000E+00  0.00000E+00  9.000E+00
      21    -1     0     0   512   502  0.000000000E+00  0.000000000E+00 -9.105605106E+02  9.105605106E+02  0.000000000E+00  0.00000E+00  9.000E+00
      25     1     1     2     0     0 -2.529803322E+02  3.412076357E+01  4.259610468E+02  5.120850402E+02  1.250000000E+02  0.00000E+00  9.000E+00
      25     1     1     2     0     0  2.671365463E+02 -1.227706385E+02  1.119930748E+02  3.385291905E+02  1.250000000E+02  0.00000E+00  9.000E+00
      21     1     1     2   512   501 -1.415621413E+01  8.864987492E+01 -7.515591244E+02  7.569017877E+02  0.000000000E+00  0.00000E+00  9.000E+00
#rwgt            1           1   2.8171092212420805E-002          10        3387           0
</event>
<event>
      5   9999  3.19816E-02  2.62191E+01 -1.00000E+00  1.57217E-01
      21    -1     0     0   511   501  0.000000000E+00  0.000000000E+00  1.165564536E+03  1.165564536E+03  0.000000000E+00  0.00000E+00  9.000E+00
      21    -1     0     0   501   502  0.000000000E+00  0.000000000E+00 -9.166605615E+01  9.166605615E+01  0.000000000E+00  0.00000E+00  9.000E+00
      25     1     1     2     0     0 -2.320810817E+02 -1.067600368E+02  2.867552553E+02  4.038723937E+02  1.250000000E+02  0.00000E+00  9.000E+00
      25     1     1     2     0     0  2.485049931E+02  8.632239229E+01  6.303303875E+02  6.943685509E+02  1.250000000E+02  0.00000E+00  9.000E+00
      21     1     1     2   511   502 -1.642391137E+01  2.043764450E+01  1.568128369E+02  1.589896475E+02  3.303624740E-06  0.00000E+00  9.000E+00
#rwgt            1           1   2.6094021786859475E-002          10        3493           0
</event>
<event>
      5   9999  3.19816E-02  1.70471E+01 -1.00000E+00  1.72305E-01
      21    -1     0     0   502   501  0.000000000E+00  0.000000000E+00  2.394924312E+02  2.394924312E+02  0.000000000E+00  0.00000E+00  9.000E+00
       1    -1     0     0   501     0  0.000000000E+00  0.000000000E+00 -1.102575223E+03  1.102575223E+03  0.000000000E+00  0.00000E+00  9.000E+00
      25     1     1     2     0     0  5.745847993E+00 -1.853619531E+02  1.651369422E+02  2.780058958E+02  1.250000000E+02  0.00000E+00  9.000E+00
      25     1     1     2     0     0  1.045243537E+01  1.800498146E+02 -6.615098935E+02  6.969559013E+02  1.250000000E+02  0.00000E+00  9.000E+00
       1     1     1     2   502     0 -1.619828336E+01  5.312138487E+00 -3.667098408E+02  3.671058574E+02  5.394796609E-06  0.00000E+00  9.000E+00
#rwgt            1           1   2.6087809775315843E-002          10        3636           0
</event>
<event>
      5   9999  3.19816E-02  1.00717E+02 -1.00000E+00  1.23689E-01
      21    -1     0     0   502   501  0.000000000E+00  0.000000000E+00  1.020019872E+03  1.020019872E+03  0.000000000E+00  0.00000E+00  9.000E+00
       3    -1     0     0   501     0  0.000000000E+00  0.000000000E+00 -1.304777928E+02  1.304777928E+02  0.000000000E+00  0.00000E+00  9.000E+00
      25     1     1     2     0     0  8.869538036E+01  1.053508919E+01  4.435836005E+01  1.599078569E+02  1.250000000E+02  0.00000E+00  9.000E+00
      25     1     1     2     0     0 -2.272516342E+01 -8.663911103E+01  8.727294114E+02  8.861740202E+02  1.250000000E+02  0.00000E+00  9.000E+00
       3     1     1     2   502     0 -6.597021694E+01  7.610402185E+01 -2.754569177E+01  1.044157881E+02  1.907348633E-06  0.00000E+00  9.000E+00
#rwgt            1           1   3.1994635583034302E-002          10        4016           0
</event>
<event>
      5   9999  3.19816E-02  5.35013E+01 -1.00000E+00  1.37419E-01
      21    -1     0     0   502   511  0.000000000E+00  0.000000000E+00  2.553001071E+02  2.553001071E+02  0.000000000E+00  0.00000E+00  9.000E+00
      21    -1     0     0   501   502  0.000000000E+00  0.000000000E+00 -1.000686349E+03  1.000686349E+03  0.000000000E+00  0.00000E+00  9.000E+00
      25     1     1     2     0     0 -4.386547692E+02  9.375261643E+01 -4.611365660E+02  6.553468487E+02  1.250000000E+02  0.00000E+00  9.000E+00
      25     1     1     2     0     0  4.174091798E+02 -1.428546861E+02 -2.961060230E+02  5.458403261E+02  1.250000000E+02  0.00000E+00  9.000E+00
      21     1     1     2   501   511  2.124558939E+01  4.910206969E+01  1.185634663E+01  5.479928167E+01  5.331201500E-07  0.00000E+00  9.000E+00
#rwgt            1           1   2.6042342921575083E-002          10        4073           0
</event>
<event>
      5   9999  3.19816E-02  5.57504E+01 -1.00000E+00  1.36431E-01
      21    -1     0     0   502   512  0.000000000E+00  0.000000000E+00  1.544136428E+02  1.544136428E+02  0.000000000E+00  0.00000E+00  9.000E+00
      21    -1     0     0   501   502  0.000000000E+00  0.000000000E+00 -1.265353983E+03  1.265353983E+03  0.000000000E+00  0.00000E+00  9.000E+00
      25     1     1     2     0     0  2.367841634E+02  1.603771884E+02 -1.278587592E+02  3.372839233E+02  1.250000000E+02  0.00000E+00  9.000E+00
      25     1     1     2     0     0 -2.721704027E+02 -2.034575370E+02 -9.522799302E+02  1.018790343E+03  1.250000000E+02  0.00000E+00  9.000E+00
      21     1     1     2   501   512  3.538623923E+01  4.308034867E+01 -3.080165112E+01  6.369335978E+01  6.743495762E-07  0.00000E+00  9.000E+00
#rwgt            1           1   3.0206995588604624E-002          10        4188           0
</event>
<event>
      5   9999  3.19816E-02  1.32334E+02 -1.00000E+00  1.18592E-01
      21    -1     0     0   502   511  0.000000000E+00  0.000000000E+00  9.782861230E+02  9.782861230E+02  0.000000000E+00  0.00000E+00  9.000E+00
      21    -1     0     0   501   502  0.000000000E+00  0.000000000E+00 -9.433124276E+02  9.433124276E+02  0.000000000E+00  0.00000E+00  9.000E+00
      25     1     1     2     0     0  6.045191181E+02 -4.563118909E+02 -5.353945359E+02  9.359146409E+02  1.250000000E+02  0.00000E+00  9.000E+00
      25     1     1     2     0     0 -4.722606945E+02  4.607969922E+02  4.749565874E+02  8.225404498E+02  1.250000000E+02  0.00000E+00  9.000E+00
      21     1     1     2   501   511 -1.322584235E+02 -4.485101253E+00  9.541164388E+01  1.631434599E+02  2.697398305E-06  0.00000E+00  9.000E+00
#rwgt            1           1   3.7512373826871497E-002          10        4285           0
</event>
<event>
      5   9999  3.19816E-02  3.71131E+02 -1.00000E+00  1.02674E-01
      21    -1     0     0   502   501  0.000000000E+00  0.000000000E+00  7.180805978E+02  7.180805978E+02  0.000000000E+00  0.00000E+00  9.000E+00
      21    -1     0     0   512   502  0.000000000E+00  0.000000000E+00 -1.306760727E+03  1.306760727E+03  0.000000000E+00  0.00000E+00  9.000E+00
      25     1     1     2     0     0  8.074548098E+02  8.112751532E+01 -6.347742773E+02  1.037847930E+03  1.250000000E+02  0.00000E+00  9.000E+00
      25     1     1     2     0     0 -4.437449978E+02 -1.549733372E+02  2.672617789E+02  5.549596533E+02  1.250000000E+02  0.00000E+00  9.000E+00
      21     1     1     2   512   501 -3.637098119E+02  7.384582187E+01 -2.211676313E+02  4.320337416E+02  2.697398305E-06  0.00000E+00  9.000E+00
#rwgt            2          11   4.0224809516514904E-003          10        4376           0
</event>
<event>
      5   9999  3.19816E-02  3.44411E+01 -1.00000E+00  1.48989E-01
      21    -1     0     0   502   501  0.000000000E+00  0.000000000E+00  2.633897652E+02  2.633897652E+02  0.000000000E+00  0.00000E+00  9.000E+00
      21    -1     0     0   511   502  0.000000000E+00  0.000000000E+00 -3.927809128E+02  3.927809128E+02  0.000000000E+00  0.00000E+00  9.000E+00
      25     1     1     2     0     0 -2.520384317E+02 -1.373373697E+02 -6.003022554E+01  3.187688067E+02  1.250000000E+02  0.00000E+00  9.000E+00
      25     1     1     2     0     0  2.424725116E+02  1.042513544E+02 -4.564145456E+01  2.955831628E+02  1.250000000E+02  0.00000E+00  9.000E+00
      21     1     1     2   511   501  9.565920091E+00  3.308601532E+01 -2.371946756E+01  4.181870847E+01  8.259061849E-07  0.00000E+00  9.000E+00
#rwgt            1           1   2.8030012627013365E-002          10        4396           0
</event>
<event>
      5   9999  3.19816E-02  1.07475E+02 -1.00000E+00  1.22436E-01
      21    -1     0     0   502   501  0.000000000E+00  0.000000000E+00  2.771726363E+02  2.771726363E+02  0.000000000E+00  0.00000E+00  9.000E+00
      21    -1     0     0   512   502  0.000000000E+00  0.000000000E+00 -1.419443343E+03  1.419443343E+03  0.000000000E+00  0.00000E+00  9.000E+00
      25     1     1     2     0     0  1.034637488E+02  1.035798194E+02 -6.747036835E+02  7.016292375E+02  1.250000000E+02  0.00000E+00  9.000E+00
      25     1     1     2     0     0 -1.326367257E+02 -2.070200685E+02  1.859803276E+02  3.326612271E+02  1.250000000E+02  0.00000E+00  9.000E+00
      21     1     1     2   512   501  2.917297696E+01  1.034402491E+02 -6.535473510E+02  6.623255149E+02  1.321449896E-05  0.00000E+00  9.000E+00
#rwgt            1           1   2.7232718600424963E-002          10        4503           0
</event>
<event>
      5   9999  3.19816E-02  7.03840E+02 -1.00000E+00  9.48086E-02
       1    -1     0     0   502     0  0.000000000E+00  0.000000000E+00  3.312311908E+03  3.312311908E+03  0.000000000E+00  0.00000E+00  9.000E+00
      21    -1     0     0   501   502  0.000000000E+00  0.000000000E+00 -1.271355091E+03  1.271355091E+03  0.000000000E+00  0.00000E+00  9.000E+00
      25     1     1     2     0     0 -1.675649217E+02 -1.059386496E+03 -8.731466640E+02  1.388664052E+03  1.250000000E+02  0.00000E+00  9.000E+00
      25     1     1     2     0     0 -2.841662106E+02  5.196366969E+02  1.404253479E+03  1.529158450E+03  1.250000000E+02  0.00000E+00  9.000E+00
       1     1     1     2   501     0  4.517311323E+02  5.397497996E+02  1.509850002E+03  1.665844498E+03  3.051757812E-05  0.00000E+00  9.000E+00
#rwgt            2          17   7.7413559349298600E-004          10        4671           0
</event>
<event>
      5   9999  3.19816E-02  7.52432E+01 -1.00000E+00  1.29651E-01
       2    -1     0     0   502     0  0.000000000E+00  0.000000000E+00  5.860606527E+02  5.860606527E+02  0.000000000E+00  0.00000E+00  9.000E+00
      21    -1     0     0   501   502  0.000000000E+00  0.000000000E+00 -2.048551714E+02  2.048551714E+02  0.000000000E+00  0.00000E+00  9.000E+00
      25     1     1     2     0     0 -1.086840289E+02 -5.565157172E+01 -1.031866564E+02  2.029329979E+02  1.250000000E+02  0.00000E+00  9.000E+00
      25     1     1     2     0     0  1.262814999E+02 -1.750490475E+01  1.181650723E+02  2.141061027E+02  1.250000000E+02  0.00000E+00  9.000E+00
       2     1     1     2   501     0 -1.759747096E+01  7.315647647E+01  3.662270653E+02  3.738767235E+02  0.000000000E+00  0.00000E+00  9.000E+00
#rwgt            1           1   2.6321558224725802E-002          10        4705           0
</event>
<event>
      5   9999  3.19816E-02  8.90103E+01 -1.00000E+00  1.26145E-01
      21    -1     0     0   502   511  0.000000000E+00  0.000000000E+00  5.270916846E+02  5.270916846E+02  0.000000000E+00  0.00000E+00  9.000E+00
      21    -1     0     0   501   502  0.000000000E+00  0.000000000E+00 -1.117415426E+03  1.117415426E+03  0.000000000E+00  0.00000E+00  9.000E+00
      25     1     1     2     0     0 -1.324607649E+02 -4.917593480E+02  2.136458642E+02  5.662531818E+02  1.250000000E+02  0.00000E+00  9.000E+00
      25     1     1     2     0     0  1.773414286E+02  5.686265436E+02 -7.733711229E+02  9.841311001E+02  1.250000000E+02  0.00000E+00  9.000E+00
      21     1     1     2   501   511 -4.488066370E+01 -7.686719554E+01 -3.059848253E+01  9.412282857E+01  1.118282261E-06  0.00000E+00  9.000E+00
#rwgt            1           1   2.6553851516985645E-002          10        4819           0
</event>
<event>
      5   9999  3.19816E-02  4.63582E+01 -1.00000E+00  1.40976E-01
      21    -1     0     0   502   501  0.000000000E+00  0.000000000E+00  3.379259928E+02  3.379259928E+02  0.000000000E+00  0.00000E+00  9.000E+00
      21    -1     0     0   501   512  0.000000000E+00  0.000000000E+00 -1.756237916E+03  1.756237916E+03  0.000000000E+00  0.00000E+00  9.000E+00
      25     1     1     2     0     0 -5.957764046E+01 -4.515972511E+02  5.202253257E+01  4.752061830E+02  1.250000000E+02  0.00000E+00  9.000E+00
      25     1     1     2     0     0  8.865054720E+01  4.877061055E+02 -8.155180664E+02  9.625024060E+02  1.250000000E+02  0.00000E+00  9.000E+00
      21     1     1     2   502   512 -2.907290674E+01 -3.610885435E+01 -6.548163894E+02  6.564553199E+02  0.000000000E+00  0.00000E+00  9.000E+00
#rwgt            1           1   2.9410274784179617E-002          10        4906           0
</event>
<event>
      5   9999  3.19816E-02  4.73873E+01 -1.00000E+00  1.40419E-01
      21    -1     0     0   502   511  0.000000000E+00  0.000000000E+00  6.257019242E+02  6.257019242E+02  0.000000000E+00  0.00000E+00  9.000E+00
      21    -1     0     0   501   502  0.000000000E+00  0.000000000E+00 -9.154299619E+01  9.154299619E+01  0.000000000E+00  0.00000E+00  9.000E+00
      25     1     1     2     0     0  2.546762449E+01  6.225721425E+01  2.448288145E+02  2.830030195E+02  1.250000000E+02  0.00000E+00  9.000E+00
      25     1     1     2     0     0 -2.721139121E+01 -1.096124317E+02  3.061641102E+01  1.712241502E+02  1.250000000E+02  0.00000E+00  9.000E+00
      21     1     1     2   501   511  1.743766719E+00  4.735521740E+01  2.587137024E+02  2.630177507E+02  3.814697266E-06  0.00000E+00  9.000E+00
#rwgt            1           1   2.7664020669352425E-002          10        5087           0
</event>
<event>
      5   9999  3.19816E-02  3.94493E+01 -1.00000E+00  1.45215E-01
       1    -1     0     0   502     0  0.000000000E+00  0.000000000E+00  1.437719101E+03  1.437719101E+03  0.000000000E+00  0.00000E+00  9.000E+00
      21    -1     0     0   501   502  0.000000000E+00  0.000000000E+00 -2.131724704E+02  2.131724704E+02  0.000000000E+00  0.00000E+00  9.000E+00
      25     1     1     2     0     0 -1.580350343E+02 -6.676915440E+01  3.473254416E+01  2.150919377E+02  1.250000000E+02  0.00000E+00  9.000E+00
      25     1     1     2     0     0  1.775894404E+02  1.010309912E+02 -5.745070407E+00  2.395898086E+02  1.250000000E+02  0.00000E+00  9.000E+00
       1     1     1     2   501     0 -1.955440615E+01 -3.426183675E+01  1.195559157E+03  1.196209825E+03  1.525878906E-05  0.00000E+00  9.000E+00
#rwgt            1           1   2.6054645735039437E-002          10        5195           0
</event>
<event>
      5   9999  3.19816E-02  8.52970E+01 -1.00000E+00  1.27016E-01
       1    -1     0     0   502     0  0.000000000E+00  0.000000000E+00  1.662404760E+03  1.662404760E+03  0.000000000E+00  0.00000E+00  9.000E+00
      21    -1     0     0   501   502  0.000000000E+00  0.000000000E+00 -4.592169709E+02  4.592169709E+02  0.000000000E+00  0.00000E+00  9.000E+00
      25     1     1     2     0     0  6.236454816E+01 -3.759892374E+02  1.171160563E+02  4.178497507E+02  1.250000000E+02  0.00000E+00  9.000E+00
      25     1     1     2     0     0 -7.798698615E+01  2.921350471E+02 -2.204155047E+02  3.945032959E+02  1.250000000E+02  0.00000E+00  9.000E+00
       1     1     1     2   501     0  1.562243799E+01  8.385419028E+01  1.306487237E+03  1.309268684E+03  1.525878906E-05  0.00000E+00  9.000E+00
#rwgt            1           1   2.8503956539726309E-002          10        5313           0
</event>
<event>
      5   9999  3.19816E-02  5.31158E+01 -1.00000E+00  1.37594E-01
      21    -1     0     0   502   501  0.000000000E+00  0.000000000E+00  2.753731600E+02  2.753731600E+02  0.000000000E+00  0.00000E+00  9.000E+00
      21    -1     0     0   501   511  0.000000000E+00  0.000000000E+00 -6.341760715E+02  6.341760715E+02  0.000000000E+00  0.00000E+00  9.000E+00
      25     1     1     2     0     0  2.547929501E+02 -1.481594754E+02 -4.227033761E+01  3.229279471E+02  1.250000000E+02  0.00000E+00  9.000E+00
      25     1     1     2     0     0 -2.820127165E+02  1.937705683E+02 -1.207718350E+02  3.837825446E+02  1.250000000E+02  0.00000E+00  9.000E+00
      21     1     1     2   502   511  2.721976638E+01 -4.561109285E+01 -1.957607389E+02  2.028387399E+02  0.000000000E+00  0.00000E+00  9.000E+00
#rwgt            1           1   2.8702199973132208E-002          10        5391           0
</event>
<event>
      5   9999  3.19816E-02  2.65300E+02 -1.00000E+00  1.07356E-01
       1    -1     0     0   502     0  0.000000000E+00  0.000000000E+00  4.368753117E+02  4.368753117E+02  0.000000000E+00  0.00000E+00  9.000E+00
      21    -1     0     0   501   502  0.000000000E+00  0.000000000E+00 -1.421748524E+03  1.421748524E+03  0.000000000E+00  0.00000E+00  9.000E+00
      25     1     1     2     0     0 -1.283108157E+02  8.096432197E+01  5.895261341E+01  2.052298650E+02  1.250000000E+02  0.00000E+00  9.000E+00
      25     1     1     2     0     0  3.865942973E+02 -1.415765432E+02 -1.247058829E+03  1.319196646E+03  1.250000000E+02  0.00000E+00  9.000E+00
       1     1     1     2   501     0 -2.582834817E+02  6.061222122E+01  2.032330032E+02  3.341973247E+02  4.672030912E-06  0.00000E+00  9.000E+00
#rwgt            2          17   4.0697113230445375E-004          10        5503           0
</event>
<event>
      5   9999  3.19816E-02  1.24386E+02 -1.00000E+00  1.19710E-01
       2    -1     0     0   502     0  0.000000000E+00  0.000000000E+00  6.679643215E+01  6.679643215E+01  0.000000000E+00  0.00000E+00  9.000E+00
      21    -1     0     0   501   502  0.000000000E+00  0.000000000E+00 -2.362030162E+03  2.362030162E+03  0.000000000E+00  0.00000E+00  9.000E+00
      25     1     1     2     0     0 -9.774655821E+01  1.671619617E+02 -1.147854927E+03  1.170766178E+03  1.250000000E+02  0.00000E+00  9.000E+00
      25     1     1     2     0     0  9.808949292E+01 -2.915471150E+02 -5.093235029E+02  6.079939962E+02  1.250000000E+02  0.00000E+00  9.000E+00
       2     1     1     2   501     0 -3.429347050E-01  1.243851533E+02 -6.380553005E+02  6.500664200E+02  0.000000000E+00  0.00000E+00  9.000E+00
#rwgt            1           1   3.4331125190679566E-002          10        5552           0
</event>
<event>
      5   9999  3.19816E-02  1.00169E+01 -1.00000E+00  1.95672E-01
      21    -1     0     0   511   501  0.000000000E+00  0.000000000E+00  5.862058209E+02  5.862058209E+02  0.000000000E+00  0.00000E+00  9.000E+00
      21    -1     0     0   501   502  0.000000000E+00  0.000000000E+00 -2.801665533E+02  2.801665533E+02  0.000000000E+00  0.00000E+00  9.000E+00
      25     1     1     2     0     0  7.434749296E+01 -1.693317572E+02 -1.803703854E+02  2.869830476E+02  1.250000000E+02  0.00000E+00  9.000E+00
      25     1     1     2     0     0 -7.395518720E+01  1.793409723E+02  2.406355836E+02  3.334112148E+02  1.250000000E+02  0.00000E+00  9.000E+00
      21     1     1     2   511   502 -3.923057608E-01 -1.000921506E+01  2.457740694E+02  2.459781118E+02  3.814697266E-06  0.00000E+00  9.000E+00
#rwgt            1           1   2.8900328743028551E-002          10        5608           0
</event>
<event>
      5   9999  3.19816E-02  3.10000E+01 -1.00000E+00  1.52057E-01
      21    -1     0     0   502   501  0.000000000E+00  0.000000000E+00  1.269879255E+03  1.269879255E+03  0.000000000E+00  0.00000E+00  9.000E+00
      21    -1     0     0   501   512  0.000000000E+00  0.000000000E+00 -1.136510926E+02  1.136510926E+02  0.000000000E+00  0.00000E+00  9.000E+00
      25     1     1     2     0     0 -1.523487070E+02  4.344390580E+01  5.678158664E+02  6.026087948E+02  1.250000000E+02  0.00000E+00  9.000E+00
      25     1     1     2     0     0  1.660103439E+02 -1.561653390E+01  6.657490033E+02  6.976030718E+02  1.250000000E+02  0.00000E+00  9.000E+00
      21     1     1     2   502   512 -1.366163693E+01 -2.782737191E+01 -7.733670732E+01  8.331848084E+01  2.132480600E-06  0.00000E+00  9.000E+00
#rwgt            1           1   2.5288634095612213E-002          10        5918           0
</event>
<event>
      5   9999  3.19816E-02  3.29617E+02 -1.00000E+00  1.04280E-01
       1    -1     0     0   502     0  0.000000000E+00  0.000000000E+00  1.708300040E+03  1.708300040E+03  0.000000000E+00  0.00000E+00  9.000E+00
      21    -1     0     0   501   502  0.000000000E+00  0.000000000E+00 -6.724525850E+02  6.724525850E+02  0.000000000E+00  0.00000E+00  9.000E+00
      25     1     1     2     0     0 -1.220561944E+02  7.621119900E+01 -4.628930473E+02  5.006004742E+02  1.250000000E+02  0.00000E+00  9.000E+00
      25     1     1     2     0     0  1.612334502E+02  2.510693519E+02 -2.185180304E+01  3.242445778E+02  1.250000000E+02  0.00000E+00  9.000E+00
       1     1     1     2   501     0 -3.917725575E+01 -3.272805509E+02  1.520592305E+03  1.555907573E+03  2.157918644E-05  0.00000E+00  9.000E+00
#rwgt            1           1   2.6988798222196523E-002          10        6023           0
</event>
<event>
      5   9999  3.19816E-02  1.36730E+01 -1.00000E+00  1.81259E-01
      21    -1     0     0   502   501  0.000000000E+00  0.000000000E+00  7.834789103E+02  7.834789103E+02  0.000000000E+00  0.00000E+00  9.000E+00
      21    -1     0     0   501   511  0.000000000E+00  0.000000000E+00 -4.493280992E+02  4.493280992E+02  0.000000000E+00  0.00000E+00  9.000E+00
      25     1     1     2     0     0  4.397490356E+02  1.023488117E+02 -1.698148971E+02  4.983137494E+02  1.250000000E+02  0.00000E+00  9.000E+00
      25     1     1     2     0     0 -4.263018467E+02 -1.048234511E+02  5.333982529E+02  7.020398255E+02  1.250000000E+02  0.00000E+00  9.000E+00
      21     1     1     2   502   511 -1.344718891E+01  2.474639369E+00 -2.943254462E+01  3.245343453E+01  5.840038640E-07  0.00000E+00  9.000E+00
#rwgt            1           1   3.1102523223913804E-002          10        6058           0
</event>
<event>
      5   9999  3.19816E-02  6.64744E+01 -1.00000E+00  1.32368E-01
      21    -1     0     0   502   501  0.000000000E+00  0.000000000E+00  3.112712203E+02  3.112712203E+02  0.000000000E+00  0.00000E+00  9.000E+00
      21    -1     0     0   501   512  0.000000000E+00  0.000000000E+00 -5.926140915E+02  5.926140915E+02  0.000000000E+00  0.00000E+00  9.000E+00
      25     1     1     2     0     0 -3.144138596E+02  5.070058917E+01 -8.480095990E+01  3.524809607E+02  1.250000000E+02  0.00000E+00  9.000E+00
      25     1     1     2     0     0  3.691682959E+02 -8.839409570E+01 -6.621392201E+01  4.051024936E+02  1.250000000E+02  0.00000E+00  9.000E+00
      21     1     1     2   502   512 -5.475443626E+01  3.769350653E+01 -1.303279893E+02  1.463018575E+02  1.907348633E-06  0.00000E+00  9.000E+00
#rwgt            1           1   2.8651622089230777E-002          10        6332           0
</event>
<event>
      5   9999  3.19816E-02  3.00563E+01 -1.00000E+00  1.52983E-01
      21    -1     0     0   511   501  0.000000000E+00  0.000000000E+00  6.287231632E+02  6.287231632E+02  0.000000000E+00  0.00000E+00  9.000E+00
      21    -1     0     0   501   502  0.000000000E+00  0.000000000E+00 -2.406831858E+02  2.406831858E+02  0.000000000E+00  0.00000E+00  9.000E+00
      25     1     1     2     0     0 -2.160211589E+01 -2.705836462E+02  1.992000392E+00  2.988496763E+02  1.250000000E+02  0.00000E+00  9.000E+00
      25     1     1     2     0     0  5.135475384E+01  2.748451923E+02  1.658047331E+02  3.482720201E+02  1.250000000E+02  0.00000E+00  9.000E+00
      21     1     1     2   511   502 -2.975263794E+01 -4.261546103E+00  2.202432440E+02  2.222846526E+02  0.000000000E+00  0.00000E+00  9.000E+00
#rwgt            1           1   2.4458049221736267E-002          10        6439           0
</event>
<event>
      5   9999  3.19816E-02  9.91365E+01 -1.00000E+00  1.23998E-01
      21    -1     0     0   502   501  0.000000000E+00  0.000000000E+00  1.341487480E+03  1.341487480E+03  0.000000000E+00  0.00000E+00  9.000E+00
      21    -1     0     0   501   512  0.000000000E+00  0.000000000E+00 -6.554701626E+01  6.554701626E+01  0.000000000E+00  0.00000E+00  9.000E+00
      25     1     1     2     0     0  1.041146878E+02  1.956798280E+02  5.414609467E+02  5.982770430E+02  1.250000000E+02  0.00000E+00  9.000E+00
      25     1     1     2     0     0 -5.598250961E+00 -1.846092264E+02  6.108545166E+02  6.502923553E+02  1.250000000E+02  0.00000E+00  9.000E+00
      21     1     1     2   502   512 -9.851643685E+01 -1.107060162E+01  1.236250001E+02  1.584650977E+02  1.348699152E-06  0.00000E+00  9.000E+00
#rwgt            1           1   2.6962188358156662E-002          10        6562           0
</event>
<event>
      5   9999  3.19816E-02  1.90704E+01 -1.00000E+00  1.68093E-01
      21    -1     0     0   502   501  0.000000000E+00  0.000000000E+00  5.216766947E+02  5.216766947E+02  0.000000000E+00  0.00000E+00  9.000E+00
      -3    -1     0     0     0   502  0.000000000E+00  0.000000000E+00 -3.099702431E+03  3.099702431E+03  0.000000000E+00  0.00000E+00  9.000E+00
      25     1     1     2     0     0 -6.254764692E+02 -9.202333968E+02 -5.413241816E+02  1.243666832E+03  1.250000000E+02  0.00000E+00  9.000E+00
      25     1     1     2     0     0  6.416809041E+02  9.101786543E+02 -1.673749943E+03  2.014260022E+03  1.250000000E+02  0.00000E+00  9.000E+00
      -3     1     1     2     0   501 -1.620443491E+01  1.005474252E+01 -3.629516120E+02  3.634522722E+02  0.000000000E+00  0.00000E+00  9.000E+00
#rwgt            1           1   6.2034257703367859E-002          10        6601           0
</event>
<event>
      5   9999  3.19816E-02  1.58254E+01 -1.00000E+00  1.75220E-01
      21    -1     0     0   502   501  0.000000000E+00  0.000000000E+00  9.780239077E+01  9.780239077E+01  0.000000000E+00  0.00000E+00  9.000E+00
      21    -1     0     0   511   502  0.000000000E+00  0.000000000E+00 -8.527245365E+02  8.527245365E+02  0.000000000E+00  0.00000E+00  9.000E+00
      25     1     1     2     0     0 -2.112067672E+02 -1.400736203E+02 -3.515924509E+02  4.510777861E+02  1.250000000E+02  0.00000E+00  9.000E+00
      25     1     1     2     0     0  1.979819774E+02  1.313816946E+02 -3.350016832E+02  4.293124047E+02  1.250000000E+02  0.00000E+00  9.000E+00
      21     1     1     2   511   501  1.322478980E+01  8.691925619E+00 -6.832801160E+01  7.013673649E+01  1.348699152E-06  0.00000E+00  9.000E+00
#rwgt            1           1   2.8377684132246599E-002          10        6852           0
</event>
<event>
      5   9999  3.19816E-02  1.51716E+02 -1.00000E+00  1.16198E-01
      21    -1     0     0   502   501  0.000000000E+00  0.000000000E+00  6.111161466E+01  6.111161466E+01  0.000000000E+00  0.00000E+00  9.000E+00
       2    -1     0     0   501     0  0.000000000E+00  0.000000000E+00 -3.033232807E+03  3.033232807E+03  0.000000000E+00  0.00000E+00  9.000E+00
      25     1     1     2     0     0 -1.160366107E+02 -1.778686550E+02 -9.049003481E+02  9.378546760E+02  1.250000000E+02  0.00000E+00  9.000E+00
      25     1     1     2     0     0  1.116231784E+02  3.295208497E+02 -8.127526572E+02  8.928805106E+02  1.250000000E+02  0.00000E+00  9.000E+00
       2     1     1     2   502     0  4.413432256E+00 -1.516521947E+02 -1.254468187E+03  1.263609235E+03  1.525878906E-05  0.00000E+00  9.000E+00
#rwgt            1           1   3.3174418163062103E-002          10        7004           0
</event>
<event>
      5   9999  3.19816E-02  1.44373E+02 -1.00000E+00  1.17055E-01
      21    -1     0     0   502   501  0.000000000E+00  0.000000000E+00  1.899683022E+02  1.899683022E+02  0.000000000E+00  0.00000E+00  9.000E+00
      21    -1     0     0   501   511  0.000000000E+00  0.000000000E+00 -2.274369205E+03  2.274369205E+03  0.000000000E+00  0.00000E+00  9.000E+00
      25     1     1     2     0     0 -2.522988118E+02  1.807682542E+02 -8.594860463E+02  9.223194219E+02  1.250000000E+02  0.00000E+00  9.000E+00
      25     1     1     2     0     0  1.546380463E+02 -2.870983173E+02 -4.363449561E+01  3.519479199E+02  1.250000000E+02  0.00000E+00  9.000E+00
      21     1     1     2   502   511  9.766076545E+01  1.063300631E+02 -1.181280361E+03  1.190070165E+03  1.525878906E-05  0.00000E+00  9.000E+00
#rwgt            1           1   2.9391915178025578E-002          10        7069           0
</event>
<event>
      5   9999  3.19816E-02  2.98879E+02 -1.00000E+00  1.05645E-01
      21    -1     0     0   502   501  0.000000000E+00  0.000000000E+00  3.669885531E+02  3.669885531E+02  0.000000000E+00  0.00000E+00  9.000E+00
      21    -1     0     0   501   512  0.000000000E+00  0.000000000E+00 -2.234761558E+03  2.234761558E+03  0.000000000E+00  0.00000E+00  9.000E+00
      25     1     1     2     0     0 -3.061424486E+02  2.912351158E+02 -6.456306644E+02  7.816681178E+02  1.250000000E+02  0.00000E+00  9.000E+00
      25     1     1     2     0     0  1.859701057E+02 -5.648902314E+02 -4.924302652E+01  6.097013444E+02  1.250000000E+02  0.00000E+00  9.000E+00
      21     1     1     2   502   512  1.201723429E+02  2.736551156E+02 -1.172899314E+03  1.210380648E+03  0.000000000E+00  0.00000E+00  9.000E+00
#rwgt            2          11   1.1289025639924740E-003          10        7126           0
</event>
<event>
      5   9999  3.19816E-02  1.44482E+02 -1.00000E+00  1.17042E-01
      21    -1     0     0   502   501  0.000000000E+00  0.000000000E+00  4.030914067E+01  4.030914067E+01  0.000000000E+00  0.00000E+00  9.000E+00
       2    -1     0     0   501     0  0.000000000E+00  0.000000000E+00 -2.537333015E+03  2.537333015E+03  0.000000000E+00  0.00000E+00  9.000E+00
      25     1     1     2     0     0 -1.713202095E+02 -1.025469389E+02 -7.995453306E+02  8.335251793E+02  1.250000000E+02  0.00000E+00  9.000E+00
      25     1     1     2     0     0  2.161212699E+02 -3.481372162E+01 -9.548861219E+02  9.875995668E+02  1.250000000E+02  0.00000E+00  9.000E+00
       2     1     1     2   502     0 -4.480106040E+01  1.373606605E+02 -7.425924222E+02  7.565174099E+02  0.000000000E+00  0.00000E+00  9.000E+00
#rwgt            1           1   2.9149731061855463E-002          10        7161           0
</event>
<event>
      5   9999  3.19816E-02  1.37907E+02 -1.00000E+00  1.17859E-01
       2    -1     0     0   502     0  0.000000000E+00  0.000000000E+00  8.901887915E+02  8.901887915E+02  0.000000000E+00  0.00000E+00  9.000E+00
      21    -1     0     0   501   502  0.000000000E+00  0.000000000E+00 -1.919476131E+02  1.919476131E+02  0.000000000E+00  0.00000E+00  9.000E+00
      25     1     1     2     0     0 -1.366842962E+02  1.231304098E+02  1.732989969E+01  2.230897131E+02  1.250000000E+02  0.00000E+00  9.000E+00
      25     1     1     2     0     0  8.113251798E+01 -2.493537242E+02  1.851886115E+02  3.444990378E+02  1.250000000E+02  0.00000E+00  9.000E+00
       2     1     1     2   501     0  5.555177824E+01  1.262233144E+02  4.957226672E+02  5.145476537E+02  0.000000000E+00  0.00000E+00  9.000E+00
#rwgt            2          18   6.4178026487572649E-004          10        7341           0
</event>
<event>
      5   9999  3.19816E-02  5.49442E+01 -1.00000E+00  1.36779E-01
      21    -1     0     0   502   501  0.000000000E+00  0.000000000E+00  7.551508743E+02  7.551508743E+02  0.000000000E+00  0.00000E+00  9.000E+00
      -1    -1     0     0     0   502  0.000000000E+00  0.000000000E+00 -1.665269777E+02  1.665269777E+02  0.000000000E+00  0.00000E+00  9.000E+00
      25     1     1     2     0     0  1.215904303E+01  1.668756858E+02  5.671298537E+02  6.043646315E+02  1.250000000E+02  0.00000E+00  9.000E+00
      25     1     1     2     0     0  4.277529073E+01 -1.679164613E+02  8.797732129E+01  2.310642174E+02  1.250000000E+02  0.00000E+00  9.000E+00
      -1     1     1     2     0   501 -5.493433376E+01  1.040775473E+00 -6.648327840E+01  8.624900316E+01  1.348699152E-06  0.00000E+00  9.000E+00
#rwgt            1           1   2.8728636962053248E-002          10        7360           0
</event>
<event>
      5   9999  3.19816E-02  2.57239E+02 -1.00000E+00  1.07808E-01
       1    -1     0     0   502     0  0.000000000E+00  0.000000000E+00  2.095382068E+03  2.095382068E+03  0.000000000E+00  0.00000E+00  9.000E+00
      21    -1     0     0   501   502  0.000000000E+00  0.000000000E+00 -9.218151976E+02  9.218151976E+02  0.000000000E+00  0.00000E+00  9.000E+00
      25     1     1     2     0     0 -4.046059395E+02  8.757392867E+02 -4.812270448E+02  1.085278643E+03  1.250000000E+02  0.00000E+00  9.000E+00
      25     1     1     2     0     0  2.224345684E+02 -6.941204844E+02  1.210240221E+03  1.418304190E+03  1.250000000E+02  0.00000E+00  9.000E+00
       1     1     1     2   501     0  1.821713711E+02 -1.816188023E+02  4.445536944E+02  5.136144322E+02  5.394796609E-06  0.00000E+00  9.000E+00
#rwgt            2          17   6.7361860491065787E-004          10        7514           0
</event>
<event>
      5   9999  3.19816E-02  3.68648E+01 -1.00000E+00  1.47073E-01
       2    -1     0     0   502     0  0.000000000E+00  0.000000000E+00  1.672754183E+03  1.672754183E+03  0.000000000E+00  0.00000E+00  9.000E+00
      21    -1     0     0   501   502  0.000000000E+00  0.000000000E+00 -5.292298367E+01  5.292298367E+01  0.000000000E+00  0.00000E+00  9.000E+00
      25     1     1     2     0     0 -1.143901370E+02 -8.620455639E+01  2.645560399E+02  3.257778802E+02  1.250000000E+02  0.00000E+00  9.000E+00
      25     1     1     2     0     0  8.275967286E+01  1.051394195E+02  3.595376472E+02  4.034795915E+02  1.250000000E+02  0.00000E+00  9.000E+00
       2     1     1     2   501     0  3.163046416E+01 -1.893486312E+01  9.957375124E+02  9.964196952E+02  1.868812365E-05  0.00000E+00  9.000E+00
#rwgt            1           1   2.8501851986623340E-002          10        7548           0
</event>
<event>
      5   9999  3.19816E-02  3.35233E+01 -1.00000E+00  1.49764E-01
      21    -1     0     0   511   501  0.000000000E+00  0.000000000E+00  1.402211048E+03  1.402211048E+03  0.000000000E+00  0.00000E+00  9.000E+00
      21    -1     0     0   501   502  0.000000000E+00  0.000000000E+00 -1.933532150E+02  1.933532150E+02  0.000000000E+00  0.00000E+00  9.000E+00
      25     1     1     2     0     0 -3.764239324E+02 -1.218711395E+02  1.589317462E+02  4.443330412E+02  1.250000000E+02  0.00000E+00  9.000E+00
      25     1     1     2     0     0  3.536056639E+02  1.464300597E+02  7.663141710E+02  8.656449253E+02  1.250000000E+02  0.00000E+00  9.000E+00
      21     1     1     2   511   502  2.281826851E+01 -2.455892021E+01  2.836119154E+02  2.855862960E+02  0.000000000E+00  0.00000E+00  9.000E+00
#rwgt            1           1   2.6523809261833193E-002          10        7662           0
</event>
<event>
      5   9999  3.19816E-02  2.19707E+02 -1.00000E+00  1.10182E-01
      21    -1     0     0   502   512  0.000000000E+00  0.000000000E+00  2.765909081E+03  2.765909081E+03  0.000000000E+00  0.00000E+00  9.000E+00
      21    -1     0     0   501   502  0.000000000E+00  0.000000000E+00 -1.322149875E+03  1.322149875E+03  0.000000000E+00  0.00000E+00  9.000E+00
      25     1     1     2     0     0 -8.591583462E+01 -1.553412542E+03  4.224775017E+02  1.616967624E+03  1.250000000E+02  0.00000E+00  9.000E+00
      25     1     1     2     0     0  2.546879123E+02  1.694079252E+03  3.343900079E+02  1.749917748E+03  1.250000000E+02  0.00000E+00  9.000E+00
      21     1     1     2   501   512 -1.687720777E+02 -1.406667103E+02  6.868916958E+02  7.211735848E+02  1.078959322E-05  0.00000E+00  9.000E+00
#rwgt            1           1   2.6080558243411628E-002          10        7796           0
</event>
<event>
      5   9999  3.19816E-02  1.93914E+02 -1.00000E+00  1.12139E-01
      21    -1     0     0   502   501  0.000000000E+00  0.000000000E+00  1.230705134E+03  1.230705134E+03  0.000000000E+00  0.00000E+00  9.000E+00
      21    -1     0     0   511   502  0.000000000E+00  0.000000000E+00 -1.695372225E+03  1.695372225E+03  0.000000000E+00  0.00000E+00  9.000E+00
      25     1     1     2     0     0  6.410488864E+02 -4.975565411E+02 -1.022285587E+03  1.311182294E+03  1.250000000E+02  0.00000E+00  9.000E+00
      25     1     1     2     0     0 -6.961020983E+02  3.116215852E+02  9.214293626E+02  1.202631786E+03  1.250000000E+02  0.00000E+00  9.000E+00
      21     1     1     2   511   501  5.505321188E+01  1.859349559E+02 -3.638108668E+02  4.122632784E+02  7.629394531E-06  0.00000E+00  9.000E+00
#rwgt            1           1   2.5350933669881420E-002          10        7881           0
</event>
<event>
      5   9999  3.19816E-02  7.87225E+01 -1.00000E+00  1.28689E-01
      21    -1     0     0   502   501  0.000000000E+00  0.000000000E+00  2.566356948E+02  2.566356948E+02  0.000000000E+00  0.00000E+00  9.000E+00
      21    -1     0     0   501   512  0.000000000E+00  0.000000000E+00 -3.381622734E+03  3.381622734E+03  0.000000000E+00  0.00000E+00  9.000E+00
      25     1     1     2     0     0  2.508832729E+02 -6.416220588E+02 -4.487868333E+02  8.316585265E+02  1.250000000E+02  0.00000E+00  9.000E+00
      25     1     1     2     0     0 -2.225634543E+02  7.150742034E+02 -2.516556283E+03  2.628601554E+03  1.250000000E+02  0.00000E+00  9.000E+00
      21     1     1     2   502   512 -2.831981860E+01 -7.345214455E+01 -1.596439234E+02  1.779983481E+02  1.907348633E-06  0.00000E+00  9.000E+00
#rwgt            1           1   4.1781016758756867E-002          10        7950           0
</event>
<event>
      5   9999  3.19816E-02  2.04057E+01 -1.00000E+00  1.65653E-01
      21    -1     0     0   502   501  0.000000000E+00  0.000000000E+00  5.139013088E+02  5.139013088E+02  0.000000000E+00  0.00000E+00  9.000E+00
      21    -1     0     0   511   502  0.000000000E+00  0.000000000E+00 -3.717742222E+02  3.717742222E+02  0.000000000E+00  0.00000E+00  9.000E+00
      25     1     1     2     0     0 -2.288077903E+02  1.559941864E+02  3.699553224E+02  4.787265730E+02  1.250000000E+02  0.00000E+00  9.000E+00
      25     1     1     2     0     0  2.463622342E+02 -1.455906518E+02 -2.278150770E+02  3.865432675E+02  1.250000000E+02  0.00000E+00  9.000E+00
      21     1     1     2   511   501 -1.755444386E+01 -1.040353468E+01 -1.315874559E-02  2.040569053E+01  2.251375410E-07  0.00000E+00  9.000E+00
#rwgt            1           1   2.8591570924860570E-002          10        8077           0
</event>
<event>
      5   9999  3.19816E-02  3.19260E+01 -1.00000E+00  1.51186E-01
      21    -1     0     0   502   501  0.000000000E+00  0.000000000E+00  8.157524704E+02  8.157524704E+02  0.000000000E+00  0.00000E+00  9.000E+00
      21    -1     0     0   512   502  0.000000000E+00  0.000000000E+00 -5.384958348E+02  5.384958348E+02  0.000000000E+00  0.00000E+00  9.000E+00
      25     1     1     2     0     0  1.001831375E+02  4.985998230E+02  2.004750602E+02  5.607617090E+02  1.250000000E+02  0.00000E+00  9.000E+00
      25     1     1     2     0     0 -1.230994142E+02 -4.763710823E+02  2.854433257E+02  5.823965711E+02  1.250000000E+02  0.00000E+00  9.000E+00
      21     1     1     2   512   501  2.291627670E+01 -2.222874072E+01 -2.086617503E+02  2.110900251E+02  2.697398305E-06  0.00000E+00  9.000E+00
#rwgt            1           1   2.9295518028781921E-002          10        8301           0
</event>
<event>
      5   9999  3.19816E-02  5.30743E+01 -1.00000E+00  1.37613E-01
      21    -1     0     0   511   501  0.000000000E+00  0.000000000E+00  8.157046821E+02  8.157046821E+02  0.000000000E+00  0.00000E+00  9.000E+00
      21    -1     0     0   501   502  0.000000000E+00  0.000000000E+00 -3.362348183E+02  3.362348183E+02  0.000000000E+00  0.00000E+00  9.000E+00
      25     1     1     2     0     0 -2.924561658E+02  5.474818732E+01 -1.483842903E+02  3.552053920E+02  1.250000000E+02  0.00000E+00  9.000E+00
      25     1     1     2     0     0  2.437061623E+02 -7.573199888E+01  1.604756168E+02  3.263517317E+02  1.250000000E+02  0.00000E+00  9.000E+00
      21     1     1     2   511   502  4.875000351E+01  2.098381156E+01  4.673785373E+02  4.703823767E+02  7.629394531E-06  0.00000E+00  9.000E+00
#rwgt            1           1   2.8760563093336983E-002          10        8500           0
</event>
<event>
      5   9999  3.19816E-02  2.78926E+02 -1.00000E+00  1.06630E-01
      21    -1     0     0   502   501  0.000000000E+00  0.000000000E+00  1.261754457E+02  1.261754457E+02  0.000000000E+00  0.00000E+00  9.000E+00
       2    -1     0     0   501     0  0.000000000E+00  0.000000000E+00 -1.960415101E+03  1.960415101E+03  0.000000000E+00  0.00000E+00  9.000E+00
      25     1     1     2     0     0  1.775364134E+02 -1.971285337E+02 -4.219029440E+02  5.138150748E+02  1.250000000E+02  0.00000E+00  9.000E+00
      25     1     1     2     0     0 -2.148821147E+02 -7.928643933E+01 -1.999948420E+02  3.287607025E+02  1.250000000E+02  0.00000E+00  9.000E+00
       2     1     1     2   502     0  3.734570133E+01  2.764149731E+02 -1.212341869E+03  1.244014769E+03  2.157918644E-05  0.00000E+00  9.000E+00
#rwgt            1           1   2.7392535015746657E-002          10        8581           0
</event>
<event>
      5   9999  3.19816E-02  2.62470E+01 -1.00000E+00  1.57184E-01
      21    -1     0     0   511   501  0.000000000E+00  0.000000000E+00  6.739104869E+02  6.739104869E+02  0.000000000E+00  0.00000E+00  9.000E+00
      21    -1     0     0   501   502  0.000000000E+00  0.000000000E+00 -5.178989262E+02  5.178989262E+02  0.000000000E+00  0.00000E+00  9.000E+00
      25     1     1     2     0     0 -1.352581332E+02  5.333264186E+02  4.706972968E+01  5.661911257E+02  1.250000000E+02  0.00000E+00  9.000E+00
      25     1     1     2     0     0  1.206288792E+02 -5.115343950E+02  2.847126440E+01  5.409753937E+02  1.250000000E+02  0.00000E+00  9.000E+00
      21     1     1     2   511   502  1.462925396E+01 -2.179202363E+01  8.047056662E+01  8.464289372E+01  9.536743164E-07  0.00000E+00  9.000E+00
#rwgt            1           1   2.7081442076781481E-002          10        8657           0
</event>
<event>
      5   9999  3.19816E-02  2.15022E+02 -1.00000E+00  1.10515E-01
      -3    -1     0     0     0   501  0.000000000E+00  0.000000000E+00  6.460696009E+02  6.460696009E+02  0.000000000E+00  0.00000E+00  9.000E+00
      21    -1     0     0   501   502  0.000000000E+00  0.000000000E+00 -8.828771266E+02  8.828771266E+02  0.000000000E+00  0.00000E+00  9.000E+00
      25     1     1     2     0     0 -1.639931285E+02 -1.219159002E+02 -6.772231714E+02  7.183407665E+02  1.250000000E+02  0.00000E+00  9.000E+00
      25     1     1     2     0     0  3.682508481E+02  5.473649069E+01  9.551509672E+01  4.041694004E+02  1.250000000E+02  0.00000E+00  9.000E+00
      -3     1     1     2     0   502 -2.042577196E+02  6.717940947E+01  3.449005490E+02  4.064365606E+02  3.814697266E-06  0.00000E+00  9.000E+00
#rwgt            1           1   3.0541882728168688E-002          10        8852           0
</event>
<event>
      5   9999  3.19816E-02  6.39453E+01 -1.00000E+00  1.33242E-01
      21    -1     0     0   502   501  0.000000000E+00  0.000000000E+00  6.955808197E+02  6.955808197E+02  0.000000000E+00  0.00000E+00  9.000E+00
      21    -1     0     0   501   511  0.000000000E+00  0.000000000E+00 -4.451233387E+02  4.451233387E+02  0.000000000E+00  0.00000E+00  9.000E+00
      25     1     1     2     0     0  1.141832463E+02 -4.968689235E+02  2.512257402E+02  5.819415034E+02  1.250000000E+02  0.00000E+00  9.000E+00
      25     1     1     2     0     0 -1.577910823E+02  4.500997301E+02  1.348109022E+01  4.932489559E+02  1.250000000E+02  0.00000E+00  9.000E+00
      21     1     1     2   502   511  4.360783601E+01  4.676919334E+01 -1.424934949E+01  6.551369909E+01  1.625797951E-06  0.00000E+00  9.000E+00
#rwgt            1           1   3.1937226089364175E-002          10        8943           0
</event>
<event>
      5   9999  3.19816E-02  5.82846E+01 -1.00000E+00  1.35380E-01
       1    -1     0     0   502     0  0.000000000E+00  0.000000000E+00  1.435715655E+03  1.435715655E+03  0.000000000E+00  0.00000E+00  9.000E+00
      21    -1     0     0   501   502  0.000000000E+00  0.000000000E+00 -2.369762263E+02  2.369762263E+02  0.000000000E+00  0.00000E+00  9.000E+00
      25     1     1     2     0     0  1.215884918E+02 -1.899974567E+02  2.573001665E+02  3.642954441E+02  1.250000000E+02  0.00000E+00  9.000E+00
      25     1     1     2     0     0 -1.366684097E+02  1.336975008E+02 -1.112628373E+02  2.540820633E+02  1.250000000E+02  0.00000E+00  9.000E+00
       1     1     1     2   501     0  1.507991782E+01  5.629995582E+01  1.052702099E+03  1.054314374E+03  2.157918644E-05  0.00000E+00  9.000E+00
#rwgt            1           1   2.6262669445946799E-002          10        9126           0
</event>
<event>
      5   9999  3.19816E-02  1.93447E+02 -1.00000E+00  1.12177E-01
       1    -1     0     0   502     0  0.000000000E+00  0.000000000E+00  2.558423301E+03  2.558423301E+03  0.000000000E+00  0.00000E+00  9.000E+00
      21    -1     0     0   501   502  0.000000000E+00  0.000000000E+00 -7.376480708E+02  7.376480708E+02  0.000000000E+00  0.00000E+00  9.000E+00
      25     1     1     2     0     0 -3.999570983E+02 -6.898423815E+02  7.259488340E+02  1.085575839E+03  1.250000000E+02  0.00000E+00  9.000E+00
      25     1     1     2     0     0  3.472040834E+02  8.759572833E+02 -1.398584266E+02  9.607482590E+02  1.250000000E+02  0.00000E+00  9.000E+00
       1     1     1     2   501     0  5.275301491E+01 -1.861149018E+02  1.234684823E+03  1.249747274E+03  1.525878906E-05  0.00000E+00  9.000E+00
#rwgt            1           1   3.9930981029488645E-002          10        9183           0
</event>
<event>
      5   9999  3.19816E-02  1.39864E+02 -1.00000E+00  1.17611E-01
      21    -1     0     0   502   511  0.000000000E+00  0.000000000E+00  3.504579927E+03  3.504579927E+03  0.000000000E+00  0.00000E+00  9.000E+00
      21    -1     0     0   501   502  0.000000000E+00  0.000000000E+00 -1.586652083E+02  1.586652083E+02  0.000000000E+00  0.00000E+00  9.000E+00
      25     1     1     2     0     0 -3.298638000E+02  4.581471882E+02  8.453371475E+02  1.024172283E+03  1.250000000E+02  0.00000E+00  9.000E+00
      25     1     1     2     0     0  4.537181941E+02 -5.231238908E+02  2.066262944E+03  2.182793247E+03  1.250000000E+02  0.00000E+00  9.000E+00
      21     1     1     2   501   511 -1.238543940E+02  6.497670261E+01  4.343146270E+02  4.562796051E+02  9.344061824E-06  0.00000E+00  9.000E+00
#rwgt            1           1   6.0405408820370189E-002          10        9272           0
</event>
<event>
      5   9999  3.19816E-02  2.16994E+01 -1.00000E+00  1.63499E-01
      21    -1     0     0   502   501  0.000000000E+00  0.000000000E+00  5.757533364E+01  5.757533364E+01  0.000000000E+00  0.00000E+00  9.000E+00
      21    -1     0     0   512   502  0.000000000E+00  0.000000000E+00 -1.416293964E+03  1.416293964E+03  0.000000000E+00  0.00000E+00  9.000E+00
      25     1     1     2     0     0  1.620279674E+02 -1.609409439E+02 -8.571020558E+02  8.957700507E+02  1.250000000E+02  0.00000E+00  9.000E+00
      25     1     1     2     0     0 -1.411606209E+02  1.668922857E+02 -3.888142042E+02  4.632287139E+02  1.250000000E+02  0.00000E+00  9.000E+00
      21     1     1     2   512   501 -2.086734655E+01 -5.951341808E+00 -1.128023698E+02  1.148705326E+02  1.348699152E-06  0.00000E+00  9.000E+00
#rwgt            1           1   3.3900689359754974E-002          10        9336           0
</event>
<event>
      5   9999  3.19816E-02  6.71427E+01 -1.00000E+00  1.32144E-01
      21    -1     0     0   502   511  0.000000000E+00  0.000000000E+00  7.744890898E+02  7.744890898E+02  0.000000000E+00  0.00000E+00  9.000E+00
      21    -1     0     0   501   502  0.000000000E+00  0.000000000E+00 -7.423098567E+01  7.423098567E+01  0.000000000E+00  0.00000E+00  9.000E+00
      25     1     1     2     0     0  5.503757632E+01 -1.073600693E+02  9.671301036E+01  1.988308971E+02  1.250000000E+02  0.00000E+00  9.000E+00
      25     1     1     2     0     0 -9.411359261E+01  5.275964367E+01  3.407287284E+02  3.786317666E+02  1.250000000E+02  0.00000E+00  9.000E+00
      21     1     1     2   501   511  3.907601629E+01  5.460042561E+01  2.628163653E+02  2.712574117E+02  0.000000000E+00  0.00000E+00  9.000E+00
#rwgt            1           1   2.9023946469382424E-002          10        9472           0
</event>
<event>
      5   9999  3.19816E-02  1.20558E+01 -1.00000E+00  1.86817E-01
      21    -1     0     0   502   501  0.000000000E+00  0.000000000E+00  1.213990455E+03  1.213990455E+03  0.000000000E+00  0.00000E+00  9.000E+00
      21    -1     0     0   501   512  0.000000000E+00  0.000000000E+00 -1.103969193E+02  1.103969193E+02  0.000000000E+00  0.00000E+00  9.000E+00
      25     1     1     2     0     0  9.518550072E+01 -1.179847803E+02  3.667102485E-01  1.964836441E+02  1.250000000E+02  0.00000E+00  9.000E+00
      25     1     1     2     0     0 -8.417710752E+01  1.228997699E+02  1.097431638E+03  1.114527407E+03  1.250000000E+02  0.00000E+00  9.000E+00
      21     1     1     2   502   512 -1.100839320E+01 -4.914989636E+00  5.795187065E+00  1.337632375E+01  1.884864366E-07  0.00000E+00  9.000E+00
#rwgt            1           1   3.4919965981776643E-002          10        9537           0
</event>
<event>
      5   9999  3.19816E-02  1.78241E+01 -1.00000E+00  1.70605E-01
      21    -1     0     0   502   501  0.000000000E+00  0.000000000E+00  2.659355253E+02  2.659355253E+02  0.000000000E+00  0.00000E+00  9.000E+00
      21    -1     0     0   501   511  0.000000000E+00  0.000000000E+00 -4.830535293E+02  4.830535293E+02  0.000000000E+00  0.00000E+00  9.000E+00
      25     1     1     2     0     0  1.918612909E+02  1.788591855E+02  8.241081449E+01  3.020230216E+02  1.250000000E+02  0.00000E+00  9.000E+00
      25     1     1     2     0     0 -2.015440729E+02 -1.938239275E+02 -2.534316214E+02  3.975428467E+02  1.250000000E+02  0.00000E+00  9.000E+00
      21     1     1     2   502   511  9.682781983E+00  1.496474200E+01 -4.609719711E+01  4.942318637E+01  6.743495762E-07  0.00000E+00  9.000E+00
#rwgt            1           1   2.5596668056456561E-002          10        9798           0
</event>
<event>
      5   9999  3.19816E-02  2.51601E+02 -1.00000E+00  1.08136E-01
      21    -1     0     0   502   501  0.000000000E+00  0.000000000E+00  5.056746906E+02  5.056746906E+02  0.000000000E+00  0.00000E+00  9.000E+00
      21    -1     0     0   501   512  0.000000000E+00  0.000000000E+00 -1.562968023E+03  1.562968023E+03  0.000000000E+00  0.00000E+00  9.000E+00
      25     1     1     2     0     0  5.459813527E+02 -1.174271059E+02  1.920872554E+02  6.036615578E+02  1.250000000E+02  0.00000E+00  9.000E+00
      25     1     1     2     0     0 -3.021410996E+02  1.794350559E+02 -2.880127048E+02  4.712350809E+02  1.250000000E+02  0.00000E+00  9.000E+00
      21     1     1     2   502   512 -2.438402531E+02 -6.200795002E+01 -9.613678826E+02  9.937460745E+02  1.525878906E-05  0.00000E+00  9.000E+00
#rwgt            2          11   2.0513617201126850E-003          10        9976           0
</event>
<event>
      5   9999  3.19816E-02  4.14837E+00 -1.00000E+00  2.59798E-01
      21    -1     0     0   511   501  0.000000000E+00  0.000000000E+00  2.786272231E+02  2.786272231E+02  0.000000000E+00  0.00000E+00  9.000E+00
      21    -1     0     0   501   502  0.000000000E+00  0.000000000E+00 -2.479542464E+02  2.479542464E+02  0.000000000E+00  0.00000E+00  9.000E+00
      25     1     1     2     0     0 -1.281664088E+02  9.556707502E+01 -1.500023458E+02  2.523596598E+02  1.250000000E+02  0.00000E+00  9.000E+00
      25     1     1     2     0     0  1.294260604E+02 -9.161457131E+01  1.750342491E+02  2.672196160E+02  1.250000000E+02  0.00000E+00  9.000E+00
      21     1     1     2   511   502 -1.259651560E+00 -3.952503716E+00  5.641073311E+00  7.002193640E+00  5.960464478E-08  0.00000E+00  9.000E+00
#rwgt            1           1   2.7255021768202693E-002          10        9996           0
</event>
<event>
      5   9999  3.19816E-02  1.55320E+02 -1.00000E+00  1.15797E-01
      21    -1     0     0   502   501  0.000000000E+00  0.000000000E+00  2.185132912E+02  2.185132912E+02  0.000000000E+00  0.00000E+00  9.000E+00
      -1    -1     0     0     0   502  0.000000000E+00  0.000000000E+00 -3.982854312E+02  3.982854312E+02  0.000000000E+00  0.00000E+00  9.000E+00
      25     1     1     2     0     0 -1.838979795E+02  2.603240144E+01  7.037946162E+01  2.346794014E+02  1.250000000E+02  0.00000E+00  9.000E+00
      25     1     1     2     0     0  3.225504349E+01  7.565455762E+00 -1.463967182E+02  1.953320840E+02  1.250000000E+02  0.00000E+00  9.000E+00
      -1     1     1     2     0   501  1.516429360E+02 -3.359785720E+01 -1.037548834E+02  1.867872370E+02  2.697398305E-06  0.00000E+00  9.000E+00
#rwgt            1           1   2.2427838132169031E-002          10       10392           0
</event>
<event>
      5   9999  3.19816E-02  2.68428E+01 -1.00000E+00  1.56472E-01
      21    -1     0     0   502   501  0.000000000E+00  0.000000000E+00  9.569913672E+02  9.569913672E+02  0.000000000E+00  0.00000E+00  9.000E+00
      21    -1     0     0   511   502  0.000000000E+00  0.000000000E+00 -1.497423591E+02  1.497423591E+02  0.000000000E+00  0.00000E+00  9.000E+00
      25     1     1     2     0     0  1.919577423E+02  2.775865492E+02  2.907597622E+02  4.626751630E+02  1.250000000E+02  0.00000E+00  9.000E+00
      25     1     1     2     0     0 -2.103892728E+02 -2.580720688E+02  4.957891018E+02  6.101611854E+02  1.250000000E+02  0.00000E+00  9.000E+00
      21     1     1     2   511   501  1.843153047E+01 -1.951448043E+01  2.070014417E+01  3.389737793E+01  5.331201500E-07  0.00000E+00  9.000E+00
#rwgt            1           1   3.3732568408518841E-002          10       10456           0
</event>
<event>
      5   9999  3.19816E-02  1.79362E+02 -1.00000E+00  1.13397E-01
       1    -1     0     0   502     0  0.000000000E+00  0.000000000E+00  3.945643163E+02  3.945643163E+02  0.000000000E+00  0.00000E+00  9.000E+00
      21    -1     0     0   501   502  0.000000000E+00  0.000000000E+00 -3.347571653E+02  3.347571653E+02  0.000000000E+00  0.00000E+00  9.000E+00
      25     1     1     2     0     0 -2.111743324E+02 -4.223369523E+01 -7.069032636E+01  2.588443662E+02  1.250000000E+02  0.00000E+00  9.000E+00
      25     1     1     2     0     0  1.191669683E+02  1.961990369E+02  1.281374921E+02  2.910997171E+02  1.250000000E+02  0.00000E+00  9.000E+00
       1     1     1     2   501     0  9.200736407E+01 -1.539653417E+02  2.359985301E+00  1.793773983E+02  1.229864972E-06  0.00000E+00  9.000E+00
#rwgt            1           1   2.7158413085312298E-002          10       10649           0
</event>
<event>
      5   9999  3.19816E-02  1.15622E+02 -1.00000E+00  1.21057E-01
      21    -1     0     0   502   511  0.000000000E+00  0.000000000E+00  1.976189561E+02  1.976189561E+02  0.000000000E+00  0.00000E+00  9.000E+00
      21    -1     0     0   501   502  0.000000000E+00  0.000000000E+00 -6.856697069E+02  6.856697069E+02  0.000000000E+00  0.00000E+00  9.000E+00
      25     1     1     2     0     0 -1.265524185E+02  2.130888863E+02 -4.599406569E+02  5.372083357E+02  1.250000000E+02  0.00000E+00  9.000E+00
      25     1     1     2     0     0  2.230288400E+01 -1.630847984E+02  4.193395728E+01  2.108969579E+02  1.250000000E+02  0.00000E+00  9.000E+00
      21     1     1     2   501   511  1.042495345E+02 -5.000408788E+01 -7.004405111E+01  1.351833693E+02  1.907348633E-06  0.00000E+00  9.000E+00
#rwgt            1           1   2.7740319396695291E-002          10       10700           0
</event>
<event>
      5   9999  3.19816E-02  1.56662E+02 -1.00000E+00  1.15651E-01
      21    -1     0     0   512   501  0.000000000E+00  0.000000000E+00  5.438581709E+02  5.438581709E+02  0.000000000E+00  0.00000E+00  9.000E+00
      21    -1     0     0   501   502  0.000000000E+00  0.000000000E+00 -3.156426305E+02  3.156426305E+02  0.000000000E+00  0.00000E+00  9.000E+00
      25     1     1     2     0     0  1.874435953E+02  5.102724669E+01  2.438969914E+02  3.359309806E+02  1.250000000E+02  0.00000E+00  9.000E+00
      25     1     1     2     0     0 -3.521429010E+01 -8.802875919E+01 -2.174394841E+02  2.681306359E+02  1.250000000E+02  0.00000E+00  9.000E+00
      21     1     1     2   512   502 -1.522293052E+02  3.700151249E+01  2.017580331E+02  2.554391849E+02  2.697398305E-06  0.00000E+00  9.000E+00
#rwgt            1           1   2.8671796920305120E-002          10       10808           0
</event>
<event>
      5   9999  3.19816E-02  6.49786E+01 -1.00000E+00  1.32879E-01
      21    -1     0     0   502   501  0.000000000E+00  0.000000000E+00  2.742250958E+02  2.742250958E+02  0.000000000E+00  0.00000E+00  9.000E+00
      21    -1     0     0   501   511  0.000000000E+00  0.000000000E+00 -3.668208505E+02  3.668208505E+02  0.000000000E+00  0.00000E+00  9.000E+00
      25     1     1     2     0     0  2.926735130E+01  1.620214371E+02  1.794223648E+02  2.737241475E+02  1.250000000E+02  0.00000E+00  9.000E+00
      25     1     1     2     0     0 -6.875079125E+01 -1.104145561E+02 -2.169021661E+02  2.821162795E+02  1.250000000E+02  0.00000E+00  9.000E+00
      21     1     1     2   502   511  3.948343996E+01 -5.160688099E+01 -5.511595336E+01  8.520551925E+01  1.348699152E-06  0.00000E+00  9.000E+00
#rwgt            1           1   2.9128484123072951E-002          10       10863           0
</event>
<event>
      5   9999  3.19816E-02  1.82888E+02 -1.00000E+00  1.13081E-01
      21    -1     0     0   502   512  0.000000000E+00  0.000000000E+00  1.779388099E+02  1.779388099E+02  0.000000000E+00  0.00000E+00  9.000E+00
      21    -1     0     0   501   502  0.000000000E+00  0.000000000E+00 -1.251259586E+03  1.251259586E+03  0.000000000E+00  0.00000E+00  9.000E+00
      25     1     1     2     0     0 -8.587544741E+01 -7.244578285E+01 -7.707898165E+01  1.849030917E+02  1.250000000E+02  0.00000E+00  9.000E+00
      25     1     1     2     0     0  1.004179181E+02  2.547550892E+02 -1.016645631E+03  1.060272254E+03  1.250000000E+02  0.00000E+00  9.000E+00
      21     1     1     2   501   512 -1.454247065E+01 -1.823093063E+02  2.040383598E+01  1.840230506E+02  1.815741803E-06  0.00000E+00  9.000E+00
#rwgt            1           1   3.2333360132907552E-002          10       10923           0
</event>
<event>
      5   9999  3.19816E-02  2.57033E+01 -1.00000E+00  1.57854E-01
      21    -1     0     0   502   501  0.000000000E+00  0.000000000E+00  7.645369889E+02  7.645369889E+02  0.000000000E+00  0.00000E+00  9.000E+00
       3    -1     0     0   501     0  0.000000000E+00  0.000000000E+00 -7.672628359E+02  7.672628359E+02  0.000000000E+00  0.00000E+00  9.000E+00
      25     1     1     2     0     0  4.327108627E+02  1.439730996E+01  6.097974083E+02  7.582373326E+02  1.250000000E+02  0.00000E+00  9.000E+00
      25     1     1     2     0     0 -4.099426759E+02 -2.632488812E+01 -5.043357795E+02  6.623636281E+02  1.250000000E+02  0.00000E+00  9.000E+00
       3     1     1     2   502     0 -2.276818680E+01  1.192757816E+01 -1.081874758E+02  1.111988641E+02  1.348699152E-06  0.00000E+00  9.000E+00
#rwgt            1           1   3.2635766141809144E-002          10       10961           0
</event>
<event>
      5   9999  3.19816E-02  8.09804E+01 -1.00000E+00  1.28094E-01
      21    -1     0     0   511   501  0.000000000E+00  0.000000000E+00  5.502200667E+02  5.502200667E+02  0.000000000E+00  0.00000E+00  9.000E+00
      21    -1     0     0   501   502  0.000000000E+00  0.000000000E+00 -4.353233402E+02  4.353233402E+02  0.000000000E+00  0.00000E+00  9.000E+00
      25     1     1     2     0     0  1.225602192E+02 -3.821698591E+02 -1.317857359E+01  4.205632929E+02  1.250000000E+02  0.00000E+00  9.000E+00
      25     1     1     2     0     0 -1.963818200E+02  3.488802340E+02  7.188198712E+00  4.194757527E+02  1.250000000E+02  0.00000E+00  9.000E+00
      21     1     1     2   511   502  7.382160073E+01  3.328962504E+01  1.208871015E+02  1.455043613E+02  0.000000000E+00  0.00000E+00  9.000E+00
#rwgt            1           1   2.8211758385868650E-002          10       11186           0
</event>
<event>
      5   9999  3.19816E-02  3.36687E+01 -1.00000E+00  1.49639E-01
      21    -1     0     0   502   512  0.000000000E+00  0.000000000E+00  1.483158969E+02  1.483158969E+02  0.000000000E+00  0.00000E+00  9.000E+00
      21    -1     0     0   501   502  0.000000000E+00  0.000000000E+00 -9.905949398E+02  9.905949398E+02  0.000000000E+00  0.00000E+00  9.000E+00
      25     1     1     2     0     0 -1.154173333E+02  2.570061279E+02 -6.611201410E+02  7.294368728E+02  1.250000000E+02  0.00000E+00  9.000E+00
      25     1     1     2     0     0  1.454363139E+02 -2.722521495E+02 -1.707235387E+02  3.742251742E+02  1.250000000E+02  0.00000E+00  9.000E+00
      21     1     1     2   501   512 -3.001898058E+01  1.524602160E+01 -1.043536328E+01  3.524878972E+01  2.665600750E-07  0.00000E+00  9.000E+00
#rwgt            1           1   2.8464826547337924E-002          10       11305           0
</event>
<event>
      5   9999  3.19816E-02  2.54971E+02 -1.00000E+00  1.07939E-01
      21    -1     0     0   502   501  0.000000000E+00  0.000000000E+00  8.231276045E+02  8.231276045E+02  0.000000000E+00  0.00000E+00  9.000E+00
      21    -1     0     0   511   502  0.000000000E+00  0.000000000E+00 -2.335232092E+02  2.335232092E+02  0.000000000E+00  0.00000E+00  9.000E+00
      25     1     1     2     0     0  2.804085997E+02  2.377377362E+02  4.211329670E+02  5.728230005E+02  1.250000000E+02  0.00000E+00  9.000E+00
      25     1     1     2     0     0 -4.157432616E+01 -1.484727247E+02  6.896263239E+01  2.101271501E+02  1.250000000E+02  0.00000E+00  9.000E+00
      21     1     1     2   511   501 -2.388342736E+02 -8.926501153E+01  9.950879585E+01  2.737006631E+02  1.348699152E-06  0.00000E+00  9.000E+00
#rwgt            1           1   3.4494183122334078E-002          10       11453           0
</event>
<event>
      5   9999  3.19816E-02  1.60807E+02 -1.00000E+00  1.15209E-01
       2    -1     0     0   502     0  0.000000000E+00  0.000000000E+00  2.486251882E+03  2.486251882E+03  0.000000000E+00  0.00000E+00  9.000E+00
      21    -1     0     0   501   502  0.000000000E+00  0.000000000E+00 -3.902126487E+02  3.902126487E+02  0.000000000E+00  0.00000E+00  9.000E+00
      25     1     1     2     0     0 -8.155423712E+02  2.784350183E+02  7.937000545E+02  1.178227565E+03  1.250000000E+02  0.00000E+00  9.000E+00
      25     1     1     2     0     0  9.052519259E+02 -1.449768440E+02  1.055518909E+03  1.403653982E+03  1.250000000E+02  0.00000E+00  9.000E+00
       2     1     1     2   501     0 -8.970955473E+01 -1.334581743E+02  2.468202701E+02  2.945829836E+02  3.814697266E-06  0.00000E+00  9.000E+00
#rwgt            1           1   2.8775042933289006E-002          10       11487           0
</event>
<event>
      5   9999  3.19816E-02  2.54739E+01 -1.00000E+00  1.58143E-01
      21    -1     0     0   511   501  0.000000000E+00  0.000000000E+00  6.754181703E+02  6.754181703E+02  0.000000000E+00  0.00000E+00  9.000E+00
      21    -1     0     0   501   502  0.000000000E+00  0.000000000E+00 -1.509153848E+02  1.509153848E+02  0.000000000E+00  0.00000E+00  9.000E+00
      25     1     1     2     0     0 -1.523619776E+02  4.295301378E+01  4.234268269E+02  4.690142976E+02  1.250000000E+02  0.00000E+00  9.000E+00
      25     1     1     2     0     0  1.776094749E+02 -3.956466241E+01 -3.089473980E+01  2.229124784E+02  1.250000000E+02  0.00000E+00  9.000E+00
      21     1     1     2   511   502 -2.524749732E+01 -3.388351362E+00  1.319706984E+02  1.344067791E+02  1.907348633E-06  0.00000E+00  9.000E+00
#rwgt            1           1   2.7470909310628094E-002          10       11553           0
</event>
<event>
      5   9999  3.19816E-02  4.47226E+01 -1.00000E+00  1.41897E-01
       2    -1     0     0   502     0  0.000000000E+00  0.000000000E+00  1.118134621E+03  1.118134621E+03  0.000000000E+00  0.00000E+00  9.000E+00
      21    -1     0     0   501   502  0.000000000E+00  0.000000000E+00 -1.304436364E+02  1.304436364E+02  0.000000000E+00  0.00000E+00  9.000E+00
      25     1     1     2     0     0  1.264482070E+02  3.074359740E+01  6.254181752E+01  1.909732881E+02  1.250000000E+02  0.00000E+00  9.000E+00
      25     1     1     2     0     0 -1.419649942E+02  1.120087891E+01  7.109915743E+01  2.023848054E+02  1.250000000E+02  0.00000E+00  9.000E+00
       2     1     1     2   501     0  1.551678712E+01 -4.194447631E+01  8.540500099E+02  8.552201641E+02  0.000000000E+00  0.00000E+00  9.000E+00
#rwgt            1           1   2.9498654164438799E-002          10       11687           0
</event>
<event>
      5   9999  3.19816E-02  2.00529E+01 -1.00000E+00  1.66274E-01
      21    -1     0     0   502   501  0.000000000E+00  0.000000000E+00  1.875971913E+03  1.875971913E+03  0.000000000E+00  0.00000E+00  9.000E+00
      21    -1     0     0   511   502  0.000000000E+00  0.000000000E+00 -1.126158650E+02  1.126158650E+02  0.000000000E+00  0.00000E+00  9.000E+00
      25     1     1     2     0     0  3.058883763E+02  1.457154897E+02  1.491244109E+03  1.534351555E+03  1.250000000E+02  0.00000E+00  9.000E+00
      25     1     1     2     0     0 -2.860520479E+02 -1.427762305E+02  2.616321474E+02  4.316100169E+02  1.250000000E+02  0.00000E+00  9.000E+00
      21     1     1     2   511   501 -1.983632831E+01 -2.939259263E+00  1.047979211E+01  2.262620624E+01  0.000000000E+00  0.00000E+00  9.000E+00
#rwgt            1           1   2.7689301523731912E-002          10       11756           0
</event>
<event>
      5   9999  3.19816E-02  4.71282E+01 -1.00000E+00  1.40557E-01
      21    -1     0     0   502   501  0.000000000E+00  0.000000000E+00  7.014700706E+02  7.014700706E+02  0.000000000E+00  0.00000E+00  9.000E+00
       1    -1     0     0   501     0  0.000000000E+00  0.000000000E+00 -3.582560995E+02  3.582560995E+02  0.000000000E+00  0.00000E+00  9.000E+00
      25     1     1     2     0     0 -3.497742253E+02 -1.489080104E+02  3.086481451E+02  5.053753869E+02  1.250000000E+02  0.00000E+00  9.000E+00
      25     1     1     2     0     0  3.914567679E+02  1.708996305E+02  1.163066103E+02  4.599970787E+02  1.250000000E+02  0.00000E+00  9.000E+00
       1     1     1     2   502     0 -4.168254260E+01 -2.199162011E+01 -8.174078433E+01  9.435370441E+01  0.000000000E+00  0.00000E+00  9.000E+00
#rwgt            1           1   2.8990956897395000E-002          10       11897           0
</event>
<event>
      5   9999  3.19816E-02  1.96034E+01 -1.00000E+00  1.67090E-01
      21    -1     0     0   502   501  0.000000000E+00  0.000000000E+00  3.288718535E+01  3.288718535E+01  0.000000000E+00  0.00000E+00  9.000E+00
      21    -1     0     0   511   502  0.000000000E+00  0.000000000E+00 -1.655226821E+03  1.655226821E+03  0.000000000E+00  0.00000E+00  9.000E+00
      25     1     1     2     0     0 -2.668939124E+01 -2.606811890E+01 -1.191108273E+02  1.766472745E+02  1.250000000E+02  0.00000E+00  9.000E+00
      25     1     1     2     0     0  1.086377311E+01  3.763723460E+01 -1.416787888E+03  1.422830806E+03  1.250000000E+02  0.00000E+00  9.000E+00
      21     1     1     2   511   501  1.582561813E+01 -1.156911570E+01 -8.644092055E+01  8.863592597E+01  1.651812370E-06  0.00000E+00  9.000E+00
#rwgt            1           1   2.9360151285094661E-002          10       12035           0
</event>
<event>
      5   9999  3.19816E-02  3.79639E+01 -1.00000E+00  1.46262E-01
      21    -1     0     0   502   501  0.000000000E+00  0.000000000E+00  7.899537371E+02  7.899537371E+02  0.000000000E+00  0.00000E+00  9.000E+00
      21    -1     0     0   501   512  0.000000000E+00  0.000000000E+00 -1.295237616E+02  1.295237616E+02  0.000000000E+00  0.00000E+00  9.000E+00
      25     1     1     2     0     0 -1.754569923E+02  3.721517070E+01  6.725251162E+01  2.287313389E+02  1.250000000E+02  0.00000E+00  9.000E+00
      25     1     1     2     0     0  1.439001539E+02 -1.611019080E+01  6.169691443E+02  6.459432773E+02  1.250000000E+02  0.00000E+00  9.000E+00
      21     1     1     2   502   512  3.155683839E+01 -2.110497990E+01 -2.379168036E+01  4.480288250E+01  7.539457465E-07  0.00000E+00  9.000E+00
#rwgt            1           1   3.0475402732481966E-002          10       12185           0
</event>
<event>
      5   9999  3.19816E-02  2.33639E+01 -1.00000E+00  1.60985E-01
      21    -1     0     0   502   501  0.000000000E+00  0.000000000E+00  2.466454302E+02  2.466454302E+02  0.000000000E+00  0.00000E+00  9.000E+00
      21    -1     0     0   501   511  0.000000000E+00  0.000000000E+00 -1.766709283E+02  1.766709283E+02  0.000000000E+00  0.00000E+00  9.000E+00
      25     1     1     2     0     0 -5.626778557E+01 -8.280322127E+01 -3.650912701E+01  1.642569740E+02  1.250000000E+02  0.00000E+00  9.000E+00
      25     1     1     2     0     0  6.617316991E+01  1.039633980E+02  1.355411039E+02  2.217739106E+02  1.250000000E+02  0.00000E+00  9.000E+00
      21     1     1     2   502   511 -9.905384345E+00 -2.116017676E+01 -2.905747501E+01  3.728547403E+01  0.000000000E+00  0.00000E+00  9.000E+00
#rwgt            1           1   2.8151164155111000E-002          10       12293           0
</event>
<event>
      5   9999  3.19816E-02  5.40448E+01 -1.00000E+00  1.37175E-01
      21    -1     0     0   512   501  0.000000000E+00  0.000000000E+00  3.742525939E+02  3.742525939E+02  0.000000000E+00  0.00000E+00  9.000E+00
      21    -1     0     0   501   502  0.000000000E+00  0.000000000E+00 -5.378782294E+02  5.378782294E+02  0.000000000E+00  0.00000E+00  9.000E+00
      25     1     1     2     0     0  6.881243890E+01 -6.351413440E+01  2.780015982E+02  3.188715817E+02  1.250000000E+02  0.00000E+00  9.000E+00
      25     1     1     2     0     0 -1.224746327E+02  5.709475068E+01 -4.883038383E+02  5.218481434E+02  1.250000000E+02  0.00000E+00  9.000E+00
      21     1     1     2   512   502  5.366219377E+01  6.419383719E+00  4.667660465E+01  7.141109822E+01  1.168007728E-06  0.00000E+00  9.000E+00
#rwgt            2          11   2.9831070459077351E-003          10       12498           0
</event>
<event>
      5   9999  3.19816E-02  2.82940E+01 -1.00000E+00  1.54827E-01
      21    -1     0     0   502   501  0.000000000E+00  0.000000000E+00  7.829153652E+01  7.829153652E+01  0.000000000E+00  0.00000E+00  9.000E+00
      21    -1     0     0   501   511  0.000000000E+00  0.000000000E+00 -7.721345930E+02  7.721345930E+02  0.000000000E+00  0.00000E+00  9.000E+00
      25     1     1     2     0     0  9.075948850E-01  1.702317816E+02 -4.373489337E+02  4.856735251E+02  1.250000000E+02  0.00000E+00  9.000E+00
      25     1     1     2     0     0  2.738634581E+01 -1.702681636E+02 -1.663031185E+02  2.702276572E+02  1.250000000E+02  0.00000E+00  9.000E+00
      21     1     1     2   502   511 -2.829394070E+01  3.638192159E-02 -9.019100427E+01  9.452494727E+01  9.536743164E-07  0.00000E+00  9.000E+00
#rwgt            1           1   3.0192838151994514E-002          10       12518           0
</event>
<event>
      5   9999  3.19816E-02  4.84353E+01 -1.00000E+00  1.39868E-01
      21    -1     0     0   502   501  0.000000000E+00  0.000000000E+00  1.340258911E+02  1.340258911E+02  0.000000000E+00  0.00000E+00  9.000E+00
      21    -1     0     0   501   512  0.000000000E+00  0.000000000E+00 -3.642967511E+02  3.642967511E+02  0.000000000E+00  0.00000E+00  9.000E+00
      25     1     1     2     0     0  5.819134021E+01  1.158532014E+02 -8.147955551E+01  1.976666748E+02  1.250000000E+02  0.00000E+00  9.000E+00
      25     1     1     2     0     0 -4.909283728E+01 -1.634262827E+02 -1.089261233E+02  2.379246875E+02  1.250000000E+02  0.00000E+00  9.000E+00
      21     1     1     2   502   512 -9.098502932E+00  4.757308129E+01 -3.986518118E+01  6.273128000E+01  6.743495762E-07  0.00000E+00  9.000E+00
#rwgt            1           1   2.8454938452841819E-002          10       12636           0
</event>
<event>
      5   9999  3.19816E-02  1.14436E+01 -1.00000E+00  1.89222E-01
      21    -1     0     0   502   501  0.000000000E+00  0.000000000E+00  2.460407443E+02  2.460407443E+02  0.000000000E+00  0.00000E+00  9.000E+00
      21    -1     0     0   501   511  0.000000000E+00  0.000000000E+00 -2.064487623E+02  2.064487623E+02  0.000000000E+00  0.00000E+00  9.000E+00
      25     1     1     2     0     0 -1.540092712E+02 -5.789265516E+01 -5.536578991E+01  2.139177081E+02  1.250000000E+02  0.00000E+00  9.000E+00
      25     1     1     2     0     0  1.438075575E+02  6.307725122E+01  1.019941077E+02  2.251380715E+02  1.250000000E+02  0.00000E+00  9.000E+00
      21     1     1     2   502   511  1.020171370E+01 -5.184596060E+00 -7.036335789E+00  1.343372696E+01  8.429369702E-08  0.00000E+00  9.000E+00
#rwgt            1           1   2.5960170126845400E-002          10       12782           0
</event>
<event>
      5   9999  3.19816E-02  1.07680E+02 -1.00000E+00  1.22400E-01
      21    -1     0     0   502   501  0.000000000E+00  0.000000000E+00  7.398960565E+02  7.398960565E+02  0.000000000E+00  0.00000E+00  9.000E+00
      -4    -1     0     0     0   502  0.000000000E+00  0.000000000E+00 -5.081693230E+02  5.081693230E+02  0.000000000E+00  0.00000E+00  9.000E+00
      25     1     1     2     0     0 -5.183409753E+01  2.542675025E+02  4.710844023E+02  5.521632463E+02  1.250000000E+02  0.00000E+00  9.000E+00
      25     1     1     2     0     0 -5.104942932E+01 -2.860486610E+02  1.064271953E+02  3.337388629E+02  1.250000000E+02  0.00000E+00  9.000E+00
      -4     1     1     2     0   501  1.028835269E+02  3.178115857E+01 -3.457848641E+02  3.621632704E+02  5.394796609E-06  0.00000E+00  9.000E+00
#rwgt            1           1   2.9317677683678316E-002          10       12994           0
</event>
<event>
      5   9999  3.19816E-02  1.97558E+01 -1.00000E+00  1.66811E-01
      21    -1     0     0   502   501  0.000000000E+00  0.000000000E+00  6.888290106E+02  6.888290106E+02  0.000000000E+00  0.00000E+00  9.000E+00
      21    -1     0     0   501   511  0.000000000E+00  0.000000000E+00 -8.601980920E+02  8.601980920E+02  0.000000000E+00  0.00000E+00  9.000E+00
      25     1     1     2     0     0  2.597425155E+02 -5.307538244E+02 -2.749530337E+02  6.636188418E+02  1.250000000E+02  0.00000E+00  9.000E+00
      25     1     1     2     0     0 -2.402014237E+02  5.278494430E+02  3.159404777E+02  6.721347661E+02  1.250000000E+02  0.00000E+00  9.000E+00
      21     1     1     2   502   511 -1.954109179E+01  2.904381352E+00 -2.123565254E+02  2.132734948E+02  3.814697266E-06  0.00000E+00  9.000E+00
#rwgt            1           1   3.1460038012496312E-002          10       13093           0
</event>
<event>
      5   9999  3.19816E-02  1.39474E+02 -1.00000E+00  1.17660E-01
      21    -1     0     0   502   501  0.000000000E+00  0.000000000E+00  4.529221570E+02  4.529221570E+02  0.000000000E+00  0.00000E+00  9.000E+00
      21    -1     0     0   512   502  0.000000000E+00  0.000000000E+00 -5.423972415E+02  5.423972415E+02  0.000000000E+00  0.00000E+00  9.000E+00
      25     1     1     2     0     0 -1.939496547E+02  3.031181233E+02  1.742256837E+02  4.188993365E+02  1.250000000E+02  0.00000E+00  9.000E+00
      25     1     1     2     0     0  7.610601545E+01 -2.285132938E+02  7.493679105E+00  2.714619794E+02  1.250000000E+02  0.00000E+00  9.000E+00
      21     1     1     2   512   501  1.178436393E+02 -7.460482946E+01 -2.711944473E+02  3.049580826E+02  0.000000000E+00  0.00000E+00  9.000E+00
#rwgt            1           1   2.7072295319651912E-002          10       13314           0
</event>
<event>
      5   9999  3.19816E-02  5.69361E+01 -1.00000E+00  1.35931E-01
      21    -1     0     0   502   511  0.000000000E+00  0.000000000E+00  4.524171331E+02  4.524171331E+02  0.000000000E+00  0.00000E+00  9.000E+00
      21    -1     0     0   501   502  0.000000000E+00  0.000000000E+00 -1.143441139E+03  1.143441139E+03  0.000000000E+00  0.00000E+00  9.000E+00
      25     1     1     2     0     0  2.891826689E+02 -1.747893321E+01 -1.044545261E+03  1.091160818E+03  1.250000000E+02  0.00000E+00  9.000E+00
      25     1     1     2     0     0 -2.437194828E+02  5.175452219E+01  3.502937074E+02  4.476699658E+02  1.250000000E+02  0.00000E+00  9.000E+00
      21     1     1     2   501   511 -4.546318609E+01 -3.427558898E+01  3.227548019E+00  5.702748772E+01  2.920019320E-07  0.00000E+00  9.000E+00
#rwgt            1           1   3.0439904380496440E-002          10       13370           0
</event>
<event>
      5   9999  3.19816E-02  1.35115E+01 -1.00000E+00  1.81769E-01
      21    -1     0     0   502   501  0.000000000E+00  0.000000000E+00  5.803148870E+01  5.803148870E+01  0.000000000E+00  0.00000E+00  9.000E+00
      21    -1     0     0   501   512  0.000000000E+00  0.000000000E+00 -1.060616433E+03  1.060616433E+03  0.000000000E+00  0.00000E+00  9.000E+00
      25     1     1     2     0     0  8.964782462E+01 -1.489751257E+02 -2.425498858E+02  3.235518005E+02  1.250000000E+02  0.00000E+00  9.000E+00
      25     1     1     2     0     0 -8.092930707E+01  1.386528498E+02 -5.818534420E+02  6.164029473E+02  1.250000000E+02  0.00000E+00  9.000E+00
      21     1     1     2   502   512 -8.718517545E+00  1.032227585E+01 -1.781816169E+02  1.786931743E+02  3.303624740E-06  0.00000E+00  9.000E+00
#rwgt            1           1   2.6276558763336424E-002          10       13489           0
</event>
<event>
      5   9999  3.19816E-02  2.28210E+02 -1.00000E+00  1.09601E-01
      21    -1     0     0   502   511  0.000000000E+00  0.000000000E+00  5.662667225E+02  5.662667225E+02  0.000000000E+00  0.00000E+00  9.000E+00
      21    -1     0     0   501   502  0.000000000E+00  0.000000000E+00 -2.534055045E+02  2.534055045E+02  0.000000000E+00  0.00000E+00  9.000E+00
      25     1     1     2     0     0  2.591488621E+01 -2.641491069E+02  1.882048951E+02  3.485576201E+02  1.250000000E+02  0.00000E+00  9.000E+00
      25     1     1     2     0     0  1.948799245E+01  4.050157555E+01 -8.787159596E+01  1.592688822E+02  1.250000000E+02  0.00000E+00  9.000E+00
      21     1     1     2   501   511 -4.540287866E+01  2.236475313E+02  2.125279189E+02  3.118457247E+02  3.814697266E-06  0.00000E+00  9.000E+00
#rwgt            1           1   2.7832209760162280E-002          10       13657           0
</event>
<event>
      5   9999  3.19816E-02  1.11652E+02 -1.00000E+00  1.21713E-01
      21    -1     0     0   502   501  0.000000000E+00  0.000000000E+00  4.927688636E+02  4.927688636E+02  0.000000000E+00  0.00000E+00  9.000E+00
      21    -1     0     0   512   502  0.000000000E+00  0.000000000E+00 -1.552047378E+03  1.552047378E+03  0.000000000E+00  0.00000E+00  9.000E+00
      25     1     1     2     0     0  1.934956824E+02  7.582281259E+02 -5.469184016E+02  9.628578338E+02  1.250000000E+02  0.00000E+00  9.000E+00
      25     1     1     2     0     0 -1.034226602E+02 -6.922502752E+02 -1.829890535E+02  7.341775560E+02  1.250000000E+02  0.00000E+00  9.000E+00
      21     1     1     2   512   501 -9.007302222E+01 -6.597785078E+01 -3.293710590E+02  3.477808515E+02  3.814697266E-06  0.00000E+00  9.000E+00
#rwgt            1           1   3.0024898273912737E-002          10       13715           0
</event>
<event>
      5   9999  3.19816E-02  1.81657E+02 -1.00000E+00  1.13190E-01
      21    -1     0     0   502   501  0.000000000E+00  0.000000000E+00  4.047000482E+03  4.047000482E+03  0.000000000E+00  0.00000E+00  9.000E+00
      21    -1     0     0   501   511  0.000000000E+00  0.000000000E+00 -9.467157884E+01  9.467157884E+01  0.000000000E+00  0.00000E+00  9.000E+00
      25     1     1     2     0     0  2.518031544E+02 -3.230175434E+02  3.237119386E+03  3.265319599E+03  1.250000000E+02  0.00000E+00  9.000E+00
      25     1     1     2     0     0 -2.618643557E+02  1.416396762E+02  4.207593473E+02  5.303754963E+02  1.250000000E+02  0.00000E+00  9.000E+00
      21     1     1     2   502   511  1.006120135E+01  1.813778672E+02  2.944501702E+02  3.459769663E+02  3.814697266E-06  0.00000E+00  9.000E+00
#rwgt            1           1   1.6406182519075468E-002          10       13791           0
</event>
<event>
      5   9999  3.19816E-02  2.41865E+01 -1.00000E+00  1.59835E-01
      21    -1     0     0   502   512  0.000000000E+00  0.000000000E+00  8.211369483E+02  8.211369483E+02  0.000000000E+00  0.00000E+00  9.000E+00
      21    -1     0     0   501   502  0.000000000E+00  0.000000000E+00 -2.661788970E+02  2.661788970E+02  0.000000000E+00  0.00000E+00  9.000E+00
      25     1     1     2     0     0 -9.875333384E+01  1.063538994E+02  6.535605749E+02  6.810505105E+02  1.250000000E+02  0.00000E+00  9.000E+00
      25     1     1     2     0     0  8.676754818E+01 -1.273617011E+02 -2.119651714E+02  2.903512429E+02  1.250000000E+02  0.00000E+00  9.000E+00
      21     1     1     2   501   512  1.198578565E+01  2.100780177E+01  1.133626478E+02  1.159140919E+02  0.000000000E+00  0.00000E+00  9.000E+00
#rwgt            1           1   2.8421157063201655E-002          10       13867           0
</event>
<event>
      5   9999  3.19816E-02  1.71270E+02 -1.00000E+00  1.14156E-01
       2    -1     0     0   502     0  0.000000000E+00  0.000000000E+00  1.542123406E+03  1.542123406E+03  0.000000000E+00  0.00000E+00  9.000E+00
      21    -1     0     0   501   502  0.000000000E+00  0.000000000E+00 -2.868491279E+02  2.868491279E+02  0.000000000E+00  0.00000E+00  9.000E+00
      25     1     1     2     0     0  1.841384107E+02 -9.473640050E+00 -2.005650519E+02  2.997466333E+02  1.250000000E+02  0.00000E+00  9.000E+00
      25     1     1     2     0     0 -1.554018379E+02  1.783160644E+02  1.128618326E+03  1.159892527E+03  1.250000000E+02  0.00000E+00  9.000E+00
       2     1     1     2   501     0 -2.873657281E+01 -1.688424244E+02  3.272210039E+02  3.693333728E+02  0.000000000E+00  0.00000E+00  9.000E+00
#rwgt            1           1   2.4364399738997046E-002          10       14029           0
</event>
<event>
      5   9999  3.19816E-02  9.43757E+01 -1.00000E+00  1.24969E-01
      21    -1     0     0   502   501  0.000000000E+00  0.000000000E+00  2.676501205E+02  2.676501205E+02  0.000000000E+00  0.00000E+00  9.000E+00
      21    -1     0     0   501   511  0.000000000E+00  0.000000000E+00 -1.338242027E+03  1.338242027E+03  0.000000000E+00  0.00000E+00  9.000E+00
      25     1     1     2     0     0  5.343995353E+02  2.961487274E+01 -2.970449443E+02  6.247564349E+02  1.250000000E+02  0.00000E+00  9.000E+00
      25     1     1     2     0     0 -4.542601792E+02 -7.945910124E+01 -4.991905778E+02  6.910009350E+02  1.250000000E+02  0.00000E+00  9.000E+00
      21     1     1     2   502   511 -8.013935605E+01  4.984422849E+01 -2.743563843E+02  2.901347774E+02  3.814697266E-06  0.00000E+00  9.000E+00
#rwgt            1           1   3.1897767114094887E-002          10       14083           0
</event>
<event>
      5   9999  3.19816E-02  3.73457E+01 -1.00000E+00  1.46714E-01
      21    -1     0     0   502   501  0.000000000E+00  0.000000000E+00  8.996361530E+02  8.996361530E+02  0.000000000E+00  0.00000E+00  9.000E+00
      21    -1     0     0   501   512  0.000000000E+00  0.000000000E+00 -8.636950025E+02  8.636950025E+02  0.000000000E+00  0.00000E+00  9.000E+00
      25     1     1     2     0     0 -4.089704671E+02  5.030808127E+02  4.939048686E+02  8.245690791E+02  1.250000000E+02  0.00000E+00  9.000E+00
      25     1     1     2     0     0  3.807442602E+02 -5.275345010E+02 -2.202549905E+02  6.981375955E+02  1.250000000E+02  0.00000E+00  9.000E+00
      21     1     1     2   502   512  2.822620692E+01  2.445368835E+01 -2.377087276E+02  2.406244809E+02  0.000000000E+00  0.00000E+00  9.000E+00
#rwgt            1           1   3.1502003498757175E-002          10       14173           0
</event>
<event>
      5   9999  3.19816E-02  9.79873E+01 -1.00000E+00  1.24226E-01
      21    -1     0     0   511   501  0.000000000E+00  0.000000000E+00  6.690888032E+02  6.690888032E+02  0.000000000E+00  0.00000E+00  9.000E+00
      21    -1     0     0   501   502  0.000000000E+00  0.000000000E+00 -1.756951689E+02  1.756951689E+02  0.000000000E+00  0.00000E+00  9.000E+00
      25     1     1     2     0     0  9.094867820E+01 -1.658899847E+02 -3.702803893E+00  2.267815245E+02  1.250000000E+02  0.00000E+00  9.000E+00
      25     1     1     2     0     0 -7.116404728E+01  6.992084433E+01  6.122164932E+01  1.712493400E+02  1.250000000E+02  0.00000E+00  9.000E+00
      21     1     1     2   511   502 -1.978463093E+01  9.596914041E+01  4.358747889E+02  4.467531076E+02  5.394796609E-06  0.00000E+00  9.000E+00
#rwgt            1           1   2.6806467879853822E-002          10       14335           0
</event>
<event>
      5   9999  3.19816E-02  5.84769E+00 -1.00000E+00  2.27220E-01
      21    -1     0     0   502   501  0.000000000E+00  0.000000000E+00  2.285032803E+02  2.285032803E+02  0.000000000E+00  0.00000E+00  9.000E+00
      21    -1     0     0   512   502  0.000000000E+00  0.000000000E+00 -8.407822674E+02  8.407822674E+02  0.000000000E+00  0.00000E+00  9.000E+00
      25     1     1     2     0     0 -1.818772419E+02 -2.270039034E+01  1.158345807E+02  2.502744273E+02  1.250000000E+02  0.00000E+00  9.000E+00
      25     1     1     2     0     0  1.844524951E+02  1.745029255E+01 -2.294442172E+02  3.203074842E+02  1.250000000E+02  0.00000E+00  9.000E+00
      21     1     1     2   512   501 -2.575253133E+00  5.250097783E+00 -4.986693506E+02  4.987036362E+02  5.394796609E-06  0.00000E+00  9.000E+00
#rwgt            1           1   2.7161419161582403E-002          10       14393           0
</event>
<event>
      5   9999  3.19816E-02  1.54647E+02 -1.00000E+00  1.15871E-01
      21    -1     0     0   502   501  0.000000000E+00  0.000000000E+00  1.337323844E+03  1.337323844E+03  0.000000000E+00  0.00000E+00  9.000E+00
      21    -1     0     0   511   502  0.000000000E+00  0.000000000E+00 -1.058211864E+03  1.058211864E+03  0.000000000E+00  0.00000E+00  9.000E+00
      25     1     1     2     0     0 -2.146981575E+02 -8.577737439E+02  3.940547905E+02  9.761020810E+02  1.250000000E+02  0.00000E+00  9.000E+00
      25     1     1     2     0     0  1.089220107E+02  7.449593914E+02  4.140711401E+02  8.682789922E+02  1.250000000E+02  0.00000E+00  9.000E+00
      21     1     1     2   511   501  1.057761468E+02  1.128143525E+02 -5.290139509E+02  5.511546349E+02  0.000000000E+00  0.00000E+00  9.000E+00
#rwgt            1           1   3.0587440716564940E-002          10       14866           0
</event>
<event>
      5   9999  3.19816E-02  4.97052E+01 -1.00000E+00  1.39222E-01
      21    -1     0     0   502   512  0.000000000E+00  0.000000000E+00  5.580142768E+01  5.580142768E+01  0.000000000E+00  0.00000E+00  9.000E+00
      21    -1     0     0   501   502  0.000000000E+00  0.000000000E+00 -2.132480887E+03  2.132480887E+03  0.000000000E+00  0.00000E+00  9.000E+00
      25     1     1     2     0     0  1.013690068E+02  1.332429403E+02 -1.687715712E+03  1.700599507E+03  1.250000000E+02  0.00000E+00  9.000E+00
      25     1     1     2     0     0 -7.303218711E+01 -1.740795820E+02 -3.713885439E+02  4.349618969E+02  1.250000000E+02  0.00000E+00  9.000E+00
      21     1     1     2   501   512 -2.833681969E+01  4.083664178E+01 -1.757520264E+01  5.272091056E+01  7.152557373E-07  0.00000E+00  9.000E+00
#rwgt            1           1   8.8388220416790730E-002          10       14951           0
</event>
<event>
      5   9999  3.19816E-02  5.25072E+01 -1.00000E+00  1.37874E-01
       2    -1     0     0   502     0  0.000000000E+00  0.000000000E+00  1.336154262E+03  1.336154262E+03  0.000000000E+00  0.00000E+00  9.000E+00
      21    -1     0     0   501   502  0.000000000E+00  0.000000000E+00 -5.846583629E+01  5.846583629E+01  0.000000000E+00  0.00000E+00  9.000E+00
      25     1     1     2     0     0  1.373037563E+02  5.509820573E+01  1.478853903E+02  2.436867301E+02  1.250000000E+02  0.00000E+00  9.000E+00
      25     1     1     2     0     0 -9.061140964E+01 -3.108087874E+01  9.706448394E+02  9.833376088E+02  1.250000000E+02  0.00000E+00  9.000E+00
       2     1     1     2   501     0 -4.669234662E+01 -2.401732699E+01  1.591581965E+02  1.675957599E+02  2.697398305E-06  0.00000E+00  9.000E+00
#rwgt            1           1   2.6955957608974943E-002          10       15053           0
</event>
<event>
      5   9999  3.19816E-02  2.67354E+02 -1.00000E+00  1.07244E-01
      21    -1     0     0   502   501  0.000000000E+00  0.000000000E+00  4.052990048E+02  4.052990048E+02  0.000000000E+00  0.00000E+00  9.000E+00
      -2    -1     0     0     0   502  0.000000000E+00  0.000000000E+00 -1.587898443E+03  1.587898443E+03  0.000000000E+00  0.00000E+00  9.000E+00
      25     1     1     2     0     0  1.023338204E+02 -8.249986851E+01  2.386328502E+01  1.829559933E+02  1.250000000E+02  0.00000E+00  9.000E+00
      25     1     1     2     0     0 -1.015797516E+02 -1.848534869E+02  2.377295819E+02  3.415107782E+02  1.250000000E+02  0.00000E+00  9.000E+00
      -2     1     1     2     0   501 -7.540687988E-01  2.673533554E+02 -1.444192305E+03  1.468730676E+03  2.157918644E-05  0.00000E+00  9.000E+00
#rwgt            2           9   4.4888067229496012E-004          10       15209           0
</event>
<event>
      5   9999  3.19816E-02  1.52719E+01 -1.00000E+00  1.76652E-01
      21    -1     0     0   511   501  0.000000000E+00  0.000000000E+00  1.761716322E+03  1.761716322E+03  0.000000000E+00  0.00000E+00  9.000E+00
      21    -1     0     0   501   502  0.000000000E+00  0.000000000E+00 -3.862946209E+01  3.862946209E+01  0.000000000E+00  0.00000E+00  9.000E+00
      25     1     1     2     0     0  1.988839370E+02 -2.016675499E+01  1.055134366E+03  1.081154498E+03  1.250000000E+02  0.00000E+00  9.000E+00
      25     1     1     2     0     0 -2.140136465E+02  2.224553090E+01  6.002158818E+02  6.497544223E+02  1.250000000E+02  0.00000E+00  9.000E+00
      21     1     1     2   511   502  1.512970952E+01 -2.078775908E+00  6.773661201E+01  6.943686360E+01  9.536743164E-07  0.00000E+00  9.000E+00
#rwgt            1           1   3.0926266026872200E-002          10       15243           0
</event>
<event>
      5   9999  3.19816E-02  5.05123E+02 -1.00000E+00  9.87264E-02
      21    -1     0     0   502   501  0.000000000E+00  0.000000000E+00  1.271905842E+03  1.271905842E+03  0.000000000E+00  0.00000E+00  9.000E+00
      21    -1     0     0   501   512  0.000000000E+00  0.000000000E+00 -9.994018029E+02  9.994018029E+02  0.000000000E+00  0.00000E+00  9.000E+00
      25     1     1     2     0     0 -3.058849150E+02  2.257198118E+02  1.067064671E+03  1.139634602E+03  1.250000000E+02  0.00000E+00  9.000E+00
      25     1     1     2     0     0  7.046416259E+01  2.211881436E+02 -4.455108653E+02  5.176816823E+02  1.250000000E+02  0.00000E+00  9.000E+00
      21     1     1     2   502   512  2.354207524E+02 -4.469079554E+02 -3.490497664E+02  6.139913605E+02  6.607249480E-06  0.00000E+00  9.000E+00
#rwgt            1           1   2.4077924024804014E-002          10       15372           0
</event>
<event>
      5   9999  3.19816E-02  5.34822E+02 -1.00000E+00  9.80284E-02
      21    -1     0     0   502   501  0.000000000E+00  0.000000000E+00  7.540614454E+02  7.540614454E+02  0.000000000E+00  0.00000E+00  9.000E+00
      21    -1     0     0   511   502  0.000000000E+00  0.000000000E+00 -1.854139210E+03  1.854139210E+03  0.000000000E+00  0.00000E+00  9.000E+00
      25     1     1     2     0     0  2.274289524E+02 -2.049137824E+02  5.615322646E+02  6.516571727E+02  1.250000000E+02  0.00000E+00  9.000E+00
      25     1     1     2     0     0  2.975574154E+01 -2.640107021E+02 -1.069963635E+02  3.125064428E+02  1.250000000E+02  0.00000E+00  9.000E+00
      21     1     1     2   511   501 -2.571846940E+02  4.689244845E+02 -1.554613666E+03  1.644037040E+03  0.000000000E+00  0.00000E+00  9.000E+00
#rwgt            2          11   2.4820882583116767E-003          10       15460           0
</event>
<event>
      5   9999  3.19816E-02  9.07013E+01 -1.00000E+00  1.25765E-01
      21    -1     0     0   512   501  0.000000000E+00  0.000000000E+00  7.522013379E+02  7.522013379E+02  0.000000000E+00  0.00000E+00  9.000E+00
      21    -1     0     0   501   502  0.000000000E+00  0.000000000E+00 -3.297271788E+02  3.297271788E+02  0.000000000E+00  0.00000E+00  9.000E+00
      25     1     1     2     0     0 -2.838504323E+01 -2.795126905E+02  3.879328356E+02  4.950251910E+02  1.250000000E+02  0.00000E+00  9.000E+00
      25     1     1     2     0     0 -1.638260998E+01  2.006293713E+02 -2.158901080E+02  3.205527621E+02  1.250000000E+02  0.00000E+00  9.000E+00
      21     1     1     2   512   502  4.476765321E+01  7.888331915E+01  2.504314315E+02  2.663505635E+02  2.697398305E-06  0.00000E+00  9.000E+00
#rwgt            1           1   2.6704541337743019E-002          10       15495           0
</event>
<event>
      5   9999  3.19816E-02  9.97317E+00 -1.00000E+00  1.95892E-01
      21    -1     0     0   511   501  0.000000000E+00  0.000000000E+00  8.867216882E+02  8.867216882E+02  0.000000000E+00  0.00000E+00  9.000E+00
      21    -1     0     0   501   502  0.000000000E+00  0.000000000E+00 -4.178346062E+02  4.178346062E+02  0.000000000E+00  0.00000E+00  9.000E+00
      25     1     1     2     0     0  5.650578489E+02 -1.292675114E+02  1.901782532E+02  6.227304634E+02  1.250000000E+02  0.00000E+00  9.000E+00
      25     1     1     2     0     0 -5.554732923E+02  1.320243913E+02  2.235362675E+02  6.257591239E+02  1.250000000E+02  0.00000E+00  9.000E+00
      21     1     1     2   511   502 -9.584556585E+00 -2.756879854E+00  5.517256139E+01  5.606670707E+01  6.743495762E-07  0.00000E+00  9.000E+00
#rwgt            1           1   2.9472827429012128E-002          10       15621           0
</event>
<event>
      5   9999  3.19816E-02  8.09523E+00 -1.00000E+00  2.07001E-01
      21    -1     0     0   502   501  0.000000000E+00  0.000000000E+00  1.310624367E+02  1.310624367E+02  0.000000000E+00  0.00000E+00  9.000E+00
      21    -1     0     0   501   512  0.000000000E+00  0.000000000E+00 -5.996796285E+02  5.996796285E+02  0.000000000E+00  0.00000E+00  9.000E+00
      25     1     1     2     0     0 -1.862507977E+02  7.731836029E+01 -3.911083409E+02  4.574475082E+02  1.250000000E+02  0.00000E+00  9.000E+00
      25     1     1     2     0     0  1.781599687E+02 -7.758538371E+01 -3.946520972E+01  2.343991659E+02  1.250000000E+02  0.00000E+00  9.000E+00
      21     1     1     2   502   512  8.090828960E+00  2.670234209E-01 -3.804364116E+01  3.889539108E+01  4.768371582E-07  0.00000E+00  9.000E+00
#rwgt            1           1   2.5616106165306195E-002          10       15900           0
</event>
<event>
      5   9999  3.19816E-02  2.06570E+02 -1.00000E+00  1.11139E-01
      21    -1     0     0   502   501  0.000000000E+00  0.000000000E+00  8.531505130E+01  8.531505130E+01  0.000000000E+00  0.00000E+00  9.000E+00
       1    -1     0     0   501     0  0.000000000E+00  0.000000000E+00 -1.455965535E+03  1.455965535E+03  0.000000000E+00  0.00000E+00  9.000E+00
      25     1     1     2     0     0 -2.136104418E+02  1.112149578E+02 -4.263718670E+02  5.053871355E+02  1.250000000E+02  0.00000E+00  9.000E+00
      25     1     1     2     0     0  1.461082339E+01 -1.666252459E+02 -5.890959698E+02  6.250092082E+02  1.250000000E+02  0.00000E+00  9.000E+00
       1     1     1     2   502     0  1.989996184E+02  5.541028809E+01 -3.551826465E+02  4.108842422E+02  9.344061824E-06  0.00000E+00  9.000E+00
#rwgt            1           1   2.7862392434490311E-002          10       16105           0
</event>
<event>
      5   9999  3.19816E-02  2.48272E+01 -1.00000E+00  1.58977E-01
      21    -1     0     0   502   501  0.000000000E+00  0.000000000E+00  3.278314297E+02  3.278314297E+02  0.000000000E+00  0.00000E+00  9.000E+00
       1    -1     0     0   501     0  0.000000000E+00  0.000000000E+00 -2.360335691E+03  2.360335691E+03  0.000000000E+00  0.00000E+00  9.000E+00
      25     1     1     2     0     0  3.660224808E+02 -2.572726766E+02 -2.053461737E+03  2.105348378E+03  1.250000000E+02  0.00000E+00  9.000E+00
      25     1     1     2     0     0 -3.663199126E+02  2.324472090E+02  1.309166033E+02  4.700916298E+02  1.250000000E+02  0.00000E+00  9.000E+00
       1     1     1     2   502     0  2.974317687E-01  2.482546759E+01 -1.099591276E+02  1.127271132E+02  1.348699152E-06  0.00000E+00  9.000E+00
#rwgt            1           1   3.0865862016351227E-002          10       16136           0
</event>
<event>
      5   9999  3.19816E-02  1.08208E+01 -1.00000E+00  1.91878E-01
      21    -1     0     0   502   501  0.000000000E+00  0.000000000E+00  1.718935817E+02  1.718935817E+02  0.000000000E+00  0.00000E+00  9.000E+00
      21    -1     0     0   511   502  0.000000000E+00  0.000000000E+00 -5.668169970E+02  5.668169970E+02  0.000000000E+00  0.00000E+00  9.000E+00
      25     1     1     2     0     0 -1.848482095E+02  1.619334446E+02 -3.437302058E+02  4.406435696E+02  1.250000000E+02  0.00000E+00  9.000E+00
      25     1     1     2     0     0  1.769238369E+02 -1.693018887E+02 -3.301485685E+01  2.769118169E+02  1.250000000E+02  0.00000E+00  9.000E+00
      21     1     1     2   511   501  7.924372573E+00  7.368444039E+00 -1.817835263E+01  2.115519209E+01  0.000000000E+00  0.00000E+00  9.000E+00
#rwgt            1           1   2.7064259863906259E-002          10       16393           0
</event>
<event>
      5   9999  3.19816E-02  5.03785E+01 -1.00000E+00  1.38889E-01
      21    -1     0     0   502   501  0.000000000E+00  0.000000000E+00  1.285297411E+03  1.285297411E+03  0.000000000E+00  0.00000E+00  9.000E+00
      21    -1     0     0   501   512  0.000000000E+00  0.000000000E+00 -2.153755658E+02  2.153755658E+02  0.000000000E+00  0.00000E+00  9.000E+00
      25     1     1     2     0     0 -4.068844118E+02 -1.620021820E+02  8.101195039E+02  9.293644291E+02  1.250000000E+02  0.00000E+00  9.000E+00
      25     1     1     2     0     0  4.120665145E+02  1.118908807E+02  2.692704291E+02  5.200480224E+02  1.250000000E+02  0.00000E+00  9.000E+00
      21     1     1     2   502   512 -5.182102782E+00  5.011130135E+01 -9.468088348E+00  5.126052486E+01  7.539457465E-07  0.00000E+00  9.000E+00
#rwgt            1           1   2.8454073152692463E-002          10       16588           0
</event>
<event>
      5   9999  3.19816E-02  7.03735E+01 -1.00000E+00  1.31104E-01
      21    -1     0     0   502   501  0.000000000E+00  0.000000000E+00  4.494502639E+02  4.494502639E+02  0.000000000E+00  0.00000E+00  9.000E+00
      -1    -1     0     0     0   502  0.000000000E+00  0.000000000E+00 -2.283946008E+03  2.283946008E+03  0.000000000E+00  0.00000E+00  9.000E+00
      25     1     1     2     0     0 -3.476401553E+02 -6.454111034E+02 -2.627118010E+02  7.887025170E+02  1.250000000E+02  0.00000E+00  9.000E+00
      25     1     1     2     0     0  3.532570479E+02  5.752620827E+02 -4.503874179E+02  8.210912446E+02  1.250000000E+02  0.00000E+00  9.000E+00
      -1     1     1     2     0   501 -5.616892585E+00  7.014902067E+01 -1.121396525E+03  1.123602510E+03  0.000000000E+00  0.00000E+00  9.000E+00
#rwgt            1           1   2.3232353576158587E-002          10       16717           0
</event>
<event>
      5   9999  3.19816E-02  7.84098E+01 -1.00000E+00  1.28773E-01
      21    -1     0     0   502   501  0.000000000E+00  0.000000000E+00  1.994875453E+02  1.994875453E+02  0.000000000E+00  0.00000E+00  9.000E+00
       2    -1     0     0   501     0  0.000000000E+00  0.000000000E+00 -1.170848468E+03  1.170848468E+03  0.000000000E+00  0.00000E+00  9.000E+00
      25     1     1     2     0     0  2.910510207E+02  9.548307880E+01 -5.622813159E+01  3.355805682E+02  1.250000000E+02  0.00000E+00  9.000E+00
      25     1     1     2     0     0 -3.653363813E+02 -1.205786516E+02 -7.620774499E+02  8.627844009E+02  1.250000000E+02  0.00000E+00  9.000E+00
       2     1     1     2   502     0  7.428536067E+01  2.509557277E+01 -1.530553416E+02  1.719710446E+02  3.303624740E-06  0.00000E+00  9.000E+00
#rwgt            2          13   2.8904463932301626E-004          10       16949           0
</event>
<event>
      5   9999  3.19816E-02  9.54193E+01 -1.00000E+00  1.24751E-01
      21    -1     0     0   502   501  0.000000000E+00  0.000000000E+00  8.442590461E+02  8.442590461E+02  0.000000000E+00  0.00000E+00  9.000E+00
      21    -1     0     0   511   502  0.000000000E+00  0.000000000E+00 -3.336202017E+02  3.336202017E+02  0.000000000E+00  0.00000E+00  9.000E+00
      25     1     1     2     0     0 -8.606627987E+01  2.072976383E+02 -6.555070639E+01  2.651445087E+02  1.250000000E+02  0.00000E+00  9.000E+00
      25     1     1     2     0     0  6.835726532E+00 -1.541247642E+02  7.162480668E+02  7.432613694E+02  1.250000000E+02  0.00000E+00  9.000E+00
      21     1     1     2   511   501  7.923055334E+01 -5.317287411E+01 -1.400585160E+02  1.694733697E+02  3.814697266E-06  0.00000E+00  9.000E+00
#rwgt            1           1   2.5967213390491191E-002          10       16968           0
</event>
<event>
      5   9999  3.46824E-02  1.20861E+02 -1.00000E+00  1.20237E-01
      21    -1     0     0   502   501  0.000000000E+00  0.000000000E+00  1.170307398E+03  1.170307398E+03  0.000000000E+00  0.00000E+00  9.000E+00
      21    -1     0     0   501   512  0.000000000E+00  0.000000000E+00 -1.384406742E+03  1.384406742E+03  0.000000000E+00  0.00000E+00  9.000E+00
      25     1     1     2     0     0  4.577313004E+02 -5.574137198E+02  9.035727351E+02  1.162882920E+03  1.250000000E+02  0.00000E+00  9.000E+00
      25     1     1     2     0     0 -3.435145228E+02  5.969340551E+02 -1.016622440E+03  1.234292785E+03  1.250000000E+02  0.00000E+00  9.000E+00
      21     1     1     2   502   512 -1.142167776E+02 -3.952033526E+01 -1.010496391E+02  1.575384358E+02  3.015782986E-06  0.00000E+00  9.000E+00
#rwgt            1           1   8.0596903772688772E-002          10       17065           0
</event>
<event>
      5   9999  3.19816E-02  1.84937E+01 -1.00000E+00  1.69225E-01
      21    -1     0     0   502   501  0.000000000E+00  0.000000000E+00  4.354878561E+02  4.354878561E+02  0.000000000E+00  0.00000E+00  9.000E+00
      21    -1     0     0   501   511  0.000000000E+00  0.000000000E+00 -8.258977297E+02  8.258977297E+02  0.000000000E+00  0.00000E+00  9.000E+00
      25     1     1     2     0     0  5.858334603E+01 -4.710889872E+02 -1.160181526E+02  5.044224956E+02  1.250000000E+02  0.00000E+00  9.000E+00
      25     1     1     2     0     0 -5.765124306E+01  4.895592281E+02 -2.740164159E+01  5.092816054E+02  1.250000000E+02  0.00000E+00  9.000E+00
      21     1     1     2   502   511 -9.321029654E-01 -1.847024085E+01 -2.469900794E+02  2.476814848E+02  2.697398305E-06  0.00000E+00  9.000E+00
#rwgt            1           1   2.4035544955124312E-002          10       17174           0
</event>
<event>
      5   9999  3.19816E-02  8.08816E+01 -1.00000E+00  1.28120E-01
      21    -1     0     0   512   501  0.000000000E+00  0.000000000E+00  2.632838975E+02  2.632838975E+02  0.000000000E+00  0.00000E+00  9.000E+00
      21    -1     0     0   501   502  0.000000000E+00  0.000000000E+00 -8.086214144E+02  8.086214144E+02  0.000000000E+00  0.00000E+00  9.000E+00
      25     1     1     2     0     0  1.832548253E+02 -1.542617875E+02  4.399496524E+01  2.737509581E+02  1.250000000E+02  0.00000E+00  9.000E+00
      25     1     1     2     0     0 -2.436256396E+02  2.080873792E+02 -6.221413437E+02  7.108717614E+02  1.250000000E+02  0.00000E+00  9.000E+00
      21     1     1     2   512   502  6.037081437E+01 -5.382559163E+01  3.280886149E+01  8.728259239E+01  2.185142372E-06  0.00000E+00  9.000E+00
#rwgt            1           1   2.8642273029538787E-002          10       17371           0
</event>
<event>
      5   9999  3.19816E-02  9.06857E+01 -1.00000E+00  1.25768E-01
      21    -1     0     0   511   501  0.000000000E+00  0.000000000E+00  4.594033924E+01  4.594033924E+01  0.000000000E+00  0.00000E+00  9.000E+00
      21    -1     0     0   501   502  0.000000000E+00  0.000000000E+00 -1.593179483E+03  1.593179483E+03  0.000000000E+00  0.00000E+00  9.000E+00
      25     1     1     2     0     0  8.901408577E+01  8.098554476E+01 -3.617583242E+02  4.012184580E+02  1.250000000E+02  0.00000E+00  9.000E+00
      25     1     1     2     0     0 -1.709968595E+02 -1.197505052E+02 -1.025829979E+03  1.054292301E+03  1.250000000E+02  0.00000E+00  9.000E+00
      21     1     1     2   511   502  8.198277371E+01  3.876496045E+01 -1.596508409E+02  1.836090639E+02  2.697398305E-06  0.00000E+00  9.000E+00
#rwgt            1           1   3.8062183624499576E-002          10       17518           0
</event>
<event>
      5   9999  3.19816E-02  8.45469E+01 -1.00000E+00  1.27198E-01
      21    -1     0     0   502   501  0.000000000E+00  0.000000000E+00  1.342277575E+03  1.342277575E+03  0.000000000E+00  0.00000E+00  9.000E+00
       3    -1     0     0   501     0  0.000000000E+00  0.000000000E+00 -9.628858753E+02  9.628858753E+02  0.000000000E+00  0.00000E+00  9.000E+00
      25     1     1     2     0     0 -6.555376503E+02  1.196766082E+02  1.321439692E+02  6.907525824E+02  1.250000000E+02  0.00000E+00  9.000E+00
      25     1     1     2     0     0  6.067617522E+02 -5.061798733E+01  8.236362657E+02  1.031854497E+03  1.250000000E+02  0.00000E+00  9.000E+00
       3     1     1     2   502     0  4.877589806E+01 -6.905862091E+01 -5.763885354E+02  5.825563708E+02  7.629394531E-06  0.00000E+00  9.000E+00
#rwgt            1           1   2.1638416720364265E-002          10       17558           0
</event>
<event>
      5   9999  3.19816E-02  2.09040E+02 -1.00000E+00  1.10954E-01
      21    -1     0     0   502   511  0.000000000E+00  0.000000000E+00  1.740162935E+03  1.740162935E+03  0.000000000E+00  0.00000E+00  9.000E+00
      21    -1     0     0   501   502  0.000000000E+00  0.000000000E+00 -1.703242692E+02  1.703242692E+02  0.000000000E+00  0.00000E+00  9.000E+00
      25     1     1     2     0     0 -2.767634107E+01 -2.965479188E+02  3.761451045E+02  4.957991404E+02  1.250000000E+02  0.00000E+00  9.000E+00
      25     1     1     2     0     0  1.253366951E+02  1.117228836E+02  6.702620961E+00  2.094306926E+02  1.250000000E+02  0.00000E+00  9.000E+00
      21     1     1     2   501   511 -9.766035402E+01  1.848250352E+02  1.186990940E+03  1.205257371E+03  1.525878906E-05  0.00000E+00  9.000E+00
#rwgt            1           1   2.9767526791658852E-002          10       17705           0
</event>
<event>
      5   9999  3.19816E-02  7.54003E+00 -1.00000E+00  2.11091E-01
      21    -1     0     0   502   501  0.000000000E+00  0.000000000E+00  5.460811693E+02  5.460811693E+02  0.000000000E+00  0.00000E+00  9.000E+00
      21    -1     0     0   512   502  0.000000000E+00  0.000000000E+00 -2.550248293E+02  2.550248293E+02  0.000000000E+00  0.00000E+00  9.000E+00
      25     1     1     2     0     0 -1.732727896E+02 -1.334806858E+02  4.362233493E+02  5.037423584E+02  1.250000000E+02  0.00000E+00  9.000E+00
      25     1     1     2     0     0  1.682215229E+02  1.390786099E+02 -1.377074815E+02  2.867571986E+02  1.250000000E+02  0.00000E+00  9.000E+00
      21     1     1     2   512   501  5.051266736E+00 -5.597924096E+00 -7.459527816E+00  1.060644168E+01  2.064765462E-07  0.00000E+00  9.000E+00
#rwgt            1           1   2.6293526319130320E-002          10       17745           0
</event>
<event>
      5   9999  3.19816E-02  1.99536E+02 -1.00000E+00  1.11685E-01
      21    -1     0     0   502   511  0.000000000E+00  0.000000000E+00  1.858482663E+03  1.858482663E+03  0.000000000E+00  0.00000E+00  9.000E+00
      21    -1     0     0   501   502  0.000000000E+00  0.000000000E+00 -8.214910153E+02  8.214910153E+02  0.000000000E+00  0.00000E+00  9.000E+00
      25     1     1     2     0     0 -1.104195577E+02 -1.613347363E+02 -3.282211625E+02  4.019645599E+02  1.250000000E+02  0.00000E+00  9.000E+00
      25     1     1     2     0     0  2.858378086E+02  2.564288916E+02 -3.601765276E+02  5.411202826E+02  1.250000000E+02  0.00000E+00  9.000E+00
      21     1     1     2   501   511 -1.754182508E+02 -9.509415528E+01  1.725389338E+03  1.736888836E+03  2.157918644E-05  0.00000E+00  9.000E+00
#rwgt            2          11   8.4856159770397652E-003          10       17970           0
</event>
<event>
      5   9999  3.19816E-02  4.94042E+01 -1.00000E+00  1.39373E-01
      21    -1     0     0   502   501  0.000000000E+00  0.000000000E+00  2.919977770E+03  2.919977770E+03  0.000000000E+00  0.00000E+00  9.000E+00
      21    -1     0     0   501   512  0.000000000E+00  0.000000000E+00 -2.444758853E+02  2.444758853E+02  0.000000000E+00  0.00000E+00  9.000E+00
      25     1     1     2     0     0  4.142189742E+02  3.764404019E+02  2.650749947E+02  6.318025702E+02  1.250000000E+02  0.00000E+00  9.000E+00
      25     1     1     2     0     0 -4.634598124E+02 -3.804545629E+02  2.406348905E+03  2.483078880E+03  1.250000000E+02  0.00000E+00  9.000E+00
      21     1     1     2   502   512  4.924083817E+01  4.014160967E+00  4.077985841E+00  4.957220593E+01  1.169527583E-06  0.00000E+00  9.000E+00
#rwgt            1           1   3.0806777392503273E-002          10       17990           0
</event>
<event>
      5   9999  3.19816E-02  1.56094E+02 -1.00000E+00  1.15712E-01
      21    -1     0     0   502   511  0.000000000E+00  0.000000000E+00  5.799040159E+02  5.799040159E+02  0.000000000E+00  0.00000E+00  9.000E+00
      21    -1     0     0   501   502  0.000000000E+00  0.000000000E+00 -1.672104998E+03  1.672104998E+03  0.000000000E+00  0.00000E+00  9.000E+00
      25     1     1     2     0     0  2.493704804E+02 -2.699347158E+02 -1.303402397E+03  1.359975440E+03  1.250000000E+02  0.00000E+00  9.000E+00
      25     1     1     2     0     0 -2.326296316E+02  4.251286184E+02 -1.297741209E+02  5.170272818E+02  1.250000000E+02  0.00000E+00  9.000E+00
      21     1     1     2   501   511 -1.674084876E+01 -1.551939026E+02  3.409755360E+02  3.750062927E+02  7.629394531E-06  0.00000E+00  9.000E+00
#rwgt            1           1   3.1793518126457830E-002          10       18095           0
</event>
<event>
      5   9999  3.19816E-02  2.28614E+01 -1.00000E+00  1.61716E-01
      21    -1     0     0   502   501  0.000000000E+00  0.000000000E+00  3.508435742E+01  3.508435742E+01  0.000000000E+00  0.00000E+00  9.000E+00
       2    -1     0     0   501     0  0.000000000E+00  0.000000000E+00 -3.095102088E+03  3.095102088E+03  0.000000000E+00  0.00000E+00  9.000E+00
      25     1     1     2     0     0 -2.650613616E+02  4.550326462E+01 -1.524362992E+03  1.552944172E+03  1.250000000E+02  0.00000E+00  9.000E+00
      25     1     1     2     0     0  2.512549857E+02 -6.372493408E+01 -9.866369399E+02  1.027748698E+03  1.250000000E+02  0.00000E+00  9.000E+00
       2     1     1     2   502     0  1.380637593E+01  1.822166946E+01 -5.490177986E+02  5.494935745E+02  1.078959322E-05  0.00000E+00  9.000E+00
#rwgt            1           1   5.4401269159620139E-002          10       18180           0
</event>
<event>
      5   9999  3.19816E-02  2.01198E+02 -1.00000E+00  1.11554E-01
      21    -1     0     0   502   501  0.000000000E+00  0.000000000E+00  1.323935685E+03  1.323935685E+03  0.000000000E+00  0.00000E+00  9.000E+00
      21    -1     0     0   511   502  0.000000000E+00  0.000000000E+00 -1.747957174E+02  1.747957174E+02  0.000000000E+00  0.00000E+00  9.000E+00
      25     1     1     2     0     0  1.109642575E+01  8.555890128E+01  9.726314914E+02  9.844188511E+02  1.250000000E+02  0.00000E+00  9.000E+00
      25     1     1     2     0     0  1.523883591E+02  3.171562726E+01  2.315455782E+02  3.057228284E+02  1.250000000E+02  0.00000E+00  9.000E+00
      21     1     1     2   511   501 -1.634847849E+02 -1.172745285E+02 -5.503710196E+01  2.085897230E+02  3.504023184E-06  0.00000E+00  9.000E+00
#rwgt            2          11   7.1974307796544212E-003          10       18364           0
</event>
<event>
      5   9999  3.19816E-02  1.46719E+01 -1.00000E+00  1.78293E-01
      21    -1     0     0   502   501  0.000000000E+00  0.000000000E+00  9.561434019E+01  9.561434019E+01  0.000000000E+00  0.00000E+00  9.000E+00
      21    -1     0     0   501   512  0.000000000E+00  0.000000000E+00 -6.913140691E+02  6.913140691E+02  0.000000000E+00  0.00000E+00  9.000E+00
      25     1     1     2     0     0 -1.853669833E+02 -4.047848612E+01 -1.514614720E+02  2.730659331E+02  1.250000000E+02  0.00000E+00  9.000E+00
      25     1     1     2     0     0  1.909025971E+02  5.406604799E+01 -3.690246806E+02  4.372312363E+02  1.250000000E+02  0.00000E+00  9.000E+00
      21     1     1     2   502   512 -5.535613834E+00 -1.358756188E+01 -7.521357634E+01  7.663123987E+01  1.348699152E-06  0.00000E+00  9.000E+00
#rwgt            1           1   3.0487826147531399E-002          10       18399           0
</event>
<event>
      5   9999  3.19816E-02  3.34950E+01 -1.00000E+00  1.49788E-01
      21    -1     0     0   502   511  0.000000000E+00  0.000000000E+00  1.734497866E+03  1.734497866E+03  0.000000000E+00  0.00000E+00  9.000E+00
      21    -1     0     0   501   502  0.000000000E+00  0.000000000E+00 -5.632432207E+01  5.632432207E+01  0.000000000E+00  0.00000E+00  9.000E+00
      25     1     1     2     0     0  6.365366455E+01  4.631016837E+01  1.283643842E+03  1.292115682E+03  1.250000000E+02  0.00000E+00  9.000E+00
      25     1     1     2     0     0 -7.850260123E+01 -7.633388806E+01  8.367753204E+01  1.860549656E+02  1.250000000E+02  0.00000E+00  9.000E+00
      21     1     1     2   501   511  1.484893668E+01  3.002371969E+01  3.108521696E+02  3.126515409E+02  3.814697266E-06  0.00000E+00  9.000E+00
#rwgt            1           1   3.1010573764138818E-002          10       18585           0
</event>
<event>
      5   9999  3.19816E-02  1.08182E+02 -1.00000E+00  1.22311E-01
      21    -1     0     0   502   501  0.000000000E+00  0.000000000E+00  7.308100988E+02  7.308100988E+02  0.000000000E+00  0.00000E+00  9.000E+00
      21    -1     0     0   501   512  0.000000000E+00  0.000000000E+00 -3.501426609E+02  3.501426609E+02  0.000000000E+00  0.00000E+00  9.000E+00
      25     1     1     2     0     0  1.394727376E+02  2.345983455E+02  3.303661380E+02  4.463807941E+02  1.250000000E+02  0.00000E+00  9.000E+00
      25     1     1     2     0     0 -2.010181934E+02 -3.235674010E+02  2.014661488E+02  4.486845063E+02  1.250000000E+02  0.00000E+00  9.000E+00
      21     1     1     2   502   512  6.154545585E+01  8.896905552E+01 -1.511648488E+02  1.858874592E+02  3.303624740E-06  0.00000E+00  9.000E+00
#rwgt            1           1   2.8712543444897657E-002          10       18706           0
</event>
<event>
      5   9999  3.19816E-02  1.67845E+02 -1.00000E+00  1.14491E-01
      21    -1     0     0   502   501  0.000000000E+00  0.000000000E+00  4.517183248E+02  4.517183248E+02  0.000000000E+00  0.00000E+00  9.000E+00
       2    -1     0     0   501     0  0.000000000E+00  0.000000000E+00 -1.702137555E+03  1.702137555E+03  0.000000000E+00  0.00000E+00  9.000E+00
      25     1     1     2     0     0 -2.322382225E+02  2.283955795E+02  1.070254658E+02  3.649364096E+02  1.250000000E+02  0.00000E+00  9.000E+00
      25     1     1     2     0     0  1.941240940E+02 -3.918559231E+02 -3.532541885E+01  4.561886820E+02  1.250000000E+02  0.00000E+00  9.000E+00
       2     1     1     2   502     0  3.811412858E+01  1.634603436E+02 -1.322119277E+03  1.332730789E+03  2.157918644E-05  0.00000E+00  9.000E+00
#rwgt            2          13   2.3956154219207933E-003          10       18849           0
</event>
<event>
      5   9999  3.19816E-02  1.96112E+01 -1.00000E+00  1.67076E-01
      21    -1     0     0   502   511  0.000000000E+00  0.000000000E+00  5.396461841E+02  5.396461841E+02  0.000000000E+00  0.00000E+00  9.000E+00
      21    -1     0     0   501   502  0.000000000E+00  0.000000000E+00 -2.050196329E+02  2.050196329E+02  0.000000000E+00  0.00000E+00  9.000E+00
      25     1     1     2     0     0  2.101090708E+02 -1.438054706E+02  3.099621081E+01  2.853271808E+02  1.250000000E+02  0.00000E+00  9.000E+00
      25     1     1     2     0     0 -2.296627164E+02  1.423045909E+02  2.115774005E+02  3.652198739E+02  1.250000000E+02  0.00000E+00  9.000E+00
      21     1     1     2   501   511  1.955364557E+01  1.500879657E+00  9.205293984E+01  9.411876236E+01  0.000000000E+00  0.00000E+00  9.000E+00
#rwgt            1           1   2.6977618010637014E-002          10       18883           0
</event>
<event>
      5   9999  3.19816E-02  3.51171E+01 -1.00000E+00  1.48436E-01
      21    -1     0     0   502   501  0.000000000E+00  0.000000000E+00  1.476159862E+02  1.476159862E+02  0.000000000E+00  0.00000E+00  9.000E+00
      21    -1     0     0   512   502  0.000000000E+00  0.000000000E+00 -8.603040811E+02  8.603040811E+02  0.000000000E+00  0.00000E+00  9.000E+00
      25     1     1     2     0     0 -1.943300328E+02  5.971137908E+01 -2.385896417E+02  3.374605571E+02  1.250000000E+02  0.00000E+00  9.000E+00
      25     1     1     2     0     0  1.595331422E+02 -5.498010602E+01 -1.555363692E+01  2.105719619E+02  1.250000000E+02  0.00000E+00  9.000E+00
      21     1     1     2   512   501  3.479689064E+01 -4.731273067E+00 -4.585448163E+02  4.598875483E+02  7.629394531E-06  0.00000E+00  9.000E+00
#rwgt            1           1   2.9268770414734264E-002          10       19043           0
</event>
<event>
      5   9999  3.19816E-02  4.99581E+01 -1.00000E+00  1.39096E-01
       2    -1     0     0   502     0  0.000000000E+00  0.000000000E+00  6.235954811E+02  6.235954811E+02  0.000000000E+00  0.00000E+00  9.000E+00
      21    -1     0     0   501   502  0.000000000E+00  0.000000000E+00 -2.827779635E+02  2.827779635E+02  0.000000000E+00  0.00000E+00  9.000E+00
      25     1     1     2     0     0  1.715006976E+02 -1.992779732E+02 -7.568797975E+01  3.007953958E+02  1.250000000E+02  0.00000E+00  9.000E+00
      25     1     1     2     0     0 -2.179214254E+02  2.177420832E+02  2.102515012E+02  3.933599575E+02  1.250000000E+02  0.00000E+00  9.000E+00
       2     1     1     2   501     0  4.642072779E+01 -1.846411000E+01  2.062539961E+02  2.122180912E+02  2.697398305E-06  0.00000E+00  9.000E+00
#rwgt            1           1   2.7550218907170406E-002          10       19145           0
</event>
<event>
      5   9999  3.19816E-02  4.61376E+01 -1.00000E+00  1.41097E-01
      21    -1     0     0   502   511  0.000000000E+00  0.000000000E+00  9.973198280E+02  9.973198280E+02  0.000000000E+00  0.00000E+00  9.000E+00
      21    -1     0     0   501   502  0.000000000E+00  0.000000000E+00 -8.481433789E+02  8.481433789E+02  0.000000000E+00  0.00000E+00  9.000E+00
      25     1     1     2     0     0 -1.310983668E+02  7.614309108E+01  9.341798572E+02  9.546211593E+02  1.250000000E+02  0.00000E+00  9.000E+00
      25     1     1     2     0     0  1.771863406E+02 -7.828312586E+01 -8.073193770E+02  8.395908668E+02  1.250000000E+02  0.00000E+00  9.000E+00
      21     1     1     2   501   511 -4.608797374E+01  2.140034784E+00  2.231596884E+01  5.125118084E+01  1.039242493E-06  0.00000E+00  9.000E+00
#rwgt            1           1   3.2191653630102728E-002          10       19258           0
</event>
<event>
      5   9999  3.19816E-02  4.81313E+02 -1.00000E+00  9.93242E-02
      21    -1     0     0   502   501  0.000000000E+00  0.000000000E+00  4.568625087E+02  4.568625087E+02  0.000000000E+00  0.00000E+00  9.000E+00
      21    -1     0     0   512   502  0.000000000E+00  0.000000000E+00 -1.502702686E+03  1.502702686E+03  0.000000000E+00  0.00000E+00  9.000E+00
      25     1     1     2     0     0  2.584450751E+02  2.013859510E+02  1.993103243E+01  3.512440806E+02  1.250000000E+02  0.00000E+00  9.000E+00
      25     1     1     2     0     0 -7.102735463E+02 -3.551464542E+01 -6.733808831E+02  9.873280176E+02  1.250000000E+02  0.00000E+00  9.000E+00
      21     1     1     2   512   501  4.518284712E+02 -1.658713056E+02 -3.923903265E+02  6.209930964E+02  9.344061824E-06  0.00000E+00  9.000E+00
#rwgt            2          11   2.1882739512484243E-003          10       19429           0
</event>
<event>
      5   9999  3.19816E-02  2.80273E+01 -1.00000E+00  1.55120E-01
      21    -1     0     0   502   501  0.000000000E+00  0.000000000E+00  2.042760550E+02  2.042760550E+02  0.000000000E+00  0.00000E+00  9.000E+00
      21    -1     0     0   511   502  0.000000000E+00  0.000000000E+00 -1.202106853E+03  1.202106853E+03  0.000000000E+00  0.00000E+00  9.000E+00
      25     1     1     2     0     0  2.326546428E+02 -3.919397719E+02 -5.447121453E+02  7.211666165E+02  1.250000000E+02  0.00000E+00  9.000E+00
      25     1     1     2     0     0 -2.059540694E+02  4.004609476E+02 -3.657167031E+02  5.934304982E+02  1.250000000E+02  0.00000E+00  9.000E+00
      21     1     1     2   511   501 -2.670057342E+01 -8.521175735E+00 -8.740194949E+01  9.178579319E+01  1.348699152E-06  0.00000E+00  9.000E+00
#rwgt            1           1   2.7979422339661494E-002          10       19494           0
</event>
<event>
      5   9999  3.19816E-02  7.79624E+01 -1.00000E+00  1.28894E-01
      21    -1     0     0   512   501  0.000000000E+00  0.000000000E+00  5.775823590E+02  5.775823590E+02  0.000000000E+00  0.00000E+00  9.000E+00
      21    -1     0     0   501   502  0.000000000E+00  0.000000000E+00 -1.422351629E+03  1.422351629E+03  0.000000000E+00  0.00000E+00  9.000E+00
      25     1     1     2     0     0  2.800670800E+02 -6.296469064E+02 -8.991387977E+02  1.139722937E+03  1.250000000E+02  0.00000E+00  9.000E+00
      25     1     1     2     0     0 -3.415145168E+02  6.776296613E+02  9.036229991E+01  7.743413125E+02  1.250000000E+02  0.00000E+00  9.000E+00
      21     1     1     2   512   502  6.144743682E+01 -4.798275487E+01 -3.599277183E+01  8.586973786E+01  1.261592536E-06  0.00000E+00  9.000E+00
#rwgt            1           1   3.0457654399988016E-002          10       19600           0
</event>
<event>
      5   9999  3.19816E-02  4.91554E+01 -1.00000E+00  1.39499E-01
      21    -1     0     0   502   501  0.000000000E+00  0.000000000E+00  3.881601510E+02  3.881601510E+02  0.000000000E+00  0.00000E+00  9.000E+00
      21    -1     0     0   501   511  0.000000000E+00  0.000000000E+00 -7.425594214E+01  7.425594214E+01  0.000000000E+00  0.00000E+00  9.000E+00
      25     1     1     2     0     0 -2.254072662E+01  3.035986240E+01  2.382053191E+02  2.716552588E+02  1.250000000E+02  0.00000E+00  9.000E+00
      25     1     1     2     0     0  4.583111016E-01  1.355615205E+01  5.019270394E+01  1.353820034E+02  1.250000000E+02  0.00000E+00  9.000E+00
      21     1     1     2   502   511  2.208241551E+01 -4.391601445E+01  2.550618578E+01  5.537883091E+01  8.259061849E-07  0.00000E+00  9.000E+00
#rwgt            1           1   2.0666770495764632E-002          10       19722           0
</event>
<event>
      5   9999  3.19816E-02  9.97820E+01 -1.00000E+00  1.23871E-01
      -2    -1     0     0     0   501  0.000000000E+00  0.000000000E+00  6.071528535E+02  6.071528535E+02  0.000000000E+00  0.00000E+00  9.000E+00
      21    -1     0     0   501   502  0.000000000E+00  0.000000000E+00 -1.141682860E+03  1.141682860E+03  0.000000000E+00  0.00000E+00  9.000E+00
      25     1     1     2     0     0  1.681006067E+02 -6.605682298E+01  3.101601737E+02  3.800600626E+02  1.250000000E+02  0.00000E+00  9.000E+00
      25     1     1     2     0     0 -1.508409631E+02  1.643347105E+02 -1.081755939E+03  1.111566374E+03  1.250000000E+02  0.00000E+00  9.000E+00
      -2     1     1     2     0   502 -1.725964355E+01 -9.827788755E+01  2.370657582E+02  2.572092770E+02  3.814697266E-06  0.00000E+00  9.000E+00
#rwgt            1           1   3.3988515594325974E-002          10       19799           0
</event>
<event>
      5   9999  3.19816E-02  2.77222E+01 -1.00000E+00  1.55460E-01
      21    -1     0     0   502   511  0.000000000E+00  0.000000000E+00  2.873688296E+02  2.873688296E+02  0.000000000E+00  0.00000E+00  9.000E+00
      21    -1     0     0   501   502  0.000000000E+00  0.000000000E+00 -1.478182156E+03  1.478182156E+03  0.000000000E+00  0.00000E+00  9.000E+00
      25     1     1     2     0     0 -3.244866098E+02  3.016458901E+02 -4.584462515E+02  6.496766646E+02  1.250000000E+02  0.00000E+00  9.000E+00
      25     1     1     2     0     0  3.107429115E+02 -3.257214594E+02 -8.635282362E+02  9.818154821E+02  1.250000000E+02  0.00000E+00  9.000E+00
      21     1     1     2   501   511  1.374369825E+01  2.407556929E+01  1.311611609E+02  1.340588394E+02  3.303624740E-06  0.00000E+00  9.000E+00
#rwgt            1           1   2.8525511093118339E-002          10       19944           0
</event>
<event>
      5   9999  3.40650E-02  9.87716E+00 -1.00000E+00  1.96380E-01
      21    -1     0     0   502   501  0.000000000E+00  0.000000000E+00  1.978347742E+01  1.978347742E+01  0.000000000E+00  0.00000E+00  9.000E+00
      21    -1     0     0   512   502  0.000000000E+00  0.000000000E+00 -1.717754439E+03  1.717754439E+03  0.000000000E+00  0.00000E+00  9.000E+00
      25     1     1     2     0     0 -9.852544023E+01 -6.340915899E+01 -6.521464396E+02  6.742758801E+02  1.250000000E+02  0.00000E+00  9.000E+00
      25     1     1     2     0     0  1.029955565E+02  5.460141722E+01 -8.406610562E+02  8.578609507E+02  1.250000000E+02  0.00000E+00  9.000E+00
      21     1     1     2   512   501 -4.470116220E+00  8.807741771E+00 -2.051634662E+02  2.054010859E+02  3.814697266E-06  0.00000E+00  9.000E+00
#rwgt            1           1   3.4560621708523406E-002          10       20117           0
</event>
<event>
      5   9999  3.19816E-02  6.27330E+01 -1.00000E+00  1.33678E-01
      21    -1     0     0   502   501  0.000000000E+00  0.000000000E+00  8.579776217E+02  8.579776217E+02  0.000000000E+00  0.00000E+00  9.000E+00
      21    -1     0     0   511   502  0.000000000E+00  0.000000000E+00 -2.645333989E+02  2.645333989E+02  0.000000000E+00  0.00000E+00  9.000E+00
      25     1     1     2     0     0  3.258171975E+02 -1.055385193E+01  2.154719434E+02  4.102698970E+02  1.250000000E+02  0.00000E+00  9.000E+00
      25     1     1     2     0     0 -3.787273414E+02 -2.314995435E+01  4.598170271E+02  6.091198716E+02  1.250000000E+02  0.00000E+00  9.000E+00
      21     1     1     2   511   501  5.291014391E+01  3.370380628E+01 -8.184474779E+01  1.031212521E+02  2.132480600E-06  0.00000E+00  9.000E+00
#rwgt            1           1   2.5874097676431482E-002          10       20297           0
</event>
<event>
      5   9999  3.19816E-02  6.22031E+01 -1.00000E+00  1.33872E-01
      21    -1     0     0   512   501  0.000000000E+00  0.000000000E+00  6.124990409E+02  6.124990409E+02  0.000000000E+00  0.00000E+00  9.000E+00
      21    -1     0     0   501   502  0.000000000E+00  0.000000000E+00 -2.092997842E+03  2.092997842E+03  0.000000000E+00  0.00000E+00  9.000E+00
      25     1     1     2     0     0  2.018958612E+02  7.803178032E+02  1.652117671E+02  8.322125574E+02  1.250000000E+02  0.00000E+00  9.000E+00
      25     1     1     2     0     0 -2.483022796E+02 -7.388972076E+02 -1.626852166E+03  1.808285397E+03  1.250000000E+02  0.00000E+00  9.000E+00
      21     1     1     2   512   502  4.640641846E+01 -4.142059561E+01 -1.885840218E+01  6.499892882E+01  8.920806376E-07  0.00000E+00  9.000E+00
#rwgt            1           1   2.8619456047136258E-002          10       20421           0
</event>
<event>
      5   9999  3.19816E-02  2.91839E+01 -1.00000E+00  1.53876E-01
      21    -1     0     0   511   501  0.000000000E+00  0.000000000E+00  1.975620987E+02  1.975620987E+02  0.000000000E+00  0.00000E+00  9.000E+00
      21    -1     0     0   501   502  0.000000000E+00  0.000000000E+00 -8.440661992E+02  8.440661992E+02  0.000000000E+00  0.00000E+00  9.000E+00
      25     1     1     2     0     0  6.376071864E+01  1.785265983E+02 -7.166157837E+02  7.517315724E+02  1.250000000E+02  0.00000E+00  9.000E+00
      25     1     1     2     0     0 -7.191882088E+01 -2.065470888E+02  5.948916998E+01  2.588396763E+02  1.250000000E+02  0.00000E+00  9.000E+00
      21     1     1     2   511   502  8.158102233E+00  2.802049050E+01  1.062251314E+01  3.105704921E+01  6.637292341E-07  0.00000E+00  9.000E+00
#rwgt            1           1   2.6694207725863874E-002          10       20560           0
</event>
<event>
      5   9999  3.19816E-02  1.99798E+01 -1.00000E+00  1.66405E-01
      21    -1     0     0   502   512  0.000000000E+00  0.000000000E+00  4.454398088E+02  4.454398088E+02  0.000000000E+00  0.00000E+00  9.000E+00
      21    -1     0     0   501   502  0.000000000E+00  0.000000000E+00 -8.621685603E+02  8.621685603E+02  0.000000000E+00  0.00000E+00  9.000E+00
      25     1     1     2     0     0  3.381415335E+02 -1.426969317E+02 -7.156988259E+02  8.139729236E+02  1.250000000E+02  0.00000E+00  9.000E+00
      25     1     1     2     0     0 -3.256650669E+02  1.270914697E+02  2.924720647E+02  4.726255242E+02  1.250000000E+02  0.00000E+00  9.000E+00
      21     1     1     2   501   512 -1.247646660E+01  1.560546201E+01  6.498009774E+00  2.100992133E+01  2.665600750E-07  0.00000E+00  9.000E+00
#rwgt            1           1   3.0468625853810098E-002          10       20692           0
</event>
<event>
      5   9999  3.19816E-02  6.17335E+01 -1.00000E+00  1.34046E-01
      21    -1     0     0   502   501  0.000000000E+00  0.000000000E+00  2.622673973E+02  2.622673973E+02  0.000000000E+00  0.00000E+00  9.000E+00
      21    -1     0     0   511   502  0.000000000E+00  0.000000000E+00 -2.674123025E+02  2.674123025E+02  0.000000000E+00  0.00000E+00  9.000E+00
      25     1     1     2     0     0  2.575315097E+01  9.573029753E+01  1.883097354E+02  2.468057356E+02  1.250000000E+02  0.00000E+00  9.000E+00
      25     1     1     2     0     0  2.880033937E+01 -6.683485324E+01 -1.346861831E+02  1.976403933E+02  1.250000000E+02  0.00000E+00  9.000E+00
      21     1     1     2   511   501 -5.455349034E+01 -2.889544429E+01 -5.876845757E+01  8.523357094E+01  0.000000000E+00  0.00000E+00  9.000E+00
#rwgt            1           1   2.5334329254124516E-002          10       20872           0
</event>
<event>
      5   9999  3.19816E-02  6.45301E+01 -1.00000E+00  1.33036E-01
      21    -1     0     0   502   501  0.000000000E+00  0.000000000E+00  4.070643600E+02  4.070643600E+02  0.000000000E+00  0.00000E+00  9.000E+00
       2    -1     0     0   501     0  0.000000000E+00  0.000000000E+00 -5.073178764E+02  5.073178764E+02  0.000000000E+00  0.00000E+00  9.000E+00
      25     1     1     2     0     0 -9.975743014E+01 -2.210604340E+02  1.787610190E+02  3.261897642E+02  1.250000000E+02  0.00000E+00  9.000E+00
      25     1     1     2     0     0  1.424303211E+02  1.726542195E+02  4.285489098E+01  2.599180978E+02  1.250000000E+02  0.00000E+00  9.000E+00
       2     1     1     2   502     0 -4.267289100E+01  4.840621446E+01 -3.218694264E+02  3.282743744E+02  5.394796609E-06  0.00000E+00  9.000E+00
#rwgt            1           1   2.8427964314471373E-002          10       20925           0
</event>
<event>
      5   9999  3.19816E-02  1.08401E+02 -1.00000E+00  1.22272E-01
      21    -1     0     0   502   501  0.000000000E+00  0.000000000E+00  1.767017964E+02  1.767017964E+02  0.000000000E+00  0.00000E+00  9.000E+00
      21    -1     0     0   501   511  0.000000000E+00  0.000000000E+00 -5.792241103E+02  5.792241103E+02  0.000000000E+00  0.00000E+00  9.000E+00
      25     1     1     2     0     0  2.053757156E+02  8.863593356E+01 -6.096792305E+01  2.633962812E+02  1.250000000E+02  0.00000E+00  9.000E+00
      25     1     1     2     0     0 -1.382507226E+02 -3.518396585E+00 -6.825635353E+01  1.985184405E+02  1.250000000E+02  0.00000E+00  9.000E+00
      21     1     1     2   502   511 -6.712499303E+01 -8.511753698E+01 -2.732980372E+02  2.940111851E+02  0.000000000E+00  0.00000E+00  9.000E+00
#rwgt            1           1   2.8604800736142865E-002          10       20998           0
</event>
<event>
      5   9999  3.19816E-02  6.35026E+00 -1.00000E+00  2.21712E-01
      21    -1     0     0   502   501  0.000000000E+00  0.000000000E+00  1.244297584E+03  1.244297584E+03  0.000000000E+00  0.00000E+00  9.000E+00
      21    -1     0     0   512   502  0.000000000E+00  0.000000000E+00 -1.554306139E+02  1.554306139E+02  0.000000000E+00  0.00000E+00  9.000E+00
      25     1     1     2     0     0 -1.488030878E+02 -3.816133490E+02  4.599039871E+02  6.284168874E+02  1.250000000E+02  0.00000E+00  9.000E+00
      25     1     1     2     0     0  1.524539820E+02  3.764175024E+02  6.339864249E+02  7.632143471E+02  1.250000000E+02  0.00000E+00  9.000E+00
      21     1     1     2   512   501 -3.650894177E+00  5.195846533E+00 -5.023441752E+00  8.096963414E+00  2.384185791E-07  0.00000E+00  9.000E+00
#rwgt            1           1   2.8008974521217301E-002          10       21056           0
</event>
<event>
      5   9999  3.19816E-02  1.64146E+02 -1.00000E+00  1.14863E-01
      21    -1     0     0   502   501  0.000000000E+00  0.000000000E+00  3.437340531E+02  3.437340531E+02  0.000000000E+00  0.00000E+00  9.000E+00
       2    -1     0     0   501     0  0.000000000E+00  0.000000000E+00 -9.013832885E+02  9.013832885E+02  0.000000000E+00  0.00000E+00  9.000E+00
      25     1     1     2     0     0  4.792542508E+01 -3.633463865E+02 -1.258560634E+02  4.071635933E+02  1.250000000E+02  0.00000E+00  9.000E+00
      25     1     1     2     0     0 -1.979943169E+02  4.298530405E+02 -4.596337988E+02  6.714637852E+02  1.250000000E+02  0.00000E+00  9.000E+00
       2     1     1     2   502     0  1.500688918E+02 -6.650665394E+01  2.784062690E+01  1.664899631E+02  1.430511475E-06  0.00000E+00  9.000E+00
#rwgt            1           1   2.7074579411762764E-002          10       21396           0
</event>
<event>
      5   9999  3.19816E-02  1.48206E+02 -1.00000E+00  1.16601E-01
      21    -1     0     0   502   501  0.000000000E+00  0.000000000E+00  1.783719282E+03  1.783719282E+03  0.000000000E+00  0.00000E+00  9.000E+00
      21    -1     0     0   511   502  0.000000000E+00  0.000000000E+00 -3.611909045E+02  3.611909045E+02  0.000000000E+00  0.00000E+00  9.000E+00
      25     1     1     2     0     0  3.145668908E+01 -1.337498132E+02  1.615090877E+03  1.625737395E+03  1.250000000E+02  0.00000E+00  9.000E+00
      25     1     1     2     0     0 -1.619556753E+02  2.039994028E+02 -1.699146464E+01  2.894116566E+02  1.250000000E+02  0.00000E+00  9.000E+00
      21     1     1     2   511   501  1.304989862E+02 -7.024958959E+01 -1.755710357E+02  2.297611342E+02  3.303624740E-06  0.00000E+00  9.000E+00
#rwgt            1           1   2.8115631668586435E-002          10       21453           0
</event>
<event>
      5   9999  3.19816E-02  6.64417E+01 -1.00000E+00  1.32379E-01
      21    -1     0     0   502   512  0.000000000E+00  0.000000000E+00  9.395068909E+02  9.395068909E+02  0.000000000E+00  0.00000E+00  9.000E+00
      21    -1     0     0   501   502  0.000000000E+00  0.000000000E+00 -2.442625004E+02  2.442625004E+02  0.000000000E+00  0.00000E+00  9.000E+00
      25     1     1     2     0     0  3.545645222E+02  1.487382776E+02  1.290977679E+02  4.244176119E+02  1.250000000E+02  0.00000E+00  9.000E+00
      25     1     1     2     0     0 -2.913529909E+02 -1.282736653E+02  2.194691782E+02  4.063648837E+02  1.250000000E+02  0.00000E+00  9.000E+00
      21     1     1     2   501   512 -6.321153126E+01 -2.046461231E+01  3.466774445E+02  3.529868957E+02  0.000000000E+00  0.00000E+00  9.000E+00
#rwgt            1           1   2.9150811800576774E-002          10       21502           0
</event>
<event>
      5   9999  3.19816E-02  1.44897E+01 -1.00000E+00  1.78811E-01
      21    -1     0     0   502   501  0.000000000E+00  0.000000000E+00  2.816056024E+02  2.816056024E+02  0.000000000E+00  0.00000E+00  9.000E+00
      21    -1     0     0   511   502  0.000000000E+00  0.000000000E+00 -1.847265827E+02  1.847265827E+02  0.000000000E+00  0.00000E+00  9.000E+00
      25     1     1     2     0     0  1.094714306E+01 -1.570883973E+02 -3.391884105E+01  2.038923546E+02  1.250000000E+02  0.00000E+00  9.000E+00
      25     1     1     2     0     0 -1.881195178E+00  1.457852643E+02  1.461473379E+02  2.413315697E+02  1.250000000E+02  0.00000E+00  9.000E+00
      21     1     1     2   511   501 -9.065947884E+00  1.130313296E+01 -1.534947705E+01  2.110826074E+01  2.384185791E-07  0.00000E+00  9.000E+00
#rwgt            1           1   2.6477740790294312E-002          10       21591           0
</event>
<event>
      5   9999  3.19816E-02  2.28357E+01 -1.00000E+00  1.61754E-01
      21    -1     0     0   502   501  0.000000000E+00  0.000000000E+00  1.049318473E+03  1.049318473E+03  0.000000000E+00  0.00000E+00  9.000E+00
      21    -1     0     0   512   502  0.000000000E+00  0.000000000E+00 -2.541041485E+02  2.541041485E+02  0.000000000E+00  0.00000E+00  9.000E+00
      25     1     1     2     0     0  1.657667697E+02 -4.313992710E+02  1.738555399E+02  5.093473291E+02  1.250000000E+02  0.00000E+00  9.000E+00
      25     1     1     2     0     0 -1.646318601E+02  4.085917876E+02  6.205754502E+02  7.712261586E+02  1.250000000E+02  0.00000E+00  9.000E+00
      21     1     1     2   512   501 -1.134909634E+00  2.280748338E+01  7.833347963E-01  2.284913415E+01  3.538829710E-07  0.00000E+00  9.000E+00
#rwgt            1           1   2.9432397690469476E-002          10       21758           0
</event>
<event>
      5   9999  3.19816E-02  1.76912E+02 -1.00000E+00  1.13622E-01
      21    -1     0     0   502   501  0.000000000E+00  0.000000000E+00  6.540734831E+02  6.540734831E+02  0.000000000E+00  0.00000E+00  9.000E+00
       2    -1     0     0   501     0  0.000000000E+00  0.000000000E+00 -2.137736344E+02  2.137736344E+02  0.000000000E+00  0.00000E+00  9.000E+00
      25     1     1     2     0     0 -1.414338505E+02  7.803827158E+00  3.876510766E+02  4.312340327E+02  1.250000000E+02  0.00000E+00  9.000E+00
      25     1     1     2     0     0  6.695036738E+01  1.526643307E+02  1.277668817E+02  2.444138409E+02  1.250000000E+02  0.00000E+00  9.000E+00
       2     1     1     2   502     0  7.448348312E+01 -1.604681579E+02 -7.511810953E+01  1.921992439E+02  1.348699152E-06  0.00000E+00  9.000E+00
#rwgt            1           1   2.9283304768812069E-002          10       21896           0
</event>
<event>
      5   9999  3.19816E-02  2.55000E+01 -1.00000E+00  1.58109E-01
      21    -1     0     0   511   501  0.000000000E+00  0.000000000E+00  1.864910776E+02  1.864910776E+02  0.000000000E+00  0.00000E+00  9.000E+00
      21    -1     0     0   501   502  0.000000000E+00  0.000000000E+00 -4.044767213E+02  4.044767213E+02  0.000000000E+00  0.00000E+00  9.000E+00
      25     1     1     2     0     0 -1.089136634E+02  2.010185157E+02 -1.219304926E+02  2.876850270E+02  1.250000000E+02  0.00000E+00  9.000E+00
      25     1     1     2     0     0  1.271938431E+02 -1.832397091E+02 -1.047804000E+02  2.763313173E+02  1.250000000E+02  0.00000E+00  9.000E+00
      21     1     1     2   511   502 -1.828017966E+01 -1.777880662E+01  8.725248927E+00  2.695145455E+01  2.920019320E-07  0.00000E+00  9.000E+00
#rwgt            1           1   2.7151845285331325E-002          10       21933           0
</event>
<event>
      5   9999  3.19816E-02  1.25390E+02 -1.00000E+00  1.19564E-01
      21    -1     0     0   502   501  0.000000000E+00  0.000000000E+00  2.709625285E+02  2.709625285E+02  0.000000000E+00  0.00000E+00  9.000E+00
       2    -1     0     0   501     0  0.000000000E+00  0.000000000E+00 -2.243186194E+03  2.243186194E+03  0.000000000E+00  0.00000E+00  9.000E+00
      25     1     1     2     0     0 -7.027386219E+01 -3.212941925E+02 -1.241014420E+03  1.289926419E+03  1.250000000E+02  0.00000E+00  9.000E+00
      25     1     1     2     0     0  1.866235474E+02  2.745462923E+02  1.118106340E+02  3.719282632E+02  1.250000000E+02  0.00000E+00  9.000E+00
       2     1     1     2   502     0 -1.163496852E+02  4.674790018E+01 -8.430198790E+02  8.522940407E+02  1.078959322E-05  0.00000E+00  9.000E+00
#rwgt            1           1   2.6234631528899512E-002          10       22176           0
</event>
<event>
      5   9999  3.19816E-02  4.36226E+01 -1.00000E+00  1.42543E-01
      21    -1     0     0   502   511  0.000000000E+00  0.000000000E+00  1.453347973E+03  1.453347973E+03  0.000000000E+00  0.00000E+00  9.000E+00
      21    -1     0     0   501   502  0.000000000E+00  0.000000000E+00 -6.486874052E+02  6.486874052E+02  0.000000000E+00  0.00000E+00  9.000E+00
      25     1     1     2     0     0  7.977854910E+02  5.578214644E+01  6.810929265E+02  1.057868570E+03  1.250000000E+02  0.00000E+00  9.000E+00
      25     1     1     2     0     0 -8.236644829E+02 -2.066502845E+01 -7.887630949E+01  8.370762785E+02  1.250000000E+02  0.00000E+00  9.000E+00
      21     1     1     2   501   511  2.587899191E+01 -3.511711798E+01  2.024439504E+02  2.070905291E+02  2.697398305E-06  0.00000E+00  9.000E+00
#rwgt            1           1   2.6214677799860676E-002          10       22247           0
</event>
<event>
      5   9999  3.19816E-02  5.09914E+01 -1.00000E+00  1.38591E-01
      21    -1     0     0   512   501  0.000000000E+00  0.000000000E+00  3.096049756E+03  3.096049756E+03  0.000000000E+00  0.00000E+00  9.000E+00
      21    -1     0     0   501   502  0.000000000E+00  0.000000000E+00 -2.120919795E+01  2.120919795E+01  0.000000000E+00  0.00000E+00  9.000E+00
      25     1     1     2     0     0 -3.289780248E+01 -1.527801781E+02  7.927846731E+02  8.176530964E+02  1.250000000E+02  0.00000E+00  9.000E+00
      25     1     1     2     0     0  2.698431647E+00  1.938669552E+02  1.961668962E+03  1.975186522E+03  1.250000000E+02  0.00000E+00  9.000E+00
      21     1     1     2   512   502  3.019937083E+01 -4.108677710E+01  3.203869229E+02  3.244193361E+02  5.394796609E-06  0.00000E+00  9.000E+00
#rwgt            1           1   4.0120387772265974E-002          10       22428           0
</event>
<event>
      5   9999  3.19816E-02  3.23435E+01 -1.00000E+00  1.50805E-01
      21    -1     0     0   511   501  0.000000000E+00  0.000000000E+00  2.071910847E+02  2.071910847E+02  0.000000000E+00  0.00000E+00  9.000E+00
      21    -1     0     0   501   502  0.000000000E+00  0.000000000E+00 -3.181343517E+02  3.181343517E+02  0.000000000E+00  0.00000E+00  9.000E+00
      25     1     1     2     0     0 -1.646997301E+02  8.985809457E+01 -2.197856485E+01  2.265138750E+02  1.250000000E+02  0.00000E+00  9.000E+00
      25     1     1     2     0     0  1.472543643E+02 -1.170933303E+02 -1.184466067E+02  2.550476317E+02  1.250000000E+02  0.00000E+00  9.000E+00
      21     1     1     2   511   502  1.744536584E+01  2.723523568E+01  2.948190452E+01  4.376392974E+01  3.371747881E-07  0.00000E+00  9.000E+00
#rwgt            1           1   2.8366033964890316E-002          10       22509           0
</event>
<event>
      5   9999  3.19816E-02  5.83228E+02 -1.00000E+00  9.69888E-02
      21    -1     0     0   502   501  0.000000000E+00  0.000000000E+00  7.625933631E+02  7.625933631E+02  0.000000000E+00  0.00000E+00  9.000E+00
       2    -1     0     0   501     0  0.000000000E+00  0.000000000E+00 -1.408536542E+03  1.408536542E+03  0.000000000E+00  0.00000E+00  9.000E+00
      25     1     1     2     0     0  4.194476026E+02  1.982605945E+02  2.502825041E+02  5.417655273E+02  1.250000000E+02  0.00000E+00  9.000E+00
      25     1     1     2     0     0 -1.549964370E+02 -7.180874225E+02 -3.249113749E+02  8.129365556E+02  1.250000000E+02  0.00000E+00  9.000E+00
       2     1     1     2   502     0 -2.644511656E+02  5.198268280E+02 -5.713143079E+02  8.164278220E+02  7.629394531E-06  0.00000E+00  9.000E+00
#rwgt            1           1   2.0330851390711238E-002          10       22612           0
</event>
<event>
      5   9999  3.19816E-02  3.71117E+01 -1.00000E+00  1.46888E-01
      21    -1     0     0   502   501  0.000000000E+00  0.000000000E+00  1.420341341E+02  1.420341341E+02  0.000000000E+00  0.00000E+00  9.000E+00
      21    -1     0     0   511   502  0.000000000E+00  0.000000000E+00 -1.521000072E+03  1.521000072E+03  0.000000000E+00  0.00000E+00  9.000E+00
      25     1     1     2     0     0 -2.875190328E+02 -1.438790923E+02 -1.085690524E+03  1.139173956E+03  1.250000000E+02  0.00000E+00  9.000E+00
      25     1     1     2     0     0  2.589536663E+02  1.201873084E+02 -1.003676265E+02  3.274151048E+02  1.250000000E+02  0.00000E+00  9.000E+00
      21     1     1     2   511   501  2.856536651E+01  2.369178391E+01 -1.929077869E+02  1.964451451E+02  2.697398305E-06  0.00000E+00  9.000E+00
#rwgt            1           1   3.1277255874364168E-002          10       22664           0
</event>
<event>
      5   9999  3.19816E-02  5.86857E+01 -1.00000E+00  1.35219E-01
      21    -1     0     0   502   501  0.000000000E+00  0.000000000E+00  7.336342449E+02  7.336342449E+02  0.000000000E+00  0.00000E+00  9.000E+00
      21    -1     0     0   512   502  0.000000000E+00  0.000000000E+00 -1.103515949E+03  1.103515949E+03  0.000000000E+00  0.00000E+00  9.000E+00
      25     1     1     2     0     0 -4.327670645E+02 -1.408016391E+02 -6.659638593E+02  8.162385041E+02  1.250000000E+02  0.00000E+00  9.000E+00
      25     1     1     2     0     0  4.067697352E+02  1.934148873E+02  5.720686683E+02  7.387546937E+02  1.250000000E+02  0.00000E+00  9.000E+00
      21     1     1     2   512   501  2.599732928E+01 -5.261324819E+01 -2.759865131E+02  2.821569961E+02  0.000000000E+00  0.00000E+00  9.000E+00
#rwgt            2          11   2.7971356986336311E-003          10       22970           0
</event>
<event>
      5   9999  3.19816E-02  6.59879E+01 -1.00000E+00  1.32532E-01
      21    -1     0     0   502   501  0.000000000E+00  0.000000000E+00  2.343779460E+03  2.343779460E+03  0.000000000E+00  0.00000E+00  9.000E+00
      21    -1     0     0   501   511  0.000000000E+00  0.000000000E+00 -1.485806986E+02  1.485806986E+02  0.000000000E+00  0.00000E+00  9.000E+00
      25     1     1     2     0     0  2.839227904E+02  3.784050776E+02  4.773572879E+02  6.835916427E+02  1.250000000E+02  0.00000E+00  9.000E+00
      25     1     1     2     0     0 -2.255113922E+02 -4.091055071E+02  1.620912442E+03  1.691509636E+03  1.250000000E+02  0.00000E+00  9.000E+00
      21     1     1     2   502   511 -5.841139824E+01  3.070042950E+01  9.692903217E+01  1.172588807E+02  0.000000000E+00  0.00000E+00  9.000E+00
#rwgt            1           1   2.5831406406312298E-002          10       22990           0
</event>
<event>
      5   9999  3.19816E-02  5.70200E+01 -1.00000E+00  1.35896E-01
      21    -1     0     0   502   501  0.000000000E+00  0.000000000E+00  7.701425120E+02  7.701425120E+02  0.000000000E+00  0.00000E+00  9.000E+00
      21    -1     0     0   501   512  0.000000000E+00  0.000000000E+00 -9.627536035E+02  9.627536035E+02  0.000000000E+00  0.00000E+00  9.000E+00
      25     1     1     2     0     0 -9.885154685E+00 -2.375843699E+02 -8.910764066E+02  9.306912547E+02  1.250000000E+02  0.00000E+00  9.000E+00
      25     1     1     2     0     0 -3.207630354E+01  1.989771504E+02  7.059254014E+02  7.446989110E+02  1.250000000E+02  0.00000E+00  9.000E+00
      21     1     1     2   502   512  4.196145823E+01  3.860721953E+01 -7.460086338E+00  5.750594982E+01  1.134055709E-06  0.00000E+00  9.000E+00
#rwgt            1           1   2.9419792045298394E-002          10       23128           0
</event>
<event>
      5   9999  3.19816E-02  1.07914E+02 -1.00000E+00  1.22358E-01
       5    -1     0     0   502     0  0.000000000E+00  0.000000000E+00  2.221846459E+02  2.221846459E+02  0.000000000E+00  0.00000E+00  9.000E+00
      21    -1     0     0   501   502  0.000000000E+00  0.000000000E+00 -1.617917902E+03  1.617917902E+03  0.000000000E+00  0.00000E+00  9.000E+00
      25     1     1     2     0     0  2.712430380E+02  2.074862384E+02 -9.779943555E+02  1.043418077E+03  1.250000000E+02  0.00000E+00  9.000E+00
      25     1     1     2     0     0 -3.743753702E+02 -2.392524442E+02 -1.155272315E+02  4.757837650E+02  1.250000000E+02  0.00000E+00  9.000E+00
       5     1     1     2   501     0  1.031323322E+02  3.176620572E+01 -3.022116691E+02  3.209007054E+02  3.814697266E-06  0.00000E+00  9.000E+00
#rwgt            1           1   2.6151496309130415E-002          10       23254           0
</event>
<event>
      5   9999  3.19816E-02  2.58222E+02 -1.00000E+00  1.07752E-01
      21    -1     0     0   511   501  0.000000000E+00  0.000000000E+00  3.931595852E+02  3.931595852E+02  0.000000000E+00  0.00000E+00  9.000E+00
      21    -1     0     0   501   502  0.000000000E+00  0.000000000E+00 -1.360288112E+03  1.360288112E+03  0.000000000E+00  0.00000E+00  9.000E+00
      25     1     1     2     0     0 -4.822653046E+02  4.447820694E+00 -3.704188007E+02  6.208338707E+02  1.250000000E+02  0.00000E+00  9.000E+00
      25     1     1     2     0     0  5.320877598E+02  2.489222129E+02 -6.321601325E+02  8.719696586E+02  1.250000000E+02  0.00000E+00  9.000E+00
      21     1     1     2   511   502 -4.982245526E+01 -2.533700336E+02  3.545040632E+01  2.606441680E+02  3.662655710E-06  0.00000E+00  9.000E+00
#rwgt            2          11   4.3814102174089698E-003          10       23366           0
</event>
<event>
      5   9999  3.19816E-02  1.40640E+01 -1.00000E+00  1.80061E-01
       2    -1     0     0   502     0  0.000000000E+00  0.000000000E+00  1.220991894E+03  1.220991894E+03  0.000000000E+00  0.00000E+00  9.000E+00
      21    -1     0     0   501   502  0.000000000E+00  0.000000000E+00 -5.234027245E+02  5.234027245E+02  0.000000000E+00  0.00000E+00  9.000E+00
      25     1     1     2     0     0 -7.005767753E+01 -9.831786723E+01 -3.796127575E+02  4.174988945E+02  1.250000000E+02  0.00000E+00  9.000E+00
      25     1     1     2     0     0  5.649139496E+01  9.460947658E+01 -6.918198447E+01  1.804255462E+02  1.250000000E+02  0.00000E+00  9.000E+00
       2     1     1     2   501     0  1.356628257E+01  3.708390650E+00  1.146383911E+03  1.146470177E+03  1.525878906E-05  0.00000E+00  9.000E+00
#rwgt            1           1   2.5174584531316355E-002          10       23386           0
</event>
<event>
      5   9999  3.19816E-02  9.00672E+01 -1.00000E+00  1.25906E-01
      21    -1     0     0   502   501  0.000000000E+00  0.000000000E+00  1.453566902E+02  1.453566902E+02  0.000000000E+00  0.00000E+00  9.000E+00
      21    -1     0     0   511   502  0.000000000E+00  0.000000000E+00 -1.131932289E+03  1.131932289E+03  0.000000000E+00  0.00000E+00  9.000E+00
      25     1     1     2     0     0  3.201355429E+01 -1.171357920E+01  8.848962221E+01  1.568996139E+02  1.250000000E+02  0.00000E+00  9.000E+00
      25     1     1     2     0     0 -9.215328896E+01  7.876069793E+01 -3.624790443E+02  4.021337262E+02  1.250000000E+02  0.00000E+00  9.000E+00
      21     1     1     2   511   501  6.013973467E+01 -6.704711873E+01 -7.125861771E+02  7.182556395E+02  0.000000000E+00  0.00000E+00  9.000E+00
#rwgt            1           1   2.9301961729101045E-002          10       23537           0
</event>
<event>
      5   9999  3.19816E-02  2.13553E+01 -1.00000E+00  1.64053E-01
      21    -1     0     0   502   501  0.000000000E+00  0.000000000E+00  3.038487764E+03  3.038487764E+03  0.000000000E+00  0.00000E+00  9.000E+00
       4    -1     0     0   501     0  0.000000000E+00  0.000000000E+00 -5.071667326E+02  5.071667326E+02  0.000000000E+00  0.00000E+00  9.000E+00
      25     1     1     2     0     0  5.006316884E+02 -1.362711940E+01  1.184541241E+03  1.292122571E+03  1.250000000E+02  0.00000E+00  9.000E+00
      25     1     1     2     0     0 -5.108996263E+02 -5.097637640E+00  1.761452250E+03  1.838309942E+03  1.250000000E+02  0.00000E+00  9.000E+00
       4     1     1     2   502     0  1.026793789E+01  1.872475704E+01 -4.146724597E+02  4.152219839E+02  0.000000000E+00  0.00000E+00  9.000E+00
#rwgt            1           1   5.2757924747573154E-002          10       23609           0
</event>
<event>
      5   9999  3.19816E-02  1.79723E+02 -1.00000E+00  1.13365E-01
       2    -1     0     0   502     0  0.000000000E+00  0.000000000E+00  1.119206052E+03  1.119206052E+03  0.000000000E+00  0.00000E+00  9.000E+00
      21    -1     0     0   501   502  0.000000000E+00  0.000000000E+00 -1.194997937E+03  1.194997937E+03  0.000000000E+00  0.00000E+00  9.000E+00
      25     1     1     2     0     0 -5.558174684E+02 -1.152277338E+02 -2.927373239E+02  6.507923091E+02  1.250000000E+02  0.00000E+00  9.000E+00
      25     1     1     2     0     0  3.994354476E+02  2.037989841E+02 -6.380003947E+02  7.897798468E+02  1.250000000E+02  0.00000E+00  9.000E+00
       2     1     1     2   501     0  1.563820208E+02 -8.857125030E+01  8.549458330E+02  8.736318333E+02  1.078959322E-05  0.00000E+00  9.000E+00
#rwgt            1           1   2.7205861793678173E-002          10       23718           0
</event>
<event>
      5   9999  3.19816E-02  1.08964E+02 -1.00000E+00  1.22174E-01
      -2    -1     0     0     0   501  0.000000000E+00  0.000000000E+00  3.232006228E+02  3.232006228E+02  0.000000000E+00  0.00000E+00  9.000E+00
      21    -1     0     0   501   502  0.000000000E+00  0.000000000E+00 -1.957362359E+03  1.957362359E+03  0.000000000E+00  0.00000E+00  9.000E+00
      25     1     1     2     0     0 -6.045251607E+01 -3.017297429E+02 -1.432044177E+03  1.470058118E+03  1.250000000E+02  0.00000E+00  9.000E+00
      25     1     1     2     0     0 -2.453617280E+01  2.335386755E+02 -4.595323120E+02  5.309776667E+02  1.250000000E+02  0.00000E+00  9.000E+00
      -2     1     1     2     0   502  8.498868887E+01  6.819106736E+01  2.574147530E+02  2.795271972E+02  5.394796609E-06  0.00000E+00  9.000E+00
#rwgt            1           1   2.5400444388588305E-002          10       23807           0
</event>
<event>
      5   9999  3.19816E-02  2.79537E+01 -1.00000E+00  1.55202E-01
      21    -1     0     0   502   511  0.000000000E+00  0.000000000E+00  1.066015363E+03  1.066015363E+03  0.000000000E+00  0.00000E+00  9.000E+00
      21    -1     0     0   501   502  0.000000000E+00  0.000000000E+00 -1.054567311E+02  1.054567311E+02  0.000000000E+00  0.00000E+00  9.000E+00
      25     1     1     2     0     0 -8.594046617E+00  2.207725818E+02  1.315312813E+02  2.859018511E+02  1.250000000E+02  0.00000E+00  9.000E+00
      25     1     1     2     0     0 -1.852303054E+01 -2.139849535E+02  5.314502460E+02  5.866830720E+02  1.250000000E+02  0.00000E+00  9.000E+00
      21     1     1     2   501   511  2.711707716E+01 -6.787628362E+00  2.975771049E+02  2.988871713E+02  6.607249480E-06  0.00000E+00  9.000E+00
#rwgt            1           1   1.0673793026663329E-002          10       23885           0
</event>
<event>
      5   9999  3.19816E-02  3.15032E+01 -1.00000E+00  1.51579E-01
      21    -1     0     0   502   501  0.000000000E+00  0.000000000E+00  2.334335852E+02  2.334335852E+02  0.000000000E+00  0.00000E+00  9.000E+00
      21    -1     0     0   512   502  0.000000000E+00  0.000000000E+00 -1.027531006E+03  1.027531006E+03  0.000000000E+00  0.00000E+00  9.000E+00
      25     1     1     2     0     0  2.636084024E+02 -1.527724547E+02  5.093593884E+01  3.332390773E+02  1.250000000E+02  0.00000E+00  9.000E+00
      25     1     1     2     0     0 -2.612939330E+02  1.213543505E+02 -5.691111059E+02  6.500106528E+02  1.250000000E+02  0.00000E+00  9.000E+00
      21     1     1     2   512   501 -2.314469387E+00  3.141810426E+01 -2.759222539E+02  2.777148614E+02  5.394796609E-06  0.00000E+00  9.000E+00
#rwgt            1           1   2.8976488502083810E-002          10       24008           0
</event>
<event>
      5   9999  3.19816E-02  1.29535E+01 -1.00000E+00  1.83603E-01
      21    -1     0     0   511   501  0.000000000E+00  0.000000000E+00  8.152757819E+01  8.152757819E+01  0.000000000E+00  0.00000E+00  9.000E+00
      21    -1     0     0   501   502  0.000000000E+00  0.000000000E+00 -1.709234662E+03  1.709234662E+03  0.000000000E+00  0.00000E+00  9.000E+00
      25     1     1     2     0     0  2.781676463E+02  1.334961605E+01 -8.745501900E+02  9.262928730E+02  1.250000000E+02  0.00000E+00  9.000E+00
      25     1     1     2     0     0 -2.712020666E+02 -2.428350705E+00 -7.797004789E+02  8.349337067E+02  1.250000000E+02  0.00000E+00  9.000E+00
      21     1     1     2   511   502 -6.965579672E+00 -1.092126535E+01  2.654358503E+01  2.953566054E+01  4.768371582E-07  0.00000E+00  9.000E+00
#rwgt            1           1   3.6071925887150025E-002          10       24177           0
</event>
<event>
      5   9999  3.19816E-02  1.82106E+02 -1.00000E+00  1.13150E-01
       2    -1     0     0   502     0  0.000000000E+00  0.000000000E+00  2.578429361E+03  2.578429361E+03  0.000000000E+00  0.00000E+00  9.000E+00
      21    -1     0     0   501   502  0.000000000E+00  0.000000000E+00 -1.292000436E+02  1.292000436E+02  0.000000000E+00  0.00000E+00  9.000E+00
      25     1     1     2     0     0  4.492460185E+01 -2.882569435E+02  2.187073945E+02  3.854454692E+02  1.250000000E+02  0.00000E+00  9.000E+00
      25     1     1     2     0     0 -1.948476323E+02  3.916281521E+02  1.405084034E+03  1.476896866E+03  1.250000000E+02  0.00000E+00  9.000E+00
       2     1     1     2   501     0  1.499230304E+02 -1.033712085E+02  8.254378884E+02  8.452870693E+02  1.868812365E-05  0.00000E+00  9.000E+00
#rwgt            1           1   3.0488855197198558E-002          10       24388           0
</event>
<event>
      5   9999  3.19816E-02  2.13314E+02 -1.00000E+00  1.10639E-01
      21    -1     0     0   511   501  0.000000000E+00  0.000000000E+00  3.311435271E+02  3.311435271E+02  0.000000000E+00  0.00000E+00  9.000E+00
      21    -1     0     0   501   502  0.000000000E+00  0.000000000E+00 -7.786607083E+02  7.786607083E+02  0.000000000E+00  0.00000E+00  9.000E+00
      25     1     1     2     0     0  3.597065632E+02  1.822557940E+02 -2.392832974E+02  4.852705250E+02  1.250000000E+02  0.00000E+00  9.000E+00
      25     1     1     2     0     0 -3.520262252E+02  3.092003244E+01 -1.466901090E+02  4.025189433E+02  1.250000000E+02  0.00000E+00  9.000E+00
      21     1     1     2   511   502 -7.680337936E+00 -2.131758265E+02 -6.154377487E+01  2.220147671E+02  4.422005890E-06  0.00000E+00  9.000E+00
#rwgt            2          11   3.9209598803007168E-003          10       24518           0
</event>
<event>
      5   9999  3.19816E-02  2.72033E+01 -1.00000E+00  1.56052E-01
       2    -1     0     0   502     0  0.000000000E+00  0.000000000E+00  3.287052842E+03  3.287052842E+03  0.000000000E+00  0.00000E+00  9.000E+00
      21    -1     0     0   501   502  0.000000000E+00  0.000000000E+00 -3.736509259E+02  3.736509259E+02  0.000000000E+00  0.00000E+00  9.000E+00
      25     1     1     2     0     0 -6.162832894E+01 -3.406838306E+02  1.856888687E+02  4.122728214E+02  1.250000000E+02  0.00000E+00  9.000E+00
      25     1     1     2     0     0  3.745436156E+01  3.282083472E+02 -1.404796113E+02  3.801092864E+02  1.250000000E+02  0.00000E+00  9.000E+00
       2     1     1     2   501     0  2.417396738E+01  1.247548332E+01  2.868192659E+03  2.868321661E+03  0.000000000E+00  0.00000E+00  9.000E+00
#rwgt            1           1   2.5147264942846630E-002          10       24538           0
</event>
<event>
      5   9999  3.43969E-02  1.67557E+01 -1.00000E+00  1.72971E-01
      21    -1     0     0   502   511  0.000000000E+00  0.000000000E+00  1.256698934E+02  1.256698934E+02  0.000000000E+00  0.00000E+00  9.000E+00
      21    -1     0     0   501   502  0.000000000E+00  0.000000000E+00 -2.010950262E+03  2.010950262E+03  0.000000000E+00  0.00000E+00  9.000E+00
      25     1     1     2     0     0  1.174945680E+02 -1.275922960E+02 -5.090932131E+02  5.521645290E+02  1.250000000E+02  0.00000E+00  9.000E+00
      25     1     1     2     0     0 -1.041383356E+02  1.377098955E+02 -1.471916989E+03  1.487270463E+03  1.250000000E+02  0.00000E+00  9.000E+00
      21     1     1     2   501   511 -1.335623237E+01 -1.011759952E+01  9.572983386E+01  9.718516273E+01  1.348699152E-06  0.00000E+00  9.000E+00
#rwgt            1           1  0.10746803040640292               10       24698           0
</event>
<event>
      5   9999  3.19816E-02  4.44401E+01 -1.00000E+00  1.42061E-01
      21    -1     0     0   502   512  0.000000000E+00  0.000000000E+00  4.815599838E+02  4.815599838E+02  0.000000000E+00  0.00000E+00  9.000E+00
      21    -1     0     0   501   502  0.000000000E+00  0.000000000E+00 -7.197600368E+02  7.197600368E+02  0.000000000E+00  0.00000E+00  9.000E+00
      25     1     1     2     0     0 -5.353346483E+01  2.102099389E+02 -1.322775022E+02  2.831543534E+02  1.250000000E+02  0.00000E+00  9.000E+00
      25     1     1     2     0     0  2.456745811E+01 -2.439129358E+02 -4.736389495E+02  5.477736163E+02  1.250000000E+02  0.00000E+00  9.000E+00
      21     1     1     2   501   512  2.896600672E+01  3.370299688E+01  3.677163986E+02  3.703920509E+02  0.000000000E+00  0.00000E+00  9.000E+00
#rwgt            1           1   2.7662790571347566E-002          10       24806           0
</event>
<event>
      5   9999  3.19816E-02  7.13236E+00 -1.00000E+00  2.14410E-01
      21    -1     0     0   511   501  0.000000000E+00  0.000000000E+00  3.067768023E+02  3.067768023E+02  0.000000000E+00  0.00000E+00  9.000E+00
      21    -1     0     0   501   502  0.000000000E+00  0.000000000E+00 -5.379068593E+02  5.379068593E+02  0.000000000E+00  0.00000E+00  9.000E+00
      25     1     1     2     0     0 -3.404972891E+02 -2.759516649E+01  6.046626198E+01  3.687561063E+02  1.250000000E+02  0.00000E+00  9.000E+00
      25     1     1     2     0     0  3.437473913E+02  3.394398258E+01 -2.912407282E+02  4.687863316E+02  1.250000000E+02  0.00000E+00  9.000E+00
      21     1     1     2   511   502 -3.250102197E+00 -6.348816088E+00 -3.555907507E-01  7.141223621E+00  1.332800375E-07  0.00000E+00  9.000E+00
#rwgt            1           1   2.8398302325625829E-002          10       24888           0
</event>
<event>
      5   9999  3.19816E-02  4.06708E+01 -1.00000E+00  1.44394E-01
      21    -1     0     0   502   501  0.000000000E+00  0.000000000E+00  4.512296718E+02  4.512296718E+02  0.000000000E+00  0.00000E+00  9.000E+00
      21    -1     0     0   501   512  0.000000000E+00  0.000000000E+00 -1.153676002E+02  1.153676002E+02  0.000000000E+00  0.00000E+00  9.000E+00
      25     1     1     2     0     0 -1.363608323E+02  4.462265259E+01  9.788108833E+01  2.139887033E+02  1.250000000E+02  0.00000E+00  9.000E+00
      25     1     1     2     0     0  9.577593852E+01 -4.726536185E+01  2.590375023E+02  3.068101570E+02  1.250000000E+02  0.00000E+00  9.000E+00
      21     1     1     2   502   512  4.058489376E+01  2.642709263E+00 -2.105651906E+01  4.579841164E+01  7.907449699E-07  0.00000E+00  9.000E+00
#rwgt            2          11   1.3796512546023773E-003          10       25251           0
</event>
<event>
      5   9999  3.19816E-02  1.54309E+02 -1.00000E+00  1.15908E-01
       1    -1     0     0   502     0  0.000000000E+00  0.000000000E+00  1.822281712E+03  1.822281712E+03  0.000000000E+00  0.00000E+00  9.000E+00
      21    -1     0     0   501   502  0.000000000E+00  0.000000000E+00 -2.027796991E+02  2.027796991E+02  0.000000000E+00  0.00000E+00  9.000E+00
      25     1     1     2     0     0  1.502441231E+02  1.620000443E+02  3.102042930E+02  4.008353955E+02  1.250000000E+02  0.00000E+00  9.000E+00
      25     1     1     2     0     0  1.227628612E+00 -1.914530983E+02 -6.781527177E+01  2.384946688E+02  1.250000000E+02  0.00000E+00  9.000E+00
       1     1     1     2   501     0 -1.514717517E+02  2.945305401E+01  1.377112991E+03  1.385731347E+03  2.642899792E-05  0.00000E+00  9.000E+00
#rwgt            1           1   2.9741733150428190E-002          10       25271           0
</event>
<event>
      5   9999  3.19816E-02  3.59749E+01 -1.00000E+00  1.47756E-01
      21    -1     0     0   502   511  0.000000000E+00  0.000000000E+00  1.965761420E+03  1.965761420E+03  0.000000000E+00  0.00000E+00  9.000E+00
      21    -1     0     0   501   502  0.000000000E+00  0.000000000E+00 -1.128142401E+03  1.128142401E+03  0.000000000E+00  0.00000E+00  9.000E+00
      25     1     1     2     0     0 -3.900505445E+02  1.269641247E+03 -1.084051163E+02  1.338471140E+03  1.250000000E+02  0.00000E+00  9.000E+00
      25     1     1     2     0     0  4.033306577E+02 -1.236207224E+03  6.534452857E+02  1.460650424E+03  1.250000000E+02  0.00000E+00  9.000E+00
      21     1     1     2   501   511 -1.328011317E+01 -3.343402332E+01  2.925788496E+02  2.947822562E+02  5.394796609E-06  0.00000E+00  9.000E+00
#rwgt            1           1   5.1517926167585062E-002          10       25314           0
</event>
<event>
      5   9999  3.19816E-02  3.96319E+01 -1.00000E+00  1.45090E-01
      21    -1     0     0   502   501  0.000000000E+00  0.000000000E+00  1.332505277E+03  1.332505277E+03  0.000000000E+00  0.00000E+00  9.000E+00
      21    -1     0     0   512   502  0.000000000E+00  0.000000000E+00 -2.023493535E+02  2.023493535E+02  0.000000000E+00  0.00000E+00  9.000E+00
      25     1     1     2     0     0 -3.240938930E+02 -3.321656949E+02  7.937032531E+02  9.278797090E+02  1.250000000E+02  0.00000E+00  9.000E+00
      25     1     1     2     0     0  3.015288995E+02  2.995849074E+02  3.504968977E+02  5.649281983E+02  1.250000000E+02  0.00000E+00  9.000E+00
      21     1     1     2   512   501  2.256499349E+01  3.258078751E+01 -1.404422699E+01  4.204672351E+01  1.105501472E-06  0.00000E+00  9.000E+00
#rwgt            1           1   2.6254878718124704E-002          10       25525           0
</event>
<event>
      5   9999  3.19816E-02  1.06474E+02 -1.00000E+00  1.22615E-01
      21    -1     0     0   502   511  0.000000000E+00  0.000000000E+00  4.282986388E+02  4.282986388E+02  0.000000000E+00  0.00000E+00  9.000E+00
      21    -1     0     0   501   502  0.000000000E+00  0.000000000E+00 -6.803894851E+02  6.803894851E+02  0.000000000E+00  0.00000E+00  9.000E+00
      25     1     1     2     0     0  3.905470201E+01  4.043392681E+01 -1.874241965E+01  1.383345600E+02  1.250000000E+02  0.00000E+00  9.000E+00
      25     1     1     2     0     0  4.706137730E+01 -1.030498458E+02 -5.819217836E+02  6.058811815E+02  1.250000000E+02  0.00000E+00  9.000E+00
      21     1     1     2   501   511 -8.611607931E+01  6.261591903E+01  3.485733569E+02  3.644723824E+02  5.394796609E-06  0.00000E+00  9.000E+00
#rwgt            1           1   2.8275183632003247E-002          10       25607           0
</event>
<event>
      5   9999  3.19816E-02  1.01103E+02 -1.00000E+00  1.23614E-01
      21    -1     0     0   512   501  0.000000000E+00  0.000000000E+00  3.263153595E+02  3.263153595E+02  0.000000000E+00  0.00000E+00  9.000E+00
      21    -1     0     0   501   502  0.000000000E+00  0.000000000E+00 -1.330984926E+03  1.330984926E+03  0.000000000E+00  0.00000E+00  9.000E+00
      25     1     1     2     0     0 -2.283918616E+02 -4.830713670E+02 -6.877915314E+02  8.798880489E+02  1.250000000E+02  0.00000E+00  9.000E+00
      25     1     1     2     0     0  3.233567836E+02  4.483814657E+02 -3.556649566E+02  6.691248835E+02  1.250000000E+02  0.00000E+00  9.000E+00
      21     1     1     2   512   502 -9.496492209E+01  3.468990128E+01  3.878692101E+01  1.082873535E+02  2.384185791E-06  0.00000E+00  9.000E+00
#rwgt            1           1   2.6050250516904613E-002          10       25675           0
</event>
<event>
      5   9999  3.19816E-02  6.06612E+01 -1.00000E+00  1.34450E-01
      21    -1     0     0   502   501  0.000000000E+00  0.000000000E+00  2.298836928E+03  2.298836928E+03  0.000000000E+00  0.00000E+00  9.000E+00
      21    -1     0     0   511   502  0.000000000E+00  0.000000000E+00 -3.291363624E+01  3.291363624E+01  0.000000000E+00  0.00000E+00  9.000E+00
      25     1     1     2     0     0 -5.020608853E+01 -1.618778111E+02  7.256816723E+02  7.556215763E+02  1.250000000E+02  0.00000E+00  9.000E+00
      25     1     1     2     0     0  1.008914846E+02  1.952060776E+02  1.409610104E+03  1.432099909E+03  1.250000000E+02  0.00000E+00  9.000E+00
      21     1     1     2   511   501 -5.068539606E+01 -3.332826643E+01  1.306315154E+02  1.440290788E+02  3.814697266E-06  0.00000E+00  9.000E+00
#rwgt            1           1   7.0656151145812626E-002          10       25764           0
</event>
<event>
      5   9999  3.19816E-02  2.60048E+01 -1.00000E+00  1.57480E-01
      21    -1     0     0   502   512  0.000000000E+00  0.000000000E+00  9.846034869E+01  9.846034869E+01  0.000000000E+00  0.00000E+00  9.000E+00
      21    -1     0     0   501   502  0.000000000E+00  0.000000000E+00 -1.292577705E+03  1.292577705E+03  0.000000000E+00  0.00000E+00  9.000E+00
      25     1     1     2     0     0  5.134331768E+01  4.480174376E+01  1.729817039E+01  1.434139436E+02  1.250000000E+02  0.00000E+00  9.000E+00
      25     1     1     2     0     0 -2.550882332E+01 -4.183078469E+01 -1.214082036E+03  1.221482994E+03  1.250000000E+02  0.00000E+00  9.000E+00
      21     1     1     2   501   512 -2.583449436E+01 -2.970959068E+00  2.666508960E+00  2.614111640E+01  1.332800375E-07  0.00000E+00  9.000E+00
#rwgt            1           1   2.9460998214018201E-002          10       25827           0
</event>
<event>
      5   9999  3.19816E-02  3.42044E+01 -1.00000E+00  1.49186E-01
      21    -1     0     0   502   501  0.000000000E+00  0.000000000E+00  7.346457542E+02  7.346457542E+02  0.000000000E+00  0.00000E+00  9.000E+00
      21    -1     0     0   511   502  0.000000000E+00  0.000000000E+00 -1.010811001E+02  1.010811001E+02  0.000000000E+00  0.00000E+00  9.000E+00
      25     1     1     2     0     0 -6.535624324E+01  1.290740065E+02  5.402249557E+02  5.730615503E+02  1.250000000E+02  0.00000E+00  9.000E+00
      25     1     1     2     0     0  9.927092502E+01 -1.335162904E+02  6.433692182E+01  2.178200080E+02  1.250000000E+02  0.00000E+00  9.000E+00
      21     1     1     2   511   501 -3.391468178E+01  4.442283868E+00  2.900277660E+01  4.484529604E+01  6.743495762E-07  0.00000E+00  9.000E+00
#rwgt            1           1   2.4419185913124461E-002          10       26024           0
</event>
<event>
      5   9999  3.19816E-02  1.61534E+01 -1.00000E+00  1.74405E-01
      -2    -1     0     0     0   501  0.000000000E+00  0.000000000E+00  7.980065847E+02  7.980065847E+02  0.000000000E+00  0.00000E+00  9.000E+00
      21    -1     0     0   501   502  0.000000000E+00  0.000000000E+00 -1.614441008E+02  1.614441008E+02  0.000000000E+00  0.00000E+00  9.000E+00
      25     1     1     2     0     0 -1.925658034E+02  1.605883266E+02  3.375441813E+01  2.821959604E+02  1.250000000E+02  0.00000E+00  9.000E+00
      25     1     1     2     0     0  1.977630554E+02 -1.452938594E+02  4.800459078E+02  5.534343730E+02  1.250000000E+02  0.00000E+00  9.000E+00
      -2     1     1     2     0   502 -5.197251915E+00 -1.529446723E+01  1.227621581E+02  1.238203522E+02  1.907348633E-06  0.00000E+00  9.000E+00
#rwgt            1           1   2.7797751181045018E-002          10       26170           0
</event>
<event>
      5   9999  3.19816E-02  3.63748E+01 -1.00000E+00  1.47446E-01
      21    -1     0     0   511   501  0.000000000E+00  0.000000000E+00  2.851027426E+02  2.851027426E+02  0.000000000E+00  0.00000E+00  9.000E+00
      21    -1     0     0   501   502  0.000000000E+00  0.000000000E+00 -6.788870572E+02  6.788870572E+02  0.000000000E+00  0.00000E+00  9.000E+00
      25     1     1     2     0     0 -2.461871930E+02  2.089446609E+02 -4.897907935E+02  5.998216624E+02  1.250000000E+02  0.00000E+00  9.000E+00
      25     1     1     2     0     0  2.145784197E+02 -1.909442795E+02  9.652666855E+01  3.277895877E+02  1.250000000E+02  0.00000E+00  9.000E+00
      21     1     1     2   511   502  3.160877336E+01 -1.800038134E+01 -5.201895898E-01  3.637854971E+01  6.673158586E-07  0.00000E+00  9.000E+00
#rwgt            1           1   2.3969225644287877E-002          10       26385           0
</event>
<event>
      5   9999  3.19816E-02  2.16247E+02 -1.00000E+00  1.10427E-01
      21    -1     0     0   502   512  0.000000000E+00  0.000000000E+00  2.244836497E+03  2.244836497E+03  0.000000000E+00  0.00000E+00  9.000E+00
      21    -1     0     0   501   502  0.000000000E+00  0.000000000E+00 -2.499187777E+02  2.499187777E+02  0.000000000E+00  0.00000E+00  9.000E+00
      25     1     1     2     0     0 -8.784895061E+01 -2.052000948E+01 -1.697753897E+02  2.293189741E+02  1.250000000E+02  0.00000E+00  9.000E+00
      25     1     1     2     0     0  1.704248550E+02 -1.793398816E+02  3.948448672E+02  4.824260497E+02  1.250000000E+02  0.00000E+00  9.000E+00
      21     1     1     2   501   512 -8.257590437E+01  1.998598911E+02  1.769848242E+03  1.783010251E+03  0.000000000E+00  0.00000E+00  9.000E+00
#rwgt            1           1   2.6700588747412875E-002          10       26505           0
</event>
<event>
      5   9999  3.19816E-02  4.53749E+01 -1.00000E+00  1.41524E-01
      21    -1     0     0   502   501  0.000000000E+00  0.000000000E+00  1.093278779E+02  1.093278779E+02  0.000000000E+00  0.00000E+00  9.000E+00
       2    -1     0     0   501     0  0.000000000E+00  0.000000000E+00 -1.593876101E+03  1.593876101E+03  0.000000000E+00  0.00000E+00  9.000E+00
      25     1     1     2     0     0 -1.116982220E+02  3.629894019E+01 -1.145906757E+03  1.158672258E+03  1.250000000E+02  0.00000E+00  9.000E+00
      25     1     1     2     0     0  6.909793521E+01 -2.067523529E+01  5.039238039E+01  1.528606621E+02  1.250000000E+02  0.00000E+00  9.000E+00
       2     1     1     2   502     0  4.260028676E+01 -1.562370490E+01 -3.890338460E+02  3.916710583E+02  5.394796609E-06  0.00000E+00  9.000E+00
#rwgt            1           1   3.0506514423405785E-002          10       26568           0
</event>
<event>
      5   9999  3.19816E-02  3.92318E+01 -1.00000E+00  1.45364E-01
      21    -1     0     0   502   501  0.000000000E+00  0.000000000E+00  9.341480521E+02  9.341480521E+02  0.000000000E+00  0.00000E+00  9.000E+00
      21    -1     0     0   511   502  0.000000000E+00  0.000000000E+00 -3.702632508E+02  3.702632508E+02  0.000000000E+00  0.00000E+00  9.000E+00
      25     1     1     2     0     0 -1.070096077E+02 -4.727841467E+02  1.045520551E+00  5.006016367E+02  1.250000000E+02  0.00000E+00  9.000E+00
      25     1     1     2     0     0  7.945028452E+01  5.007057427E+02  5.581258140E+02  7.642957626E+02  1.250000000E+02  0.00000E+00  9.000E+00
      21     1     1     2   511   501  2.755932314E+01 -2.792159596E+01  4.713466710E+00  3.951390365E+01  2.665600750E-07  0.00000E+00  9.000E+00
#rwgt            1           1   2.9711660014518769E-002          10       26642           0
</event>
<event>
      5   9999  3.19816E-02  7.14252E+00 -1.00000E+00  2.14324E-01
      21    -1     0     0   502   501  0.000000000E+00  0.000000000E+00  2.251779328E+01  2.251779328E+01  0.000000000E+00  0.00000E+00  9.000E+00
      21    -1     0     0   512   502  0.000000000E+00  0.000000000E+00 -1.886770244E+03  1.886770244E+03  0.000000000E+00  0.00000E+00  9.000E+00
      25     1     1     2     0     0  1.331134351E+02  1.698122917E+01 -5.193110238E+02  5.507417618E+02  1.250000000E+02  0.00000E+00  9.000E+00
      25     1     1     2     0     0 -1.334698880E+02 -2.411484955E+01 -1.281940512E+03  1.295141773E+03  1.250000000E+02  0.00000E+00  9.000E+00
      21     1     1     2   512   501  3.564529079E-01  7.133620376E+00 -6.300091558E+01  6.340450270E+01  6.743495762E-07  0.00000E+00  9.000E+00
#rwgt            1           1   9.3410344647455498E-002          10       26770           0
</event>
<event>
      5   9999  3.19816E-02  4.84474E+02 -1.00000E+00  9.92428E-02
      21    -1     0     0   502   501  0.000000000E+00  0.000000000E+00  8.376471487E+02  8.376471487E+02  0.000000000E+00  0.00000E+00  9.000E+00
       1    -1     0     0   501     0  0.000000000E+00  0.000000000E+00 -1.115915713E+03  1.115915713E+03  0.000000000E+00  0.00000E+00  9.000E+00
      25     1     1     2     0     0  5.093285986E+01 -6.315262904E+02 -2.639560100E+01  6.463291262E+02  1.250000000E+02  0.00000E+00  9.000E+00
      25     1     1     2     0     0 -4.830751145E+01  1.470597338E+02  4.282433770E+02  4.722050094E+02  1.250000000E+02  0.00000E+00  9.000E+00
       1     1     1     2   502     0 -2.625348411E+00  4.844665566E+02 -6.801163405E+02  8.350287261E+02  1.321449896E-05  0.00000E+00  9.000E+00
#rwgt            2          12   6.2122023342874695E-004          10       27078           0
</event>
<event>
      5   9999  3.19816E-02  3.25998E+02 -1.00000E+00  1.04432E-01
      21    -1     0     0   511   501  0.000000000E+00  0.000000000E+00  2.900612110E+02  2.900612110E+02  0.000000000E+00  0.00000E+00  9.000E+00
      21    -1     0     0   501   502  0.000000000E+00  0.000000000E+00 -8.463760046E+02  8.463760046E+02  0.000000000E+00  0.00000E+00  9.000E+00
      25     1     1     2     0     0  1.309180451E+01  3.700377088E+02 -2.767091982E+02  4.788447365E+02  1.250000000E+02  0.00000E+00  9.000E+00
      25     1     1     2     0     0  1.558897179E+02 -9.125418592E+01 -2.460988134E+02  3.298765778E+02  1.250000000E+02  0.00000E+00  9.000E+00
      21     1     1     2   511   502 -1.689815224E+02 -2.787835229E+02 -3.350678191E+01  3.277159013E+02  5.091227652E-06  0.00000E+00  9.000E+00
#rwgt            1           1   3.1951916085555601E-002          10       27097           0
</event>
<event>
      5   9999  3.19816E-02  2.38295E+02 -1.00000E+00  1.08947E-01
      21    -1     0     0   502   501  0.000000000E+00  0.000000000E+00  6.780515925E+02  6.780515925E+02  0.000000000E+00  0.00000E+00  9.000E+00
      -2    -1     0     0     0   502  0.000000000E+00  0.000000000E+00 -4.699917754E+02  4.699917754E+02  0.000000000E+00  0.00000E+00  9.000E+00
      25     1     1     2     0     0  4.620965072E+02 -2.087099839E+02  2.939007437E+02  5.992459316E+02  1.250000000E+02  0.00000E+00  9.000E+00
      25     1     1     2     0     0 -2.302465909E+02  1.536645632E+02 -5.036324119E+01  3.078761872E+02  1.250000000E+02  0.00000E+00  9.000E+00
      -2     1     1     2     0   501 -2.318499164E+02  5.504542075E+01 -3.547768537E+01  2.409212490E+02  2.477718555E-06  0.00000E+00  9.000E+00
#rwgt            1           1   2.5288797294325094E-002          10       27161           0
</event>
<event>
      5   9999  3.19816E-02  9.88806E+00 -1.00000E+00  1.96324E-01
      21    -1     0     0   511   501  0.000000000E+00  0.000000000E+00  6.846575192E+02  6.846575192E+02  0.000000000E+00  0.00000E+00  9.000E+00
      21    -1     0     0   501   502  0.000000000E+00  0.000000000E+00 -2.017540410E+02  2.017540410E+02  0.000000000E+00  0.00000E+00  9.000E+00
      25     1     1     2     0     0 -1.687625562E+02 -9.846290131E+00 -1.112630858E+02  2.378701832E+02  1.250000000E+02  0.00000E+00  9.000E+00
      25     1     1     2     0     0  1.768768872E+02  4.195513455E+00  4.065427506E+02  4.606571867E+02  1.250000000E+02  0.00000E+00  9.000E+00
      21     1     1     2   511   502 -8.114331018E+00  5.650776677E+00  1.876238133E+02  1.878841903E+02  3.814697266E-06  0.00000E+00  9.000E+00
#rwgt            1           1   2.9611881024417260E-002          10       27204           0
</event>
<event>
      5   9999  3.19816E-02  9.13372E+01 -1.00000E+00  1.25624E-01
      21    -1     0     0   502   512  0.000000000E+00  0.000000000E+00  3.635836021E+02  3.635836021E+02  0.000000000E+00  0.00000E+00  9.000E+00
      21    -1     0     0   501   502  0.000000000E+00  0.000000000E+00 -5.996227836E+02  5.996227836E+02  0.000000000E+00  0.00000E+00  9.000E+00
      25     1     1     2     0     0  2.811544589E+02 -1.925124981E+02 -3.422711553E+02  4.988821859E+02  1.250000000E+02  0.00000E+00  9.000E+00
      25     1     1     2     0     0 -1.927147778E+02  1.696890986E+02 -4.355432439E+01  2.888864049E+02  1.250000000E+02  0.00000E+00  9.000E+00
      21     1     1     2   501   512 -8.843968106E+01  2.282339952E+01  1.497862982E+02  1.754377949E+02  2.697398305E-06  0.00000E+00  9.000E+00
#rwgt            1           1   2.8034902547326084E-002          10       27467           0
</event>
<event>
      5   9999  3.19816E-02  6.12593E+01 -1.00000E+00  1.34223E-01
      21    -1     0     0   502   501  0.000000000E+00  0.000000000E+00  1.668206610E+02  1.668206610E+02  0.000000000E+00  0.00000E+00  9.000E+00
      21    -1     0     0   511   502  0.000000000E+00  0.000000000E+00 -1.431169050E+03  1.431169050E+03  0.000000000E+00  0.00000E+00  9.000E+00
      25     1     1     2     0     0  2.066081968E+02  1.231691967E+02 -3.153710252E+02  4.158623349E+02  1.250000000E+02  0.00000E+00  9.000E+00
      25     1     1     2     0     0 -2.596204943E+02 -1.538676207E+02 -1.156067056E+02  3.465082338E+02  1.250000000E+02  0.00000E+00  9.000E+00
      21     1     1     2   511   501  5.301229744E+01  3.069842406E+01 -8.333706579E+02  8.356191420E+02  1.078959322E-05  0.00000E+00  9.000E+00
#rwgt            1           1   2.6665113526362621E-002          10       27537           0
</event>
<event>
      5   9999  3.19816E-02  1.05148E+02 -1.00000E+00  1.22855E-01
      21    -1     0     0   502   501  0.000000000E+00  0.000000000E+00  4.112063905E+02  4.112063905E+02  0.000000000E+00  0.00000E+00  9.000E+00
       2    -1     0     0   501     0  0.000000000E+00  0.000000000E+00 -1.771265507E+03  1.771265507E+03  0.000000000E+00  0.00000E+00  9.000E+00
      25     1     1     2     0     0  3.886657644E+02 -5.574273641E+01 -1.488927749E+02  4.381351246E+02  1.250000000E+02  0.00000E+00  9.000E+00
      25     1     1     2     0     0 -3.885195687E+02 -4.940554776E+01  1.047328650E+02  4.242432515E+02  1.250000000E+02  0.00000E+00  9.000E+00
       2     1     1     2   502     0 -1.461956347E-01  1.051482842E+02 -1.315899206E+03  1.320093521E+03  1.525878906E-05  0.00000E+00  9.000E+00
#rwgt            1           1   2.6444974362227487E-002          10       27634           0
</event>
<event>
      5   9999  3.19816E-02  9.87735E+01 -1.00000E+00  1.24069E-01
      21    -1     0     0   502   501  0.000000000E+00  0.000000000E+00  3.259983783E+02  3.259983783E+02  0.000000000E+00  0.00000E+00  9.000E+00
      21    -1     0     0   511   502  0.000000000E+00  0.000000000E+00 -7.422299738E+02  7.422299738E+02  0.000000000E+00  0.00000E+00  9.000E+00
      25     1     1     2     0     0 -2.933536005E+02  1.119706414E+02  5.253198157E+01  3.420210060E+02  1.250000000E+02  0.00000E+00  9.000E+00
      25     1     1     2     0     0  3.001850573E+02 -1.343367127E+01 -9.415323267E+01  3.387939836E+02  1.250000000E+02  0.00000E+00  9.000E+00
      21     1     1     2   511   501 -6.831456806E+00 -9.853697010E+01 -3.746103444E+02  3.874133625E+02  0.000000000E+00  0.00000E+00  9.000E+00
#rwgt            1           1   2.9754789149857710E-002          10       27774           0
</event>
<event>
      5   9999  3.19816E-02  1.17692E+02 -1.00000E+00  1.20727E-01
       2    -1     0     0   502     0  0.000000000E+00  0.000000000E+00  3.133699088E+03  3.133699088E+03  0.000000000E+00  0.00000E+00  9.000E+00
      21    -1     0     0   501   502  0.000000000E+00  0.000000000E+00 -4.082230038E+02  4.082230038E+02  0.000000000E+00  0.00000E+00  9.000E+00
      25     1     1     2     0     0  7.939711864E+02 -8.479354573E+01  4.518574250E+02  9.259483370E+02  1.250000000E+02  0.00000E+00  9.000E+00
      25     1     1     2     0     0 -6.764768699E+02  9.161287564E+01  5.425483983E+02  8.809072817E+02  1.250000000E+02  0.00000E+00  9.000E+00
       2     1     1     2   501     0 -1.174943165E+02 -6.819329910E+00  1.731070261E+03  1.735066473E+03  3.737624730E-05  0.00000E+00  9.000E+00
#rwgt            1           1   3.5087628346031428E-002          10       27858           0
</event>
<event>
      5   9999  3.19816E-02  1.07306E+03 -1.00000E+00  9.02620E-02
      21    -1     0     0   502   501  0.000000000E+00  0.000000000E+00  1.503356270E+03  1.503356270E+03  0.000000000E+00  0.00000E+00  9.000E+00
       2    -1     0     0   501     0  0.000000000E+00  0.000000000E+00 -2.102791373E+03  2.102791373E+03  0.000000000E+00  0.00000E+00  9.000E+00
      25     1     1     2     0     0 -5.009476925E+02 -1.665695639E+02 -2.375815315E+02  5.922533194E+02  1.250000000E+02  0.00000E+00  9.000E+00
      25     1     1     2     0     0 -4.575365184E+02  6.490288406E+02  9.981064827E+02  1.281569215E+03  1.250000000E+02  0.00000E+00  9.000E+00
       2     1     1     2   502     0  9.584842109E+02 -4.824592767E+02 -1.359960054E+03  1.732325109E+03  2.157918644E-05  0.00000E+00  9.000E+00
#rwgt            1           1   3.2611788428040016E-002          10       28001           0
</event>
<event>
      5   9999  3.19816E-02  2.81794E+01 -1.00000E+00  1.54953E-01
      21    -1     0     0   502   511  0.000000000E+00  0.000000000E+00  2.000777939E+02  2.000777939E+02  0.000000000E+00  0.00000E+00  9.000E+00
      21    -1     0     0   501   502  0.000000000E+00  0.000000000E+00 -3.109994478E+02  3.109994478E+02  0.000000000E+00  0.00000E+00  9.000E+00
      25     1     1     2     0     0 -1.229620708E+02 -1.566722675E+02 -7.432361666E+01  2.466067117E+02  1.250000000E+02  0.00000E+00  9.000E+00
      25     1     1     2     0     0  9.706834126E+01  1.677895957E+02 -4.513325171E+01  2.350268532E+02  1.250000000E+02  0.00000E+00  9.000E+00
      21     1     1     2   501   511  2.589372958E+01 -1.111732824E+01  8.535214411E+00  2.944367681E+01  3.953724850E-07  0.00000E+00  9.000E+00
#rwgt            1           1   3.2218205243686918E-002          10       28051           0
</event>
<event>
      5   9999  3.19816E-02  7.67318E+01 -1.00000E+00  1.29232E-01
      21    -1     0     0   502   501  0.000000000E+00  0.000000000E+00  4.609222261E+02  4.609222261E+02  0.000000000E+00  0.00000E+00  9.000E+00
      21    -1     0     0   501   512  0.000000000E+00  0.000000000E+00 -3.633334148E+02  3.633334148E+02  0.000000000E+00  0.00000E+00  9.000E+00
      25     1     1     2     0     0 -2.718826243E+02  2.668792858E+02 -1.063126594E+01  4.011019052E+02  1.250000000E+02  0.00000E+00  9.000E+00
      25     1     1     2     0     0  2.178833891E+02 -2.123645307E+02  1.086753242E+02  3.464205410E+02  1.250000000E+02  0.00000E+00  9.000E+00
      21     1     1     2   502   512  5.399923515E+01 -5.451475507E+01 -4.552469683E-01  7.673319469E+01  1.931871041E-06  0.00000E+00  9.000E+00
#rwgt            1           1   2.7917324429641170E-002          10       28204           0
</event>
<event>
      5   9999  3.19816E-02  2.79495E+01 -1.00000E+00  1.55207E-01
      21    -1     0     0   502   501  0.000000000E+00  0.000000000E+00  2.313329855E+02  2.313329855E+02  0.000000000E+00  0.00000E+00  9.000E+00
       4    -1     0     0   501     0  0.000000000E+00  0.000000000E+00 -2.860156187E+02  2.860156187E+02  0.000000000E+00  0.00000E+00  9.000E+00
      25     1     1     2     0     0  3.006808800E+01  2.117438806E+01  1.854314168E+02  2.266324226E+02  1.250000000E+02  0.00000E+00  9.000E+00
      25     1     1     2     0     0 -2.048102844E+01 -4.742823172E+01 -1.882656089E+02  2.318142558E+02  1.250000000E+02  0.00000E+00  9.000E+00
       4     1     1     2   502     0 -9.587059560E+00  2.625384367E+01 -5.184844109E+01  5.890192579E+01  6.743495762E-07  0.00000E+00  9.000E+00
#rwgt            1           1   2.8751771103797483E-002          10       28262           0
</event>
<event>
      5   9999  3.19816E-02  1.11259E+01 -1.00000E+00  1.90549E-01
      21    -1     0     0   502   511  0.000000000E+00  0.000000000E+00  9.748264198E+01  9.748264198E+01  0.000000000E+00  0.00000E+00  9.000E+00
      21    -1     0     0   501   502  0.000000000E+00  0.000000000E+00 -1.228085496E+03  1.228085496E+03  0.000000000E+00  0.00000E+00  9.000E+00
      25     1     1     2     0     0  2.695392017E+02  3.830437833E+01 -8.856463937E+02  9.349401806E+02  1.250000000E+02  0.00000E+00  9.000E+00
      25     1     1     2     0     0 -2.608379036E+02 -4.523780656E+01 -2.394615755E+02  3.782191392E+02  1.250000000E+02  0.00000E+00  9.000E+00
      21     1     1     2   501   511 -8.701298109E+00  6.933428229E+00 -5.494885351E+00  1.240881867E+01  1.788139343E-07  0.00000E+00  9.000E+00
#rwgt            1           1   3.0890698120482042E-002          10       28391           0
</event>
<event>
      5   9999  3.19816E-02  2.55457E+02 -1.00000E+00  1.07911E-01
       1    -1     0     0   502     0  0.000000000E+00  0.000000000E+00  7.031336854E+02  7.031336854E+02  0.000000000E+00  0.00000E+00  9.000E+00
      21    -1     0     0   501   502  0.000000000E+00  0.000000000E+00 -3.720138499E+02  3.720138499E+02  0.000000000E+00  0.00000E+00  9.000E+00
      25     1     1     2     0     0 -7.430081791E+01 -2.781622516E+02 -8.851893125E+01  3.261218345E+02  1.250000000E+02  0.00000E+00  9.000E+00
      25     1     1     2     0     0 -1.394991420E+02  1.383488047E+02 -2.707011542E+01  2.344316394E+02  1.250000000E+02  0.00000E+00  9.000E+00
       1     1     1     2   501     0  2.137999599E+02  1.398134468E+02  4.467088821E+02  5.145940615E+02  0.000000000E+00  0.00000E+00  9.000E+00
#rwgt            1           1   2.7843033636543606E-002          10       28683           0
</event>
<event>
      5   9999  3.19816E-02  8.00295E+00 -1.00000E+00  2.07650E-01
      21    -1     0     0   502   501  0.000000000E+00  0.000000000E+00  2.112919448E+03  2.112919448E+03  0.000000000E+00  0.00000E+00  9.000E+00
      21    -1     0     0   511   502  0.000000000E+00  0.000000000E+00 -1.199780373E+02  1.199780373E+02  0.000000000E+00  0.00000E+00  9.000E+00
      25     1     1     2     0     0  1.588131548E+02 -1.326844373E+02  1.834027485E+03  1.849894212E+03  1.250000000E+02  0.00000E+00  9.000E+00
      25     1     1     2     0     0 -1.547810688E+02  1.395974305E+02  2.161233980E+02  3.252367523E+02  1.250000000E+02  0.00000E+00  9.000E+00
      21     1     1     2   511   501 -4.032086030E+00 -6.912993247E+00 -5.720947266E+01  5.776652106E+01  3.303624740E-06  0.00000E+00  9.000E+00
#rwgt            1           1   2.4337005834478433E-002          10       28727           0
</event>
<event>
      5   9999  3.19816E-02  8.54622E+01 -1.00000E+00  1.26976E-01
      21    -1     0     0   502   501  0.000000000E+00  0.000000000E+00  3.792972121E+02  3.792972121E+02  0.000000000E+00  0.00000E+00  9.000E+00
      21    -1     0     0   512   502  0.000000000E+00  0.000000000E+00 -4.139430388E+02  4.139430388E+02  0.000000000E+00  0.00000E+00  9.000E+00
      25     1     1     2     0     0 -8.387263537E+01  1.137160864E+02  2.892085833E+02  3.453006978E+02  1.250000000E+02  0.00000E+00  9.000E+00
      25     1     1     2     0     0  9.017524099E+00 -7.247889453E+01 -3.813476889E+01  1.497122790E+02  1.250000000E+02  0.00000E+00  9.000E+00
      21     1     1     2   512   501  7.485511127E+01 -4.123719184E+01 -2.857196412E+02  2.982272741E+02  5.394796609E-06  0.00000E+00  9.000E+00
#rwgt            1           1   2.9970884484331838E-002          10       29059           0
</event>
<event>
      5   9999  3.19816E-02  1.56716E+02 -1.00000E+00  1.15645E-01
      21    -1     0     0   502   501  0.000000000E+00  0.000000000E+00  2.731738083E+02  2.731738083E+02  0.000000000E+00  0.00000E+00  9.000E+00
      21    -1     0     0   501   511  0.000000000E+00  0.000000000E+00 -8.816875259E+02  8.816875259E+02  0.000000000E+00  0.00000E+00  9.000E+00
      25     1     1     2     0     0  4.179527908E+02  1.336050636E+02 -1.627734576E+02  4.844120631E+02  1.250000000E+02  0.00000E+00  9.000E+00
      25     1     1     2     0     0 -2.612802760E+02 -1.373067678E+02 -1.963221356E+02  3.758828435E+02  1.250000000E+02  0.00000E+00  9.000E+00
      21     1     1     2   502   511 -1.566725148E+02  3.701704224E+00 -2.494181244E+02  2.945664276E+02  4.672030912E-06  0.00000E+00  9.000E+00
#rwgt            2          11   3.1238006784876354E-003          10       29171           0
</event>
<event>
      5   9999  3.19816E-02  1.80610E+02 -1.00000E+00  1.13284E-01
      21    -1     0     0   502   501  0.000000000E+00  0.000000000E+00  8.303954141E+02  8.303954141E+02  0.000000000E+00  0.00000E+00  9.000E+00
      21    -1     0     0   501   512  0.000000000E+00  0.000000000E+00 -3.757267959E+02  3.757267959E+02  0.000000000E+00  0.00000E+00  9.000E+00
      25     1     1     2     0     0 -2.083129751E+02  2.303576159E+02  2.605401952E+02  4.242229604E+02  1.250000000E+02  0.00000E+00  9.000E+00
      25     1     1     2     0     0  3.808176411E+02 -2.838566559E+02  2.970853803E+02  5.740047039E+02  1.250000000E+02  0.00000E+00  9.000E+00
      21     1     1     2   502   512 -1.725046660E+02  5.349903993E+01 -1.029569573E+02  2.078945457E+02  4.264961200E-06  0.00000E+00  9.000E+00
#rwgt            2          11   4.0360036701775166E-003          10       29266           0
</event>
<event>
      5   9999  3.19816E-02  7.51118E+01 -1.00000E+00  1.29689E-01
       2    -1     0     0   502     0  0.000000000E+00  0.000000000E+00  2.471128399E+02  2.471128399E+02  0.000000000E+00  0.00000E+00  9.000E+00
      21    -1     0     0   501   502  0.000000000E+00  0.000000000E+00 -7.219096662E+02  7.219096662E+02  0.000000000E+00  0.00000E+00  9.000E+00
      25     1     1     2     0     0 -3.493325459E+01 -2.740627734E+02 -8.656849479E+01  3.153566874E+02  1.250000000E+02  0.00000E+00  9.000E+00
      25     1     1     2     0     0 -2.895636606E+01  2.345672741E+02 -4.711850286E+02  5.417569644E+02  1.250000000E+02  0.00000E+00  9.000E+00
       2     1     1     2   501     0  6.388962064E+01  3.949549925E+01  8.295669709E+01  1.119088543E+02  1.348699152E-06  0.00000E+00  9.000E+00
#rwgt            1           1   2.8342419251805331E-002          10       29286           0
</event>
<event>
      5   9999  3.19816E-02  1.61223E+01 -1.00000E+00  1.74482E-01
      21    -1     0     0   502   511  0.000000000E+00  0.000000000E+00  1.007454866E+03  1.007454866E+03  0.000000000E+00  0.00000E+00  9.000E+00
      21    -1     0     0   501   502  0.000000000E+00  0.000000000E+00 -1.292944299E+02  1.292944299E+02  0.000000000E+00  0.00000E+00  9.000E+00
      25     1     1     2     0     0 -3.778566367E+01 -1.972725508E+02  1.486285202E+02  2.793915760E+02  1.250000000E+02  0.00000E+00  9.000E+00
      25     1     1     2     0     0  2.198169144E+01  1.940847264E+02  1.469192465E+02  2.745220224E+02  1.250000000E+02  0.00000E+00  9.000E+00
      21     1     1     2   501   511  1.580397224E+01  3.187824422E+00  5.826126691E+02  5.828356973E+02  1.078959322E-05  0.00000E+00  9.000E+00
#rwgt            1           1   2.7032135656933087E-002          10       29353           0
</event>
<event>
      5   9999  3.19816E-02  3.32603E+02 -1.00000E+00  1.04156E-01
      21    -1     0     0   512   501  0.000000000E+00  0.000000000E+00  1.027014150E+03  1.027014150E+03  0.000000000E+00  0.00000E+00  9.000E+00
      21    -1     0     0   501   502  0.000000000E+00  0.000000000E+00 -2.641696917E+02  2.641696917E+02  0.000000000E+00  0.00000E+00  9.000E+00
      25     1     1     2     0     0 -8.098669778E+01 -7.567340358E+01  1.905535568E+02  2.534185614E+02  1.250000000E+02  0.00000E+00  9.000E+00
      25     1     1     2     0     0 -2.480504620E+02  1.242443057E+02 -7.199977743E+01  3.126893781E+02  1.250000000E+02  0.00000E+00  9.000E+00
      21     1     1     2   512   502  3.290371598E+02 -4.857090216E+01  6.442906789E+02  7.250759022E+02  1.078959322E-05  0.00000E+00  9.000E+00
#rwgt            1           1   3.0848204221559008E-002          10       29511           0
</event>
<event>
      5   9999  3.19816E-02  7.93583E+01 -1.00000E+00  1.28519E-01
      21    -1     0     0   502   511  0.000000000E+00  0.000000000E+00  7.024185505E+02  7.024185505E+02  0.000000000E+00  0.00000E+00  9.000E+00
      21    -1     0     0   501   502  0.000000000E+00  0.000000000E+00 -1.389061459E+02  1.389061459E+02  0.000000000E+00  0.00000E+00  9.000E+00
      25     1     1     2     0     0  1.675646343E+02  1.232861531E+02  1.613198827E+02  2.914214933E+02  1.250000000E+02  0.00000E+00  9.000E+00
      25     1     1     2     0     0 -1.572545115E+02 -2.019718468E+02  2.533451456E+02  3.812222070E+02  1.250000000E+02  0.00000E+00  9.000E+00
      21     1     1     2   501   511 -1.031012282E+01  7.868569368E+01  1.488473762E+02  1.686809961E+02  1.907348633E-06  0.00000E+00  9.000E+00
#rwgt            1           1   3.0503921559267889E-002          10       29551           0
</event>
<event>
      5   9999  3.19816E-02  3.13537E+01 -1.00000E+00  1.51720E-01
      21    -1     0     0   512   501  0.000000000E+00  0.000000000E+00  1.123661630E+03  1.123661630E+03  0.000000000E+00  0.00000E+00  9.000E+00
      21    -1     0     0   501   502  0.000000000E+00  0.000000000E+00 -3.992567486E+01  3.992567486E+01  0.000000000E+00  0.00000E+00  9.000E+00
      25     1     1     2     0     0 -1.385179917E+02 -5.126041344E+01  3.739200328E+02  4.210178796E+02  1.250000000E+02  0.00000E+00  9.000E+00
      25     1     1     2     0     0  1.369501779E+02  1.994590877E+01  5.941982814E+02  6.227758731E+02  1.250000000E+02  0.00000E+00  9.000E+00
      21     1     1     2   512   502  1.567813731E+00  3.131450467E+01  1.156176412E+02  1.197935524E+02  1.348699152E-06  0.00000E+00  9.000E+00
#rwgt            1           1   2.9572801770935776E-002          10       29597           0
</event>
<event>
      5   9999  3.19816E-02  4.03611E+01 -1.00000E+00  1.44599E-01
      21    -1     0     0   502   511  0.000000000E+00  0.000000000E+00  7.176237577E+02  7.176237577E+02  0.000000000E+00  0.00000E+00  9.000E+00
      21    -1     0     0   501   502  0.000000000E+00  0.000000000E+00 -4.484576734E+02  4.484576734E+02  0.000000000E+00  0.00000E+00  9.000E+00
      25     1     1     2     0     0  1.626512033E+02 -1.929704985E+02  3.492205254E+02  4.486345981E+02  1.250000000E+02  0.00000E+00  9.000E+00
      25     1     1     2     0     0 -1.893766180E+02  2.232156130E+02 -3.333780922E+02  4.609280483E+02  1.250000000E+02  0.00000E+00  9.000E+00
      21     1     1     2   501   511  2.672541479E+01 -3.024511455E+01  2.533236510E+02  2.565187847E+02  3.814697266E-06  0.00000E+00  9.000E+00
#rwgt            1           1   2.8238125903292891E-002          10       29713           0
</event>
<event>
      5   9999  3.19816E-02  3.48373E+01 -1.00000E+00  1.48663E-01
      21    -1     0     0   512   501  0.000000000E+00  0.000000000E+00  8.166503807E+02  8.166503807E+02  0.000000000E+00  0.00000E+00  9.000E+00
      21    -1     0     0   501   502  0.000000000E+00  0.000000000E+00 -4.088837029E+01  4.088837029E+01  0.000000000E+00  0.00000E+00  9.000E+00
      25     1     1     2     0     0  3.277072970E+01 -1.624157724E+01  5.507882346E+02  5.659773750E+02  1.250000000E+02  0.00000E+00  9.000E+00
      25     1     1     2     0     0 -5.904609072E+01  3.911607744E+01  1.440145256E+02  2.034249049E+02  1.250000000E+02  0.00000E+00  9.000E+00
      21     1     1     2   512   502  2.627536101E+01 -2.287450021E+01  8.095925022E+01  8.813647119E+01  0.000000000E+00  0.00000E+00  9.000E+00
#rwgt            1           1   2.5677609485325964E-002          10       29887           0
</event>
<event>
      5   9999  3.19816E-02  1.30839E+02 -1.00000E+00  1.18796E-01
      21    -1     0     0   502   501  0.000000000E+00  0.000000000E+00  1.466559450E+03  1.466559450E+03  0.000000000E+00  0.00000E+00  9.000E+00
      21    -1     0     0   501   511  0.000000000E+00  0.000000000E+00 -1.596949135E+03  1.596949135E+03  0.000000000E+00  0.00000E+00  9.000E+00
      25     1     1     2     0     0  1.394322767E+02 -2.747182764E+02 -1.470792743E+03  1.507901782E+03  1.250000000E+02  0.00000E+00  9.000E+00
      25     1     1     2     0     0 -4.461439483E+01  1.845607762E+02  1.395314904E+03  1.413712066E+03  1.250000000E+02  0.00000E+00  9.000E+00
      21     1     1     2   502   511 -9.481788186E+01  9.015750026E+01 -5.491184672E+01  1.418947373E+02  1.348699152E-06  0.00000E+00  9.000E+00
#rwgt            1           1   2.1590431945272808E-002          10       29950           0
</event>
<event>
      5   9999  3.19816E-02  1.66067E+02 -1.00000E+00  1.14669E-01
      21    -1     0     0   502   512  0.000000000E+00  0.000000000E+00  6.763625248E+02  6.763625248E+02  0.000000000E+00  0.00000E+00  9.000E+00
      21    -1     0     0   501   502  0.000000000E+00  0.000000000E+00 -2.387063293E+02  2.387063293E+02  0.000000000E+00  0.00000E+00  9.000E+00
      25     1     1     2     0     0  2.290854013E+02 -4.738270824E+01 -4.633698599E+01  2.692533350E+02  1.250000000E+02  0.00000E+00  9.000E+00
      25     1     1     2     0     0 -1.896890882E+02 -1.139437407E+02  2.325670129E+02  3.444960692E+02  1.250000000E+02  0.00000E+00  9.000E+00
      21     1     1     2   501   512 -3.939631311E+01  1.613264490E+02  2.514261686E+02  3.013194499E+02  4.672030912E-06  0.00000E+00  9.000E+00
#rwgt            2          11   2.8648293247248531E-003          10       30041           0
</event>
<event>
      5   9999  3.19816E-02  4.16610E+01 -1.00000E+00  1.43753E-01
       1    -1     0     0   502     0  0.000000000E+00  0.000000000E+00  9.455277142E+02  9.455277142E+02  0.000000000E+00  0.00000E+00  9.000E+00
      21    -1     0     0   501   502  0.000000000E+00  0.000000000E+00 -8.681366909E+01  8.681366909E+01  0.000000000E+00  0.00000E+00  9.000E+00
      25     1     1     2     0     0 -1.151787526E+02  2.194828755E+01  2.734062503E+01  1.735522462E+02  1.250000000E+02  0.00000E+00  9.000E+00
      25     1     1     2     0     0  7.452061027E+01 -1.286240407E+01  4.079450428E+02  4.333161903E+02  1.250000000E+02  0.00000E+00  9.000E+00
       1     1     1     2   501     0  4.065814234E+01 -9.085883471E+00  4.234283773E+02  4.254729468E+02  5.394796609E-06  0.00000E+00  9.000E+00
#rwgt            1           1   2.7288213727230125E-002          10       30061           0
</event>
<event>
      5   9999  3.19816E-02  1.62212E+01 -1.00000E+00  1.74240E-01
      21    -1     0     0   511   501  0.000000000E+00  0.000000000E+00  3.249695183E+01  3.249695183E+01  0.000000000E+00  0.00000E+00  9.000E+00
      21    -1     0     0   501   502  0.000000000E+00  0.000000000E+00 -1.280022115E+03  1.280022115E+03  0.000000000E+00  0.00000E+00  9.000E+00
      25     1     1     2     0     0  3.423542350E+01  8.745984242E+01 -7.206593408E+02  7.374253683E+02  1.250000000E+02  0.00000E+00  9.000E+00
      25     1     1     2     0     0 -3.853802285E+01 -1.031000026E+02 -5.324865793E+02  5.579262916E+02  1.250000000E+02  0.00000E+00  9.000E+00
      21     1     1     2   511   502  4.302599344E+00  1.564016022E+01  5.620756502E+00  1.716740739E+01  7.539457465E-07  0.00000E+00  9.000E+00
#rwgt            1           1   4.5372182770387084E-002          10       30203           0
</event>
<event>
      5   9999  3.19816E-02  6.56824E+01 -1.00000E+00  1.32636E-01
      21    -1     0     0   502   501  0.000000000E+00  0.000000000E+00  7.762470533E+02  7.762470533E+02  0.000000000E+00  0.00000E+00  9.000E+00
      21    -1     0     0   512   502  0.000000000E+00  0.000000000E+00 -1.666481245E+02  1.666481245E+02  0.000000000E+00  0.00000E+00  9.000E+00
      25     1     1     2     0     0  2.156935167E+02  1.200033831E+02  2.601024472E+02  3.797404220E+02  1.250000000E+02  0.00000E+00  9.000E+00
      25     1     1     2     0     0 -2.795646862E+02 -1.046852535E+02  3.725984093E+02  4.935281053E+02  1.250000000E+02  0.00000E+00  9.000E+00
      21     1     1     2   512   501  6.387116955E+01 -1.531812970E+01 -2.310192770E+01  6.962665051E+01  7.539457465E-07  0.00000E+00  9.000E+00
#rwgt            1           1   3.1796588967401368E-002          10       30352           0
</event>
<event>
      5   9999  3.19816E-02  4.11482E+01 -1.00000E+00  1.44082E-01
      21    -1     0     0   502   501  0.000000000E+00  0.000000000E+00  6.559669503E+02  6.559669503E+02  0.000000000E+00  0.00000E+00  9.000E+00
      21    -1     0     0   511   502  0.000000000E+00  0.000000000E+00 -7.938043543E+01  7.938043543E+01  0.000000000E+00  0.00000E+00  9.000E+00
      25     1     1     2     0     0 -1.451724845E+01 -5.999628394E+01  3.074145134E+01  1.427597332E+02  1.250000000E+02  0.00000E+00  9.000E+00
      25     1     1     2     0     0  5.510282786E+01  5.321519868E+01  5.275745759E+02  5.475656236E+02  1.250000000E+02  0.00000E+00  9.000E+00
      21     1     1     2   511   501 -4.058557941E+01  6.781085259E+00  1.827048767E+01  4.502202897E+01  6.743495762E-07  0.00000E+00  9.000E+00
#rwgt            1           1   2.9135051410584256E-002          10       30443           0
</event>
<event>
      5   9999  3.19816E-02  1.35913E+02 -1.00000E+00  1.18117E-01
      21    -1     0     0   502   512  0.000000000E+00  0.000000000E+00  3.128287649E+02  3.128287649E+02  0.000000000E+00  0.00000E+00  9.000E+00
      21    -1     0     0   501   502  0.000000000E+00  0.000000000E+00 -3.369860577E+02  3.369860577E+02  0.000000000E+00  0.00000E+00  9.000E+00
      25     1     1     2     0     0 -1.228739322E+02 -3.621522148E+01  1.961112710E+01  1.800531638E+02  1.250000000E+02  0.00000E+00  9.000E+00
      25     1     1     2     0     0  1.902884297E+02  1.542301360E+02 -1.347237754E+02  3.062223326E+02  1.250000000E+02  0.00000E+00  9.000E+00
      21     1     1     2   501   512 -6.741449745E+01 -1.180149145E+02  9.095535554E+01  1.635393262E+02  1.348699152E-06  0.00000E+00  9.000E+00
#rwgt            1           1   2.6731474793876969E-002          10       30525           0
</event>
<event>
      5   9999  3.19816E-02  1.87298E+01 -1.00000E+00  1.68755E-01
      21    -1     0     0   502   501  0.000000000E+00  0.000000000E+00  4.054336366E+02  4.054336366E+02  0.000000000E+00  0.00000E+00  9.000E+00
      21    -1     0     0   511   502  0.000000000E+00  0.000000000E+00 -6.633592914E+02  6.633592914E+02  0.000000000E+00  0.00000E+00  9.000E+00
      25     1     1     2     0     0 -3.887191144E+02  1.940329391E+02 -1.113149786E+02  4.655828131E+02  1.250000000E+02  0.00000E+00  9.000E+00
      25     1     1     2     0     0  4.049540471E+02 -1.846931495E+02 -7.007804677E+00  4.623564091E+02  1.250000000E+02  0.00000E+00  9.000E+00
      21     1     1     2   511   501 -1.623493269E+01 -9.339789568E+00 -1.396028716E+02  1.408537059E+02  1.907348633E-06  0.00000E+00  9.000E+00
#rwgt            1           1   3.0561605629510505E-002          10       30573           0
</event>
<event>
      5   9999  3.19816E-02  2.91984E+01 -1.00000E+00  1.53861E-01
      21    -1     0     0   502   501  0.000000000E+00  0.000000000E+00  2.115635844E+02  2.115635844E+02  0.000000000E+00  0.00000E+00  9.000E+00
       2    -1     0     0   501     0  0.000000000E+00  0.000000000E+00 -3.240092194E+03  3.240092194E+03  0.000000000E+00  0.00000E+00  9.000E+00
      25     1     1     2     0     0 -1.385774492E+02  3.777522512E+02 -1.185953701E+03  1.258575248E+03  1.250000000E+02  0.00000E+00  9.000E+00
      25     1     1     2     0     0  1.557633460E+02 -4.013571861E+02 -1.117646037E+02  4.620239576E+02  1.250000000E+02  0.00000E+00  9.000E+00
       2     1     1     2   502     0 -1.718589686E+01  2.360493491E+01 -1.730810305E+03  1.731056573E+03  0.000000000E+00  0.00000E+00  9.000E+00
#rwgt            1           1   2.8369962054616053E-002          10       30782           0
</event>
<event>
      5   9999  3.19816E-02  2.88078E+01 -1.00000E+00  1.54273E-01
      21    -1     0     0   502   501  0.000000000E+00  0.000000000E+00  3.718101654E+02  3.718101654E+02  0.000000000E+00  0.00000E+00  9.000E+00
       2    -1     0     0   501     0  0.000000000E+00  0.000000000E+00 -2.479314924E+03  2.479314924E+03  0.000000000E+00  0.00000E+00  9.000E+00
      25     1     1     2     0     0  2.109964270E+02 -5.884103983E+02 -4.109812568E+01  6.387960121E+02  1.250000000E+02  0.00000E+00  9.000E+00
      25     1     1     2     0     0 -1.913673082E+02  5.673251910E+02 -1.213428479E+03  1.358864597E+03  1.250000000E+02  0.00000E+00  9.000E+00
       2     1     1     2   502     0 -1.962911880E+01  2.108520737E+01 -8.529781542E+02  8.534644807E+02  1.078959322E-05  0.00000E+00  9.000E+00
#rwgt            1           1   3.2103317474096095E-002          10       31047           0
</event>
<event>
      5   9999  3.19816E-02  1.67249E+02 -1.00000E+00  1.14550E-01
      21    -1     0     0   511   501  0.000000000E+00  0.000000000E+00  8.151833072E+02  8.151833072E+02  0.000000000E+00  0.00000E+00  9.000E+00
      21    -1     0     0   501   502  0.000000000E+00  0.000000000E+00 -4.052536123E+02  4.052536123E+02  0.000000000E+00  0.00000E+00  9.000E+00
      25     1     1     2     0     0  2.851698002E+02 -4.341541512E+02  5.790250592E+01  5.373912375E+02  1.250000000E+02  0.00000E+00  9.000E+00
      25     1     1     2     0     0 -2.021516252E+02  2.889642794E+02  1.121135366E+02  3.905894001E+02  1.250000000E+02  0.00000E+00  9.000E+00
      21     1     1     2   511   502 -8.301817502E+01  1.451898718E+02  2.399136523E+02  2.924562819E+02  2.697398305E-06  0.00000E+00  9.000E+00
#rwgt            1           1   2.8625915517890951E-002          10       31353           0
</event>
<event>
      5   9999  3.19816E-02  3.46119E+01 -1.00000E+00  1.48848E-01
       2    -1     0     0   502     0  0.000000000E+00  0.000000000E+00  1.560847593E+03  1.560847593E+03  0.000000000E+00  0.00000E+00  9.000E+00
      21    -1     0     0   501   502  0.000000000E+00  0.000000000E+00 -7.864007003E+02  7.864007003E+02  0.000000000E+00  0.00000E+00  9.000E+00
      25     1     1     2     0     0 -3.616962968E+02  5.689722117E+01  3.099880027E+02  4.957610984E+02  1.250000000E+02  0.00000E+00  9.000E+00
      25     1     1     2     0     0  3.410329579E+02 -8.466426582E+01 -6.430823324E+02  7.434052748E+02  1.250000000E+02  0.00000E+00  9.000E+00
       2     1     1     2   501     0  2.066333887E+01  2.776704465E+01  1.107541223E+03  1.108081920E+03  2.157918644E-05  0.00000E+00  9.000E+00
#rwgt            2          18   1.5249322516441687E-003          10       31397           0
</event>
<event>
      5   9999  3.19816E-02  5.76758E+01 -1.00000E+00  1.35627E-01
       1    -1     0     0   502     0  0.000000000E+00  0.000000000E+00  3.061860501E+03  3.061860501E+03  0.000000000E+00  0.00000E+00  9.000E+00
      21    -1     0     0   501   502  0.000000000E+00  0.000000000E+00 -2.052469370E+02  2.052469370E+02  0.000000000E+00  0.00000E+00  9.000E+00
      25     1     1     2     0     0  7.789458123E+01  2.689421774E+02 -6.492933934E+01  3.134298640E+02  1.250000000E+02  0.00000E+00  9.000E+00
      25     1     1     2     0     0 -8.519305573E+01 -2.117300710E+02  1.068216236E+03  1.099453686E+03  1.250000000E+02  0.00000E+00  9.000E+00
       1     1     1     2   501     0  7.298474502E+00 -5.721210644E+01  1.853326668E+03  1.854223889E+03  0.000000000E+00  0.00000E+00  9.000E+00
#rwgt            1           1   2.5106571223291223E-002          10       31446           0
</event>
<event>
      5   9999  3.19816E-02  4.66324E+01 -1.00000E+00  1.40826E-01
      21    -1     0     0   511   501  0.000000000E+00  0.000000000E+00  5.781262502E+01  5.781262502E+01  0.000000000E+00  0.00000E+00  9.000E+00
      21    -1     0     0   501   502  0.000000000E+00  0.000000000E+00 -1.737016534E+03  1.737016534E+03  0.000000000E+00  0.00000E+00  9.000E+00
      25     1     1     2     0     0  1.491866910E+02 -4.303684483E+01 -1.477249103E+03  1.490637028E+03  1.250000000E+02  0.00000E+00  9.000E+00
      25     1     1     2     0     0 -1.065798977E+02  6.199059717E+01 -1.300716549E+02  2.185079956E+02  1.250000000E+02  0.00000E+00  9.000E+00
      21     1     1     2   511   502 -4.260679323E+01 -1.895375234E+01 -7.188315146E+01  8.568413518E+01  9.536743164E-07  0.00000E+00  9.000E+00
#rwgt            1           1   3.3338384566206802E-002          10       31581           0
</event>
<event>
      5   9999  3.19816E-02  2.86985E+01 -1.00000E+00  1.54390E-01
      21    -1     0     0   502   501  0.000000000E+00  0.000000000E+00  3.430337304E+02  3.430337304E+02  0.000000000E+00  0.00000E+00  9.000E+00
      21    -1     0     0   512   502  0.000000000E+00  0.000000000E+00 -6.825454942E+02  6.825454942E+02  0.000000000E+00  0.00000E+00  9.000E+00
      25     1     1     2     0     0  2.763035567E+01  4.804839576E+01 -2.167278385E+02  2.562577626E+02  1.250000000E+02  0.00000E+00  9.000E+00
      25     1     1     2     0     0 -6.169385145E+00 -2.899502149E+01  3.100115555E+02  3.355755312E+02  1.250000000E+02  0.00000E+00  9.000E+00
      21     1     1     2   512   501 -2.146097053E+01 -1.905337427E+01 -4.327954808E+02  4.337459308E+02  5.394796609E-06  0.00000E+00  9.000E+00
#rwgt            1           1   3.1036607219628344E-002          10       31732           0
</event>
<event>
      5   9999  3.19816E-02  7.82899E+00 -1.00000E+00  2.08905E-01
      21    -1     0     0   502   511  0.000000000E+00  0.000000000E+00  3.006009771E+02  3.006009771E+02  0.000000000E+00  0.00000E+00  9.000E+00
      21    -1     0     0   501   502  0.000000000E+00  0.000000000E+00 -4.474534246E+02  4.474534246E+02  0.000000000E+00  0.00000E+00  9.000E+00
      25     1     1     2     0     0 -8.555546893E+01  3.024378025E+02  5.008923270E+01  3.419390207E+02  1.250000000E+02  0.00000E+00  9.000E+00
      25     1     1     2     0     0  8.328596964E+01 -3.099306308E+02 -1.993259524E+02  3.979313810E+02  1.250000000E+02  0.00000E+00  9.000E+00
      21     1     1     2   501   511  2.269499288E+00  7.492828290E+00  2.384272241E+00  8.184000056E+00  1.192092896E-07  0.00000E+00  9.000E+00
#rwgt            1           1   2.8099374936698087E-002          10       31854           0
</event>
<event>
      5   9999  3.19816E-02  2.98200E+01 -1.00000E+00  1.53222E-01
      21    -1     0     0   502   501  0.000000000E+00  0.000000000E+00  6.155834266E+02  6.155834266E+02  0.000000000E+00  0.00000E+00  9.000E+00
      21    -1     0     0   512   502  0.000000000E+00  0.000000000E+00 -2.033693972E+02  2.033693972E+02  0.000000000E+00  0.00000E+00  9.000E+00
      25     1     1     2     0     0  2.508096779E+02 -8.995236411E+01 -7.015714798E+00  2.943996308E+02  1.250000000E+02  0.00000E+00  9.000E+00
      25     1     1     2     0     0 -2.244322563E+02  1.038615537E+02  4.068875238E+02  4.922799173E+02  1.250000000E+02  0.00000E+00  9.000E+00
      21     1     1     2   512   501 -2.637742164E+01 -1.390918959E+01  1.234222044E+01  3.227327583E+01  4.768371582E-07  0.00000E+00  9.000E+00
#rwgt            1           1   2.8295884234391982E-002          10       32236           0
</event>
<event>
      5   9999  3.19816E-02  5.44959E+01 -1.00000E+00  1.36975E-01
       1    -1     0     0   502     0  0.000000000E+00  0.000000000E+00  8.833032368E+02  8.833032368E+02  0.000000000E+00  0.00000E+00  9.000E+00
      21    -1     0     0   501   502  0.000000000E+00  0.000000000E+00 -3.442393016E+02  3.442393016E+02  0.000000000E+00  0.00000E+00  9.000E+00
      25     1     1     2     0     0  1.734168622E+02  3.384626784E+02 -1.182819348E+02  4.174278487E+02  1.250000000E+02  0.00000E+00  9.000E+00
      25     1     1     2     0     0 -1.911584675E+02 -2.869355915E+02  3.824691026E+02  5.298879200E+02  1.250000000E+02  0.00000E+00  9.000E+00
       1     1     1     2   501     0  1.774160533E+01 -5.152708691E+01  2.748767673E+02  2.802267697E+02  3.814697266E-06  0.00000E+00  9.000E+00
#rwgt            1           1   3.1536427692329110E-002          10       32373           0
</event>
<event>
      5   9999  3.19816E-02  2.71327E+01 -1.00000E+00  1.56133E-01
      21    -1     0     0   511   501  0.000000000E+00  0.000000000E+00  2.195421064E+03  2.195421064E+03  0.000000000E+00  0.00000E+00  9.000E+00
      21    -1     0     0   501   502  0.000000000E+00  0.000000000E+00 -6.252313234E+01  6.252313234E+01  0.000000000E+00  0.00000E+00  9.000E+00
      25     1     1     2     0     0  5.361597743E+01  5.006192131E+01  3.100929629E+01  1.482141878E+02  1.250000000E+02  0.00000E+00  9.000E+00
      25     1     1     2     0     0 -3.443538074E+01 -6.925270269E+01  1.488165309E+03  1.495407209E+03  1.250000000E+02  0.00000E+00  9.000E+00
      21     1     1     2   511   502 -1.918059668E+01  1.919078139E+01  6.137233256E+02  6.143227993E+02  0.000000000E+00  0.00000E+00  9.000E+00
#rwgt            1           1   2.1169122718297316E-002          10       32500           0
</event>
<event>
      5   9999  3.19816E-02  5.86367E+01 -1.00000E+00  1.35239E-01
      21    -1     0     0   502   501  0.000000000E+00  0.000000000E+00  2.422598648E+02  2.422598648E+02  0.000000000E+00  0.00000E+00  9.000E+00
       1    -1     0     0   501     0  0.000000000E+00  0.000000000E+00 -9.510728320E+02  9.510728320E+02  0.000000000E+00  0.00000E+00  9.000E+00
      25     1     1     2     0     0 -1.477586843E+02 -2.419361737E+02 -4.952461731E+02  5.841742145E+02  1.250000000E+02  0.00000E+00  9.000E+00
      25     1     1     2     0     0  1.536429502E+02  1.835954550E+02  1.016251504E+02  2.885586915E+02  1.250000000E+02  0.00000E+00  9.000E+00
       1     1     1     2   502     0 -5.884265927E+00  5.834071869E+01 -3.151919445E+02  3.205997908E+02  0.000000000E+00  0.00000E+00  9.000E+00
#rwgt            1           1   2.8515446320251832E-002          10       32632           0
</event>
<event>
      5   9999  3.19816E-02  2.73047E+02 -1.00000E+00  1.06938E-01
      21    -1     0     0   502   501  0.000000000E+00  0.000000000E+00  5.352763483E+02  5.352763483E+02  0.000000000E+00  0.00000E+00  9.000E+00
       2    -1     0     0   501     0  0.000000000E+00  0.000000000E+00 -2.146189441E+03  2.146189441E+03  0.000000000E+00  0.00000E+00  9.000E+00
      25     1     1     2     0     0  3.151834313E+01 -1.872615135E+02  2.309885426E+02  3.241002734E+02  1.250000000E+02  0.00000E+00  9.000E+00
      25     1     1     2     0     0 -2.284689253E+02  3.763788162E+02  3.657009599E+01  4.591529538E+02  1.250000000E+02  0.00000E+00  9.000E+00
       2     1     1     2   502     0  1.969505822E+02 -1.891173026E+02 -1.878471732E+03  1.898212562E+03  0.000000000E+00  0.00000E+00  9.000E+00
#rwgt            1           1   3.1662773222717371E-002          10       32745           0
</event>
<event>
      5   9999  3.19816E-02  9.38605E+01 -1.00000E+00  1.25078E-01
      21    -1     0     0   502   501  0.000000000E+00  0.000000000E+00  6.365551671E+02  6.365551671E+02  0.000000000E+00  0.00000E+00  9.000E+00
       2    -1     0     0   501     0  0.000000000E+00  0.000000000E+00 -3.470462560E+03  3.470462560E+03  0.000000000E+00  0.00000E+00  9.000E+00
      25     1     1     2     0     0  3.501778206E+02 -6.511223679E+02 -2.438950501E+02  7.884761503E+02  1.250000000E+02  0.00000E+00  9.000E+00
      25     1     1     2     0     0 -2.920199722E+02  5.774510351E+02  6.465408372E+01  6.622163639E+02  1.250000000E+02  0.00000E+00  9.000E+00
       2     1     1     2   502     0 -5.815784837E+01  7.367133282E+01 -2.654666427E+03  2.656325213E+03  3.051757812E-05  0.00000E+00  9.000E+00
#rwgt            1           1   3.1396909447675168E-002          10       32829           0
</event>
<event>
      5   9999  3.19816E-02  9.95548E+01 -1.00000E+00  1.23915E-01
      21    -1     0     0   502   511  0.000000000E+00  0.000000000E+00  1.736146555E+03  1.736146555E+03  0.000000000E+00  0.00000E+00  9.000E+00
      21    -1     0     0   501   502  0.000000000E+00  0.000000000E+00 -8.879852823E+02  8.879852823E+02  0.000000000E+00  0.00000E+00  9.000E+00
      25     1     1     2     0     0  2.719662225E+01  1.816146256E+02  1.101820658E+02  2.479689822E+02  1.250000000E+02  0.00000E+00  9.000E+00
      25     1     1     2     0     0  6.121875982E+01 -1.358557945E+02 -8.059197732E+02  8.290574252E+02  1.250000000E+02  0.00000E+00  9.000E+00
      21     1     1     2   501   511 -8.841538207E+01 -4.575883117E+01  1.543898980E+03  1.547105430E+03  2.157918644E-05  0.00000E+00  9.000E+00
#rwgt            1           1   2.7123115584175274E-002          10       32946           0
</event>
<event>
      5   9999  3.19816E-02  2.28445E+02 -1.00000E+00  1.09585E-01
      21    -1     0     0   502   501  0.000000000E+00  0.000000000E+00  5.601294938E+02  5.601294938E+02  0.000000000E+00  0.00000E+00  9.000E+00
      21    -1     0     0   501   512  0.000000000E+00  0.000000000E+00 -7.354594877E+02  7.354594877E+02  0.000000000E+00  0.00000E+00  9.000E+00
      25     1     1     2     0     0 -3.214871549E+02  3.144353980E+02  3.409880232E+02  5.780323886E+02  1.250000000E+02  0.00000E+00  9.000E+00
      25     1     1     2     0     0  1.371630254E+02 -1.794848944E+02 -3.502937058E+02  4.351542292E+02  1.250000000E+02  0.00000E+00  9.000E+00
      21     1     1     2   502   512  1.843241295E+02 -1.349505036E+02 -1.660243113E+02  2.824023638E+02  6.031565972E-06  0.00000E+00  9.000E+00
#rwgt            1           1   2.8129494956397081E-002          10       33047           0
</event>
<event>
      5   9999  3.19816E-02  5.85976E+01 -1.00000E+00  1.35255E-01
      21    -1     0     0   502   501  0.000000000E+00  0.000000000E+00  1.806017756E+02  1.806017756E+02  0.000000000E+00  0.00000E+00  9.000E+00
      21    -1     0     0   511   502  0.000000000E+00  0.000000000E+00 -3.068481533E+03  3.068481533E+03  0.000000000E+00  0.00000E+00  9.000E+00
      25     1     1     2     0     0  1.270934127E+02 -5.734393978E+02 -2.226624751E+03  2.306180449E+03  1.250000000E+02  0.00000E+00  9.000E+00
      25     1     1     2     0     0 -6.983445167E+01  5.609859504E+02 -4.789084725E+02  7.513723525E+02  1.250000000E+02  0.00000E+00  9.000E+00
      21     1     1     2   511   501 -5.725896108E+01  1.245344743E+01 -1.823465333E+02  1.915305072E+02  0.000000000E+00  0.00000E+00  9.000E+00
#rwgt            1           1   7.0184326393073884E-002          10       33125           0
</event>
<event>
      5   9999  3.19816E-02  3.95038E+01 -1.00000E+00  1.45177E-01
      21    -1     0     0   502   512  0.000000000E+00  0.000000000E+00  1.061839970E+03  1.061839970E+03  0.000000000E+00  0.00000E+00  9.000E+00
      21    -1     0     0   501   502  0.000000000E+00  0.000000000E+00 -8.746436258E+01  8.746436258E+01  0.000000000E+00  0.00000E+00  9.000E+00
      25     1     1     2     0     0 -2.345027486E+01 -5.073299354E+01  8.582762363E+02  8.691299384E+02  1.250000000E+02  0.00000E+00  9.000E+00
      25     1     1     2     0     0  2.252885027E+01  1.123995572E+01 -2.817791596E+01  1.305866787E+02  1.250000000E+02  0.00000E+00  9.000E+00
      21     1     1     2   501   512  9.214245863E-01  3.949303782E+01  1.442772867E+02  1.495877151E+02  1.907348633E-06  0.00000E+00  9.000E+00
#rwgt            1           1   2.6898178654152706E-002          10       33208           0
</event>
<event>
      5   9999  3.19816E-02  1.02946E+02 -1.00000E+00  1.23263E-01
      21    -1     0     0   502   501  0.000000000E+00  0.000000000E+00  7.289206241E+02  7.289206241E+02  0.000000000E+00  0.00000E+00  9.000E+00
      21    -1     0     0   511   502  0.000000000E+00  0.000000000E+00 -1.864723797E+02  1.864723797E+02  0.000000000E+00  0.00000E+00  9.000E+00
      25     1     1     2     0     0  3.123817038E+02 -6.772557064E+01  2.891352699E+02  4.487686331E+02  1.250000000E+02  0.00000E+00  9.000E+00
      25     1     1     2     0     0 -2.140578618E+02  9.822765204E+01  2.470392009E+02  3.634870102E+02  1.250000000E+02  0.00000E+00  9.000E+00
      21     1     1     2   511   501 -9.832384199E+01 -3.050208140E+01  6.273773551E+00  1.031373604E+02  4.460403188E-07  0.00000E+00  9.000E+00
#rwgt            1           1   2.8719008834421390E-002          10       33277           0
</event>
<event>
      5   9999  3.19816E-02  5.24656E+01 -1.00000E+00  1.37893E-01
      21    -1     0     0   502   512  0.000000000E+00  0.000000000E+00  2.220043877E+03  2.220043877E+03  0.000000000E+00  0.00000E+00  9.000E+00
      21    -1     0     0   501   502  0.000000000E+00  0.000000000E+00 -1.979032687E+02  1.979032687E+02  0.000000000E+00  0.00000E+00  9.000E+00
      25     1     1     2     0     0 -2.748673874E+02 -4.786198043E+02  4.070385106E+02  6.970899130E+02  1.250000000E+02  0.00000E+00  9.000E+00
      25     1     1     2     0     0  2.224117519E+02  4.775965295E+02  1.477201347E+03  1.573313145E+03  1.250000000E+02  0.00000E+00  9.000E+00
      21     1     1     2   501   512  5.245563551E+01  1.023274781E+00  1.379007502E+02  1.475440873E+02  2.697398305E-06  0.00000E+00  9.000E+00
#rwgt            1           1   2.8874565500466028E-002          10       33341           0
</event>
<event>
      5   9999  3.19816E-02  4.72597E+01 -1.00000E+00  1.40487E-01
      21    -1     0     0   502   501  0.000000000E+00  0.000000000E+00  6.679520509E+02  6.679520509E+02  0.000000000E+00  0.00000E+00  9.000E+00
      21    -1     0     0   501   511  0.000000000E+00  0.000000000E+00 -3.772164584E+02  3.772164584E+02  0.000000000E+00  0.00000E+00  9.000E+00
      25     1     1     2     0     0 -4.350737170E+02  6.452151634E+00  2.903617049E+02  5.378342581E+02  1.250000000E+02  0.00000E+00  9.000E+00
      25     1     1     2     0     0  4.334163968E+02  4.077844868E+01  2.582539097E+01  4.536569251E+02  1.250000000E+02  0.00000E+00  9.000E+00
      21     1     1     2   502   511  1.657320218E+00 -4.723060032E+01 -2.545150330E+01  5.367732610E+01  1.168007728E-06  0.00000E+00  9.000E+00
#rwgt            1           1   2.4576965912178349E-002          10       33477           0
</event>
<event>
      5   9999  3.66584E-02  5.23230E+01 -1.00000E+00  1.37960E-01
      21    -1     0     0   502   512  0.000000000E+00  0.000000000E+00  2.682313299E+01  2.682313299E+01  0.000000000E+00  0.00000E+00  9.000E+00
      21    -1     0     0   501   502  0.000000000E+00  0.000000000E+00 -2.029143410E+03  2.029143410E+03  0.000000000E+00  0.00000E+00  9.000E+00
      25     1     1     2     0     0 -7.147957419E+00 -3.497718257E+01 -1.847601996E+02  2.259111063E+02  1.250000000E+02  0.00000E+00  9.000E+00
      25     1     1     2     0     0  5.781630276E+01  2.192305618E+01 -1.608995579E+03  1.615027901E+03  1.250000000E+02  0.00000E+00  9.000E+00
      21     1     1     2   501   512 -5.066834534E+01  1.305412639E+01 -2.085644985E+02  2.150275365E+02  2.697398305E-06  0.00000E+00  9.000E+00
#rwgt            1           1  0.11339249503116952               10       33639           0
</event>
<event>
      5   9999  3.19816E-02  9.07953E+01 -1.00000E+00  1.25744E-01
      21    -1     0     0   502   501  0.000000000E+00  0.000000000E+00  1.659754937E+02  1.659754937E+02  0.000000000E+00  0.00000E+00  9.000E+00
       2    -1     0     0   501     0  0.000000000E+00  0.000000000E+00 -2.831053960E+03  2.831053960E+03  0.000000000E+00  0.00000E+00  9.000E+00
      25     1     1     2     0     0  2.640194590E+02  3.165287300E+02 -4.004961868E+02  5.881487119E+02  1.250000000E+02  0.00000E+00  9.000E+00
      25     1     1     2     0     0 -2.424894658E+02 -4.047343835E+02 -7.708051122E+02  9.123467450E+02  1.250000000E+02  0.00000E+00  9.000E+00
       2     1     1     2   502     0 -2.152999326E+01  8.820565347E+01 -1.493777168E+03  1.496533997E+03  0.000000000E+00  0.00000E+00  9.000E+00
#rwgt            1           1   2.6452377443726721E-002          10       33757           0
</event>
<event>
      5   9999  3.19816E-02  4.36599E+01 -1.00000E+00  1.42521E-01
      21    -1     0     0   502   501  0.000000000E+00  0.000000000E+00  8.203407176E+02  8.203407176E+02  0.000000000E+00  0.00000E+00  9.000E+00
      21    -1     0     0   501   511  0.000000000E+00  0.000000000E+00 -1.465741416E+03  1.465741416E+03  0.000000000E+00  0.00000E+00  9.000E+00
      25     1     1     2     0     0  5.129213440E+02 -3.176535466E+02 -1.471233005E+02  6.334527183E+02  1.250000000E+02  0.00000E+00  9.000E+00
      25     1     1     2     0     0 -5.486417392E+02  3.427581338E+02  3.884293041E+02  7.648484951E+02  1.250000000E+02  0.00000E+00  9.000E+00
      21     1     1     2   502   511  3.572039517E+01 -2.510458728E+01 -8.867067022E+02  8.877809204E+02  1.078959322E-05  0.00000E+00  9.000E+00
#rwgt            1           1   3.2231930774346586E-002          10       33822           0
</event>
<event>
      5   9999  3.19816E-02  2.04244E+02 -1.00000E+00  1.11317E-01
       2    -1     0     0   502     0  0.000000000E+00  0.000000000E+00  9.228781786E+02  9.228781786E+02  0.000000000E+00  0.00000E+00  9.000E+00
      21    -1     0     0   501   502  0.000000000E+00  0.000000000E+00 -1.357490971E+03  1.357490971E+03  0.000000000E+00  0.00000E+00  9.000E+00
      25     1     1     2     0     0 -2.606496400E+02  3.845835271E+01 -2.140851010E+02  3.617660987E+02  1.250000000E+02  0.00000E+00  9.000E+00
      25     1     1     2     0     0  3.677593103E+02  1.354469080E+02 -1.016638870E+03  1.096709792E+03  1.250000000E+02  0.00000E+00  9.000E+00
       2     1     1     2   501     0 -1.071096703E+02 -1.739052607E+02  7.961111785E+02  8.218932593E+02  1.078959322E-05  0.00000E+00  9.000E+00
#rwgt            1           1   2.9445009210700333E-002          10       33914           0
</event>
<event>
      5   9999  3.19816E-02  2.03521E+02 -1.00000E+00  1.11373E-01
       1    -1     0     0   502     0  0.000000000E+00  0.000000000E+00  4.458744811E+02  4.458744811E+02  0.000000000E+00  0.00000E+00  9.000E+00
      21    -1     0     0   501   502  0.000000000E+00  0.000000000E+00 -1.028089973E+03  1.028089973E+03  0.000000000E+00  0.00000E+00  9.000E+00
      25     1     1     2     0     0  2.990956931E+02 -3.158964856E+02 -4.643748778E+02  6.484734770E+02  1.250000000E+02  0.00000E+00  9.000E+00
      25     1     1     2     0     0 -3.016550184E+02  5.194018619E+02 -8.917721345E+01  6.199609824E+02  1.250000000E+02  0.00000E+00  9.000E+00
       1     1     1     2   501     0  2.559325323E+00 -2.035053763E+02 -2.866340100E+01  2.055299951E+02  3.286373318E-06  0.00000E+00  9.000E+00
#rwgt            1           1   3.0778035277833848E-002          10       33949           0
</event>
<event>
      5   9999  3.19816E-02  2.89078E+01 -1.00000E+00  1.54167E-01
      21    -1     0     0   511   501  0.000000000E+00  0.000000000E+00  6.989849065E+02  6.989849065E+02  0.000000000E+00  0.00000E+00  9.000E+00
      21    -1     0     0   501   502  0.000000000E+00  0.000000000E+00 -2.486166157E+02  2.486166157E+02  0.000000000E+00  0.00000E+00  9.000E+00
      25     1     1     2     0     0  5.130142632E+01  1.150000510E+02  1.674493195E+02  2.439695118E+02  1.250000000E+02  0.00000E+00  9.000E+00
      25     1     1     2     0     0 -4.129978042E+01 -1.421225563E+02 -1.651895715E+02  2.545920019E+02  1.250000000E+02  0.00000E+00  9.000E+00
      21     1     1     2   511   502 -1.000164591E+01  2.712250530E+01  4.481085428E+02  4.490400086E+02  0.000000000E+00  0.00000E+00  9.000E+00
#rwgt            1           1   2.6352611740305589E-002          10       34010           0
</event>
<event>
      5   9999  3.19816E-02  2.15660E+02 -1.00000E+00  1.10469E-01
      21    -1     0     0   502   501  0.000000000E+00  0.000000000E+00  3.170416186E+02  3.170416186E+02  0.000000000E+00  0.00000E+00  9.000E+00
      21    -1     0     0   512   502  0.000000000E+00  0.000000000E+00 -6.410495175E+02  6.410495175E+02  0.000000000E+00  0.00000E+00  9.000E+00
      25     1     1     2     0     0  7.772275311E+00  2.110761778E+02 -8.627480581E+01  2.601574585E+02  1.250000000E+02  0.00000E+00  9.000E+00
      25     1     1     2     0     0 -2.195941943E+02 -2.515794167E+02  2.569248357E+01  3.574897436E+02  1.250000000E+02  0.00000E+00  9.000E+00
      21     1     1     2   512   501  2.118219190E+02  4.050323889E+01 -2.634255766E+02  3.404439340E+02  6.607249480E-06  0.00000E+00  9.000E+00
#rwgt            2          11   2.8676320996005914E-003          10       34182           0
</event>
<event>
      5   9999  3.19816E-02  8.32069E+01 -1.00000E+00  1.27529E-01
      21    -1     0     0   502   511  0.000000000E+00  0.000000000E+00  7.037244396E+02  7.037244396E+02  0.000000000E+00  0.00000E+00  9.000E+00
      21    -1     0     0   501   502  0.000000000E+00  0.000000000E+00 -1.826651371E+02  1.826651371E+02  0.000000000E+00  0.00000E+00  9.000E+00
      25     1     1     2     0     0  8.936012893E-01 -2.115589300E+02 -3.286982971E+01  2.479181419E+02  1.250000000E+02  0.00000E+00  9.000E+00
      25     1     1     2     0     0 -4.899347241E+01  1.436635170E+02  2.233119789E+02  2.975446292E+02  1.250000000E+02  0.00000E+00  9.000E+00
      21     1     1     2   501   511  4.809987112E+01  6.789541302E+01  3.306171533E+02  3.409268056E+02  3.814697266E-06  0.00000E+00  9.000E+00
#rwgt            1           1   2.7268496248484788E-002          10       34232           0
</event>
<event>
      5   9999  3.19816E-02  3.51083E+01 -1.00000E+00  1.48443E-01
       2    -1     0     0   502     0  0.000000000E+00  0.000000000E+00  1.009769340E+03  1.009769340E+03  0.000000000E+00  0.00000E+00  9.000E+00
      21    -1     0     0   501   502  0.000000000E+00  0.000000000E+00 -2.257715579E+03  2.257715579E+03  0.000000000E+00  0.00000E+00  9.000E+00
      25     1     1     2     0     0 -3.885067348E+02 -2.631762125E+02 -9.725708896E+02  1.087068690E+03  1.250000000E+02  0.00000E+00  9.000E+00
      25     1     1     2     0     0  4.168901735E+02  2.425129327E+02 -1.176999365E+03  1.278108933E+03  1.250000000E+02  0.00000E+00  9.000E+00
       2     1     1     2   501     0 -2.838343869E+01  2.066327988E+01  9.016240157E+02  9.023072960E+02  1.525878906E-05  0.00000E+00  9.000E+00
#rwgt            1           1   2.5829800826628911E-002          10       34301           0
</event>
<event>
      5   9999  3.19816E-02  4.57727E+01 -1.00000E+00  1.41300E-01
       2    -1     0     0   502     0  0.000000000E+00  0.000000000E+00  1.654903259E+02  1.654903259E+02  0.000000000E+00  0.00000E+00  9.000E+00
      21    -1     0     0   501   502  0.000000000E+00  0.000000000E+00 -6.015510484E+02  6.015510484E+02  0.000000000E+00  0.00000E+00  9.000E+00
      25     1     1     2     0     0 -8.576518948E+00  2.366296183E+02 -2.599210796E+02  3.731636378E+02  1.250000000E+02  0.00000E+00  9.000E+00
      25     1     1     2     0     0  1.607533490E+01 -1.914753252E+02 -2.289565626E+02  3.239866110E+02  1.250000000E+02  0.00000E+00  9.000E+00
       2     1     1     2   501     0 -7.498815947E+00 -4.515429312E+01  5.281691970E+01  6.989112557E+01  1.784161275E-06  0.00000E+00  9.000E+00
#rwgt            1           1   2.9675689160485543E-002          10       34469           0
</event>
<event>
      5   9999  3.19816E-02  8.13274E+01 -1.00000E+00  1.28005E-01
      21    -1     0     0   502   501  0.000000000E+00  0.000000000E+00  8.756701237E+02  8.756701237E+02  0.000000000E+00  0.00000E+00  9.000E+00
      21    -1     0     0   501   511  0.000000000E+00  0.000000000E+00 -2.822110723E+02  2.822110723E+02  0.000000000E+00  0.00000E+00  9.000E+00
      25     1     1     2     0     0  1.638404687E+02 -2.574978105E+02  5.790556188E+02  6.663927005E+02  1.250000000E+02  0.00000E+00  9.000E+00
      25     1     1     2     0     0 -2.245531496E+02  3.116098376E+02  4.082716472E+01  4.059761880E+02  1.250000000E+02  0.00000E+00  9.000E+00
      21     1     1     2   502   511  6.071268092E+01 -5.411202708E+01 -2.642373216E+01  8.551230742E+01  1.261592536E-06  0.00000E+00  9.000E+00
#rwgt            1           1   2.8872905915970908E-002          10       34567           0
</event>
<event>
      5   9999  3.19816E-02  6.35022E+01 -1.00000E+00  1.33400E-01
      21    -1     0     0   502   501  0.000000000E+00  0.000000000E+00  4.858851837E+02  4.858851837E+02  0.000000000E+00  0.00000E+00  9.000E+00
      21    -1     0     0   512   502  0.000000000E+00  0.000000000E+00 -7.811784045E+02  7.811784045E+02  0.000000000E+00  0.00000E+00  9.000E+00
      25     1     1     2     0     0 -3.235178114E+02  4.844619404E+02 -5.429987004E+01  5.982813902E+02  1.250000000E+02  0.00000E+00  9.000E+00
      25     1     1     2     0     0  3.274717311E+02 -4.210829392E+02 -1.702616897E+02  5.737269553E+02  1.250000000E+02  0.00000E+00  9.000E+00
      21     1     1     2   512   501 -3.953919689E+00 -6.337900118E+01 -7.073166110E+01  9.505524265E+01  9.536743164E-07  0.00000E+00  9.000E+00
#rwgt            1           1   3.1296531797597567E-002          10       34625           0
</event>
<event>
      5   9999  3.19816E-02  3.27499E+01 -1.00000E+00  1.50441E-01
      21    -1     0     0   502   501  0.000000000E+00  0.000000000E+00  4.273305113E+02  4.273305113E+02  0.000000000E+00  0.00000E+00  9.000E+00
      21    -1     0     0   501   511  0.000000000E+00  0.000000000E+00 -4.038216679E+02  4.038216679E+02  0.000000000E+00  0.00000E+00  9.000E+00
      25     1     1     2     0     0 -2.324558254E+01  2.931618444E+02 -1.374978998E+02  3.478719542E+02  1.250000000E+02  0.00000E+00  9.000E+00
      25     1     1     2     0     0 -2.767874425E+00 -3.130579062E+02  2.291933885E+02  4.076365086E+02  1.250000000E+02  0.00000E+00  9.000E+00
      21     1     1     2   502   511  2.601345696E+01  1.989606186E+01 -6.818664532E+01  7.564371634E+01  9.536743164E-07  0.00000E+00  9.000E+00
#rwgt            1           1   2.6910473583273014E-002          10       34781           0
</event>
<event>
      5   9999  3.19816E-02  1.78332E+02 -1.00000E+00  1.13492E-01
      21    -1     0     0   502   501  0.000000000E+00  0.000000000E+00  6.656006312E+02  6.656006312E+02  0.000000000E+00  0.00000E+00  9.000E+00
       4    -1     0     0   501     0  0.000000000E+00  0.000000000E+00 -3.013736089E+02  3.013736089E+02  0.000000000E+00  0.00000E+00  9.000E+00
      25     1     1     2     0     0 -2.338956187E+02  9.459914704E+01  4.459320034E+02  5.273864909E+02  1.250000000E+02  0.00000E+00  9.000E+00
      25     1     1     2     0     0  1.444838301E+02  5.969822645E+01  6.309743892E+01  2.098707750E+02  1.250000000E+02  0.00000E+00  9.000E+00
       4     1     1     2   502     0  8.941178853E+01 -1.542973735E+02 -1.448024201E+02  2.297169742E+02  4.672030912E-06  0.00000E+00  9.000E+00
#rwgt            2          15   6.8165860270451360E-005          10       34899           0
</event>
<event>
      5   9999  3.19816E-02  2.32818E+01 -1.00000E+00  1.61103E-01
      21    -1     0     0   511   501  0.000000000E+00  0.000000000E+00  2.031645095E+02  2.031645095E+02  0.000000000E+00  0.00000E+00  9.000E+00
      21    -1     0     0   501   502  0.000000000E+00  0.000000000E+00 -1.491001936E+03  1.491001936E+03  0.000000000E+00  0.00000E+00  9.000E+00
      25     1     1     2     0     0 -3.600700628E+02 -2.969514202E+02 -8.393847390E+02  9.685155322E+02  1.250000000E+02  0.00000E+00  9.000E+00
      25     1     1     2     0     0  3.406004762E+02  2.841851922E+02 -4.933219172E+02  6.751010456E+02  1.250000000E+02  0.00000E+00  9.000E+00
      21     1     1     2   511   502  1.946958655E+01  1.276622799E+01  4.486922947E+01  5.054986776E+01  9.536743164E-07  0.00000E+00  9.000E+00
#rwgt            1           1   3.0513807630697276E-002          10       34918           0
</event>
<event>
      5   9999  3.19816E-02  5.74871E+01 -1.00000E+00  1.35704E-01
      21    -1     0     0   512   501  0.000000000E+00  0.000000000E+00  1.344409744E+03  1.344409744E+03  0.000000000E+00  0.00000E+00  9.000E+00
      21    -1     0     0   501   502  0.000000000E+00  0.000000000E+00 -1.572833504E+02  1.572833504E+02  0.000000000E+00  0.00000E+00  9.000E+00
      25     1     1     2     0     0  6.077643405E+01 -2.768658965E+02  1.310627808E+02  3.363791791E+02  1.250000000E+02  0.00000E+00  9.000E+00
      25     1     1     2     0     0 -2.974054335E+01  3.252553635E+02  5.229410169E+02  6.291008333E+02  1.250000000E+02  0.00000E+00  9.000E+00
      21     1     1     2   512   502 -3.103589070E+01 -4.838946694E+01  5.331225961E+02  5.362130821E+02  7.629394531E-06  0.00000E+00  9.000E+00
#rwgt            1           1   3.2927298110649345E-002          10       35075           0
</event>
<event>
      5   9999  3.19816E-02  1.13607E+02 -1.00000E+00  1.21386E-01
       2    -1     0     0   502     0  0.000000000E+00  0.000000000E+00  1.415459054E+03  1.415459054E+03  0.000000000E+00  0.00000E+00  9.000E+00
      21    -1     0     0   501   502  0.000000000E+00  0.000000000E+00 -3.641372532E+02  3.641372532E+02  0.000000000E+00  0.00000E+00  9.000E+00
      25     1     1     2     0     0  6.377423242E+01 -4.677824174E+02  2.479594447E+01  4.890065252E+02  1.250000000E+02  0.00000E+00  9.000E+00
      25     1     1     2     0     0 -1.208999683E+02  3.695825118E+02  1.972825743E+02  4.536005395E+02  1.250000000E+02  0.00000E+00  9.000E+00
       2     1     1     2   501     0  5.712573592E+01  9.819990564E+01  8.292432817E+02  8.369892421E+02  1.078959322E-05  0.00000E+00  9.000E+00
#rwgt            1           1   2.9274250841416955E-002          10       35219           0
</event>
<event>
      5   9999  3.19816E-02  2.25732E+02 -1.00000E+00  1.09767E-01
      21    -1     0     0   502   501  0.000000000E+00  0.000000000E+00  1.040762709E+03  1.040762709E+03  0.000000000E+00  0.00000E+00  9.000E+00
      21    -1     0     0   511   502  0.000000000E+00  0.000000000E+00 -8.972576397E+02  8.972576397E+02  0.000000000E+00  0.00000E+00  9.000E+00
      25     1     1     2     0     0  2.775651515E+02 -3.085472143E+01 -6.990940844E+02  7.631198897E+02  1.250000000E+02  0.00000E+00  9.000E+00
      25     1     1     2     0     0 -5.836082987E+01 -2.303638569E+01  9.243123125E+02  9.348341631E+02  1.250000000E+02  0.00000E+00  9.000E+00
      21     1     1     2   511   501 -2.192043216E+02  5.389110712E+01 -8.171315885E+01  2.400662958E+02  1.348699152E-06  0.00000E+00  9.000E+00
#rwgt            1           1   3.0537115533936090E-002          10       35297           0
</event>
<event>
      5   9999  3.19816E-02  1.91477E+02 -1.00000E+00  1.12341E-01
       1    -1     0     0   502     0  0.000000000E+00  0.000000000E+00  6.867826642E+02  6.867826642E+02  0.000000000E+00  0.00000E+00  9.000E+00
      21    -1     0     0   501   502  0.000000000E+00  0.000000000E+00 -3.961388813E+02  3.961388813E+02  0.000000000E+00  0.00000E+00  9.000E+00
      25     1     1     2     0     0  7.731092640E+01 -1.141201789E+02 -1.437776827E+02  2.351540274E+02  1.250000000E+02  0.00000E+00  9.000E+00
      25     1     1     2     0     0 -9.402939852E+01 -7.662576123E+01 -1.518145831E+02  2.310534629E+02  1.250000000E+02  0.00000E+00  9.000E+00
       1     1     1     2   501     0  1.671847213E+01  1.907459402E+02  5.862360487E+02  6.167140552E+02  0.000000000E+00  0.00000E+00  9.000E+00
#rwgt            1           1   6.6160137131591482E-002          10       35421           0
</event>
<event>
      5   9999  3.19816E-02  2.63491E+01 -1.00000E+00  1.57060E-01
      21    -1     0     0   502   501  0.000000000E+00  0.000000000E+00  1.743386340E+02  1.743386340E+02  0.000000000E+00  0.00000E+00  9.000E+00
      21    -1     0     0   501   511  0.000000000E+00  0.000000000E+00 -4.189192072E+02  4.189192072E+02  0.000000000E+00  0.00000E+00  9.000E+00
      25     1     1     2     0     0 -1.517258643E+02  9.507314444E+01 -1.286888418E+02  2.534668789E+02  1.250000000E+02  0.00000E+00  9.000E+00
      25     1     1     2     0     0  1.342605532E+02 -1.148022640E+02  4.599524567E+00  2.164523310E+02  1.250000000E+02  0.00000E+00  9.000E+00
      21     1     1     2   502   511  1.746531107E+01  1.972911951E+01 -1.204912559E+02  1.233386314E+02  1.907348633E-06  0.00000E+00  9.000E+00
#rwgt            1           1   2.3855185029724307E-002          10       35452           0
</event>
<event>
      5   9999  3.19816E-02  4.05704E+01 -1.00000E+00  1.44460E-01
      21    -1     0     0   502   512  0.000000000E+00  0.000000000E+00  1.169461543E+03  1.169461543E+03  0.000000000E+00  0.00000E+00  9.000E+00
      21    -1     0     0   501   502  0.000000000E+00  0.000000000E+00 -2.302204912E+02  2.302204912E+02  0.000000000E+00  0.00000E+00  9.000E+00
      25     1     1     2     0     0  2.330906956E+02  1.976267325E+02 -5.334178509E+01  3.344517062E+02  1.250000000E+02  0.00000E+00  9.000E+00
      25     1     1     2     0     0 -2.655025386E+02 -1.732253035E+02  9.317521801E+02  9.921117522E+02  1.250000000E+02  0.00000E+00  9.000E+00
      21     1     1     2   501   512  3.241184304E+01 -2.440142902E+01  6.083065682E+01  7.311857572E+01  1.348699152E-06  0.00000E+00  9.000E+00
#rwgt            1           1   2.4489551012783224E-002          10       35627           0
</event>
<event>
      5   9999  3.19816E-02  2.37896E+01 -1.00000E+00  1.60382E-01
      21    -1     0     0   511   501  0.000000000E+00  0.000000000E+00  4.103003673E+02  4.103003673E+02  0.000000000E+00  0.00000E+00  9.000E+00
      21    -1     0     0   501   502  0.000000000E+00  0.000000000E+00 -6.368392988E+02  6.368392988E+02  0.000000000E+00  0.00000E+00  9.000E+00
      25     1     1     2     0     0  2.752682543E+02  3.681321484E+02 -2.476972870E+02  5.369104548E+02  1.250000000E+02  0.00000E+00  9.000E+00
      25     1     1     2     0     0 -2.741819841E+02 -3.443673978E+02 -2.502909182E+01  4.582751581E+02  1.250000000E+02  0.00000E+00  9.000E+00
      21     1     1     2   511   502 -1.086270207E+00 -2.376475063E+01  4.618744733E+01  5.195405323E+01  0.000000000E+00  0.00000E+00  9.000E+00
#rwgt            1           1   2.2912632780617493E-002          10       35778           0
</event>
<event>
      5   9999  3.19816E-02  8.64396E+01 -1.00000E+00  1.26743E-01
      21    -1     0     0   502   501  0.000000000E+00  0.000000000E+00  1.517919675E+03  1.517919675E+03  0.000000000E+00  0.00000E+00  9.000E+00
      21    -1     0     0   512   502  0.000000000E+00  0.000000000E+00 -3.233152407E+02  3.233152407E+02  0.000000000E+00  0.00000E+00  9.000E+00
      25     1     1     2     0     0  3.787083321E+02 -1.305034872E+02  5.585987730E+02  6.986478012E+02  1.250000000E+02  0.00000E+00  9.000E+00
      25     1     1     2     0     0 -4.651256553E+02  1.324658410E+02  8.080903042E+02  9.500126388E+02  1.250000000E+02  0.00000E+00  9.000E+00
      21     1     1     2   512   501  8.641732323E+01 -1.962353786E+00 -1.720846426E+02  1.925744760E+02  4.264961200E-06  0.00000E+00  9.000E+00
#rwgt            1           1   2.7085406471670792E-002          10       36039           0
</event>
<event>
      5   9999  3.19816E-02  1.53218E+02 -1.00000E+00  1.16029E-01
      -2    -1     0     0     0   501  0.000000000E+00  0.000000000E+00  6.610030524E+02  6.610030524E+02  0.000000000E+00  0.00000E+00  9.000E+00
      21    -1     0     0   501   502  0.000000000E+00  0.000000000E+00 -1.293126794E+03  1.293126794E+03  0.000000000E+00  0.00000E+00  9.000E+00
      25     1     1     2     0     0  1.572948984E+02 -1.281987646E+02 -4.121572101E+02  4.761041631E+02  1.250000000E+02  0.00000E+00  9.000E+00
      25     1     1     2     0     0 -1.939024490E+02  2.769789366E+02 -8.003377114E+02  8.777704389E+02  1.250000000E+02  0.00000E+00  9.000E+00
      -2     1     1     2     0   502  3.660755062E+01 -1.487801721E+02  5.803711797E+02  6.002552445E+02  0.000000000E+00  0.00000E+00  9.000E+00
#rwgt            1           1   2.8079866142533487E-002          10       36093           0
</event>
<event>
      5   9999  3.19816E-02  4.64962E+01 -1.00000E+00  1.40900E-01
      21    -1     0     0   511   501  0.000000000E+00  0.000000000E+00  5.395213347E+02  5.395213347E+02  0.000000000E+00  0.00000E+00  9.000E+00
      21    -1     0     0   501   502  0.000000000E+00  0.000000000E+00 -4.735512660E+02  4.735512660E+02  0.000000000E+00  0.00000E+00  9.000E+00
      25     1     1     2     0     0  3.435947278E+01 -3.547502274E+02 -2.508232784E+02  4.533934430E+02  1.250000000E+02  0.00000E+00  9.000E+00
      25     1     1     2     0     0  1.188369201E+01  3.499058620E+02  1.758153232E+02  4.112315191E+02  1.250000000E+02  0.00000E+00  9.000E+00
      21     1     1     2   511   502 -4.624316479E+01  4.844365330E+00  1.409780240E+02  1.484476386E+02  0.000000000E+00  0.00000E+00  9.000E+00
#rwgt            1           1   3.0592044298013016E-002          10       36214           0
</event>
<event>
      5   9999  3.19816E-02  1.74068E+02 -1.00000E+00  1.13889E-01
      21    -1     0     0   512   501  0.000000000E+00  0.000000000E+00  4.746754997E+02  4.746754997E+02  0.000000000E+00  0.00000E+00  9.000E+00
      21    -1     0     0   501   502  0.000000000E+00  0.000000000E+00 -4.686933431E+02  4.686933431E+02  0.000000000E+00  0.00000E+00  9.000E+00
      25     1     1     2     0     0  3.714935022E+01  1.956037515E+02 -1.168983021E+02  2.625473574E+02  1.250000000E+02  0.00000E+00  9.000E+00
      25     1     1     2     0     0 -1.564861272E+02 -3.223250749E+02 -1.053062009E+02  3.938219875E+02  1.250000000E+02  0.00000E+00  9.000E+00
      21     1     1     2   512   502  1.193367769E+02  1.267213234E+02  2.281866597E+02  2.869994979E+02  2.697398305E-06  0.00000E+00  9.000E+00
#rwgt            1           1   2.7901024403227358E-002          10       36308           0
</event>
<event>
      5   9999  3.19816E-02  1.39789E+02 -1.00000E+00  1.17620E-01
      21    -1     0     0   502   501  0.000000000E+00  0.000000000E+00  9.694855000E+02  9.694855000E+02  0.000000000E+00  0.00000E+00  9.000E+00
      21    -1     0     0   501   511  0.000000000E+00  0.000000000E+00 -8.927880660E+02  8.927880660E+02  0.000000000E+00  0.00000E+00  9.000E+00
      25     1     1     2     0     0 -5.772862483E+01  5.434558225E+02  7.342754525E+02  9.238302145E+02  1.250000000E+02  0.00000E+00  9.000E+00
      25     1     1     2     0     0  1.619186221E+02 -4.502597459E+02 -3.665290880E+02  6.155648230E+02  1.250000000E+02  0.00000E+00  9.000E+00
      21     1     1     2   502   511 -1.041899972E+02 -9.319607660E+01 -2.910489306E+02  3.228785285E+02  3.814697266E-06  0.00000E+00  9.000E+00
#rwgt            1           1   2.8894092675465562E-002          10       36418           0
</event>
<event>
      5   9999  3.19816E-02  1.39084E+02 -1.00000E+00  1.17709E-01
      21    -1     0     0   502   501  0.000000000E+00  0.000000000E+00  6.751001315E+02  6.751001315E+02  0.000000000E+00  0.00000E+00  9.000E+00
      21    -1     0     0   512   502  0.000000000E+00  0.000000000E+00 -3.098882752E+02  3.098882752E+02  0.000000000E+00  0.00000E+00  9.000E+00
      25     1     1     2     0     0 -1.208240696E+02 -7.009172224E+01  2.541283768E+02  3.157808373E+02  1.250000000E+02  0.00000E+00  9.000E+00
      25     1     1     2     0     0  2.463337986E+02  1.016138852E+01  3.170810683E+02  4.206530613E+02  1.250000000E+02  0.00000E+00  9.000E+00
      21     1     1     2   512   501 -1.255097290E+02  5.993033371E+01 -2.059975887E+02  2.485545081E+02  3.814697266E-06  0.00000E+00  9.000E+00
#rwgt            1           1   2.7858415178148414E-002          10       36509           0
</event>
<event>
      5   9999  3.19816E-02  2.18765E+01 -1.00000E+00  1.63218E-01
      21    -1     0     0   502   501  0.000000000E+00  0.000000000E+00  6.911425622E+02  6.911425622E+02  0.000000000E+00  0.00000E+00  9.000E+00
      21    -1     0     0   501   511  0.000000000E+00  0.000000000E+00 -9.647987787E+02  9.647987787E+02  0.000000000E+00  0.00000E+00  9.000E+00
      25     1     1     2     0     0 -3.983771062E+02 -3.164203784E+02  4.583399257E+02  6.960794941E+02  1.250000000E+02  0.00000E+00  9.000E+00
      25     1     1     2     0     0  3.779789292E+02  3.243258363E+02 -4.674072731E+02  6.943701304E+02  1.250000000E+02  0.00000E+00  9.000E+00
      21     1     1     2   502   511  2.039817704E+01 -7.905457858E+00 -2.645888691E+02  2.654917165E+02  3.814697266E-06  0.00000E+00  9.000E+00
#rwgt            1           1   3.0388261119339333E-002          10       36552           0
</event>
<event>
      5   9999  3.19816E-02  3.79074E+02 -1.00000E+00  1.02393E-01
      21    -1     0     0   502   501  0.000000000E+00  0.000000000E+00  4.577234987E+02  4.577234987E+02  0.000000000E+00  0.00000E+00  9.000E+00
       2    -1     0     0   501     0  0.000000000E+00  0.000000000E+00 -2.161095627E+03  2.161095627E+03  0.000000000E+00  0.00000E+00  9.000E+00
      25     1     1     2     0     0  1.060954949E+02 -6.331969154E+02  3.177146888E+01  6.548503753E+02  1.250000000E+02  0.00000E+00  9.000E+00
      25     1     1     2     0     0  1.744845349E+02  3.783014807E+02 -1.370955639E+03  1.438298032E+03  1.250000000E+02  0.00000E+00  9.000E+00
       2     1     1     2   502     0 -2.805800299E+02  2.548954348E+02 -3.641879578E+02  5.256707186E+02  7.629394531E-06  0.00000E+00  9.000E+00
#rwgt            1           1   1.9754491358849491E-002          10       36741           0
</event>
<event>
      5   9999  3.19816E-02  1.70238E+01 -1.00000E+00  1.72357E-01
       2    -1     0     0   502     0  0.000000000E+00  0.000000000E+00  1.143744441E+03  1.143744441E+03  0.000000000E+00  0.00000E+00  9.000E+00
      21    -1     0     0   501   502  0.000000000E+00  0.000000000E+00 -1.819394887E+02  1.819394887E+02  0.000000000E+00  0.00000E+00  9.000E+00
      25     1     1     2     0     0 -3.861270631E+02 -1.627477686E+02  4.979476299E+02  6.626898122E+02  1.250000000E+02  0.00000E+00  9.000E+00
      25     1     1     2     0     0  4.003449695E+02  1.721104182E+02  4.593410019E+02  6.453814738E+02  1.250000000E+02  0.00000E+00  9.000E+00
       2     1     1     2   501     0 -1.421790636E+01 -9.362649615E+00  4.516320562E+00  1.761264377E+01  1.788139343E-07  0.00000E+00  9.000E+00
#rwgt            1           1   2.9235385133818258E-002          10       36792           0
</event>
<event>
      5   9999  3.19816E-02  6.56696E+01 -1.00000E+00  1.32641E-01
      21    -1     0     0   502   511  0.000000000E+00  0.000000000E+00  4.749549972E+02  4.749549972E+02  0.000000000E+00  0.00000E+00  9.000E+00
      21    -1     0     0   501   502  0.000000000E+00  0.000000000E+00 -3.729861128E+02  3.729861128E+02  0.000000000E+00  0.00000E+00  9.000E+00
      25     1     1     2     0     0 -1.998502434E+02  2.009220221E+02 -8.666175921E+01  3.216287289E+02  1.250000000E+02  0.00000E+00  9.000E+00
      25     1     1     2     0     0  2.280782843E+02 -2.602151250E+02  4.789945827E+01  3.710134407E+02  1.250000000E+02  0.00000E+00  9.000E+00
      21     1     1     2   501   511 -2.822804084E+01  5.929310292E+01  1.407311853E+02  1.552989403E+02  0.000000000E+00  0.00000E+00  9.000E+00
#rwgt            1           1   2.8928548737705999E-002          10       36995           0
</event>
<event>
      5   9999  3.19816E-02  4.97462E+01 -1.00000E+00  1.39202E-01
      21    -1     0     0   512   501  0.000000000E+00  0.000000000E+00  2.831241960E+03  2.831241960E+03  0.000000000E+00  0.00000E+00  9.000E+00
      21    -1     0     0   501   502  0.000000000E+00  0.000000000E+00 -1.149533653E+02  1.149533653E+02  0.000000000E+00  0.00000E+00  9.000E+00
      25     1     1     2     0     0  3.105171840E+01 -3.810152951E+02  8.133631146E+02  9.073706082E+02  1.250000000E+02  0.00000E+00  9.000E+00
      25     1     1     2     0     0 -3.960424645E+01  4.300208059E+02  6.817478146E+02  8.166342343E+02  1.250000000E+02  0.00000E+00  9.000E+00
      21     1     1     2   512   502  8.552528046E+00 -4.900551076E+01  1.221177666E+03  1.222190483E+03  2.157918644E-05  0.00000E+00  9.000E+00
#rwgt            1           1   1.8213002828659917E-002          10       37100           0
</event>
<event>
      5   9999  3.19816E-02  4.01715E+02 -1.00000E+00  1.01630E-01
      21    -1     0     0   502   511  0.000000000E+00  0.000000000E+00  6.389110298E+02  6.389110298E+02  0.000000000E+00  0.00000E+00  9.000E+00
      21    -1     0     0   501   502  0.000000000E+00  0.000000000E+00 -7.537311597E+02  7.537311597E+02  0.000000000E+00  0.00000E+00  9.000E+00
      25     1     1     2     0     0 -3.543219248E+02 -4.106218347E+02 -3.970770616E+02  6.837027940E+02  1.250000000E+02  0.00000E+00  9.000E+00
      25     1     1     2     0     0  1.121415685E+01  2.016912627E+02  4.311460873E+01  2.414311335E+02  1.250000000E+02  0.00000E+00  9.000E+00
      21     1     1     2   501   511  3.431077680E+02  2.089305720E+02  2.391423231E+02  4.675082620E+02  8.092194914E-06  0.00000E+00  9.000E+00
#rwgt            2          11   3.0400806535429105E-003          10       37233           0
</event>
<event>
      5   9999  3.19816E-02  4.66381E+02 -1.00000E+00  9.97185E-02
      21    -1     0     0   502   501  0.000000000E+00  0.000000000E+00  4.600921753E+02  4.600921753E+02  0.000000000E+00  0.00000E+00  9.000E+00
       2    -1     0     0   501     0  0.000000000E+00  0.000000000E+00 -6.203022376E+02  6.203022376E+02  0.000000000E+00  0.00000E+00  9.000E+00
      25     1     1     2     0     0  4.122068503E+02  8.021512669E+01 -1.719593126E+02  4.706845645E+02  1.250000000E+02  0.00000E+00  9.000E+00
      25     1     1     2     0     0  5.123118749E+01 -2.790851793E+01 -3.096741305E+01  1.413771573E+02  1.250000000E+02  0.00000E+00  9.000E+00
       2     1     1     2   502     0 -4.634380378E+02 -5.230660877E+01  4.271666336E+01  4.683326911E+02  6.069146186E-06  0.00000E+00  9.000E+00
#rwgt            2          13   3.6415463734110155E-004          10       37433           0
</event>
<event>
      5   9999  3.19816E-02  9.90824E+01 -1.00000E+00  1.24008E-01
      -2    -1     0     0     0   501  0.000000000E+00  0.000000000E+00  5.737524500E+02  5.737524500E+02  0.000000000E+00  0.00000E+00  9.000E+00
      21    -1     0     0   501   502  0.000000000E+00  0.000000000E+00 -2.656405577E+02  2.656405577E+02  0.000000000E+00  0.00000E+00  9.000E+00
      25     1     1     2     0     0 -9.976171893E+01  2.986387070E+01  1.919013143E+02  2.515857027E+02  1.250000000E+02  0.00000E+00  9.000E+00
      25     1     1     2     0     0  3.358597915E+00 -5.274960435E+01 -2.082419591E+02  2.485628984E+02  1.250000000E+02  0.00000E+00  9.000E+00
      -2     1     1     2     0   502  9.640312101E+01  2.288573364E+01  3.244525371E+02  3.392444065E+02  0.000000000E+00  0.00000E+00  9.000E+00
#rwgt            1           1   2.9992348689246374E-002          10       37452           0
</event>
<event>
      5   9999  3.19816E-02  4.89291E+01 -1.00000E+00  1.39614E-01
      21    -1     0     0   511   501  0.000000000E+00  0.000000000E+00  2.485917906E+03  2.485917906E+03  0.000000000E+00  0.00000E+00  9.000E+00
      21    -1     0     0   501   502  0.000000000E+00  0.000000000E+00 -3.142425665E+01  3.142425665E+01  0.000000000E+00  0.00000E+00  9.000E+00
      25     1     1     2     0     0  6.401067990E+01 -2.206940342E+01  1.866165634E+03  1.871572494E+03  1.250000000E+02  0.00000E+00  9.000E+00
      25     1     1     2     0     0 -4.628695028E+01 -2.353682445E+01  1.398357523E+02  1.946162930E+02  1.250000000E+02  0.00000E+00  9.000E+00
      21     1     1     2   511   502 -1.772372962E+01  4.560622786E+01  4.484922625E+02  4.511533754E+02  5.394796609E-06  0.00000E+00  9.000E+00
#rwgt            1           1   8.8417563730175133E-002          10       37518           0
</event>
<event>
      5   9999  3.19816E-02  1.75188E+02 -1.00000E+00  1.13783E-01
      21    -1     0     0   502   501  0.000000000E+00  0.000000000E+00  1.153283483E+02  1.153283483E+02  0.000000000E+00  0.00000E+00  9.000E+00
       1    -1     0     0   501     0  0.000000000E+00  0.000000000E+00 -3.404302830E+03  3.404302830E+03  0.000000000E+00  0.00000E+00  9.000E+00
      25     1     1     2     0     0  1.526164247E+02 -1.131112276E+02 -6.084895626E+01  2.354007612E+02  1.250000000E+02  0.00000E+00  9.000E+00
      25     1     1     2     0     0 -1.152628440E+02  2.842711276E+02 -1.097058728E+03  1.145974891E+03  1.250000000E+02  0.00000E+00  9.000E+00
       1     1     1     2   502     0 -3.735358068E+01 -1.711598999E+02 -2.131066797E+03  2.138255526E+03  4.315837288E-05  0.00000E+00  9.000E+00
#rwgt            2          12   3.1823346770133053E-004          10       37646           0
</event>
<event>
      5   9999  3.19816E-02  1.58383E+02 -1.00000E+00  1.15465E-01
      21    -1     0     0   502   501  0.000000000E+00  0.000000000E+00  3.091041479E+02  3.091041479E+02  0.000000000E+00  0.00000E+00  9.000E+00
      21    -1     0     0   501   511  0.000000000E+00  0.000000000E+00 -4.891188654E+02  4.891188654E+02  0.000000000E+00  0.00000E+00  9.000E+00
      25     1     1     2     0     0  4.782606923E+01  1.877826695E+02  9.070447043E+01  2.477941985E+02  1.250000000E+02  0.00000E+00  9.000E+00
      25     1     1     2     0     0  1.102741411E+02 -1.972442749E+02 -2.684478390E+01  2.596369246E+02  1.250000000E+02  0.00000E+00  9.000E+00
      21     1     1     2   502   511 -1.581002104E+02  9.461605364E+00 -2.438744040E+02  2.907918902E+02  3.814697266E-06  0.00000E+00  9.000E+00
#rwgt            1           1   2.3331570228916229E-002          10       37665           0
</event>
<event>
      5   9999  3.19816E-02  1.41849E+02 -1.00000E+00  1.17363E-01
      21    -1     0     0   502   501  0.000000000E+00  0.000000000E+00  1.577770633E+02  1.577770633E+02  0.000000000E+00  0.00000E+00  9.000E+00
       1    -1     0     0   501     0  0.000000000E+00  0.000000000E+00 -3.305066545E+03  3.305066545E+03  0.000000000E+00  0.00000E+00  9.000E+00
      25     1     1     2     0     0 -7.600764231E+01 -2.616538983E+02 -9.856374343E+02  1.030216519E+03  1.250000000E+02  0.00000E+00  9.000E+00
      25     1     1     2     0     0  7.532819275E+01  4.035017138E+02 -2.134050946E+02  4.792230212E+02  1.250000000E+02  0.00000E+00  9.000E+00
       1     1     1     2   502     0  6.794495556E-01 -1.418478154E+02 -1.948246953E+03  1.953404068E+03  3.051757812E-05  0.00000E+00  9.000E+00
#rwgt            1           1   2.7487558221448619E-002          10       37703           0
</event>
<event>
      5   9999  3.19816E-02  1.19035E+01 -1.00000E+00  1.87397E-01
      21    -1     0     0   502   511  0.000000000E+00  0.000000000E+00  7.730050238E+02  7.730050238E+02  0.000000000E+00  0.00000E+00  9.000E+00
      21    -1     0     0   501   502  0.000000000E+00  0.000000000E+00 -2.116287123E+02  2.116287123E+02  0.000000000E+00  0.00000E+00  9.000E+00
      25     1     1     2     0     0  1.309779044E+02 -2.332663085E+01 -8.153518270E-01  1.825513844E+02  1.250000000E+02  0.00000E+00  9.000E+00
      25     1     1     2     0     0 -1.424387591E+02  2.654258872E+01 -4.352673466E+01  1.962470019E+02  1.250000000E+02  0.00000E+00  9.000E+00
      21     1     1     2   501   511  1.146085471E+01 -3.215957869E+00  6.057183979E+02  6.058353499E+02  7.629394531E-06  0.00000E+00  9.000E+00
#rwgt            1           1   2.8409623448374367E-002          10       37757           0
</event>
<event>
      5   9999  3.19816E-02  1.67538E+01 -1.00000E+00  1.72976E-01
      -2    -1     0     0     0   501  0.000000000E+00  0.000000000E+00  1.172802220E+03  1.172802220E+03  0.000000000E+00  0.00000E+00  9.000E+00
      21    -1     0     0   501   502  0.000000000E+00  0.000000000E+00 -1.562119839E+02  1.562119839E+02  0.000000000E+00  0.00000E+00  9.000E+00
      25     1     1     2     0     0 -9.810506089E+01 -4.331584860E+01 -8.073542172E+01  1.834232102E+02  1.250000000E+02  0.00000E+00  9.000E+00
      25     1     1     2     0     0  1.148188512E+02  4.215916057E+01  2.939557462E+02  3.420464064E+02  1.250000000E+02  0.00000E+00  9.000E+00
      -2     1     1     2     0   502 -1.671379035E+01  1.156688036E+00  8.033699119E+02  8.035445874E+02  1.078959322E-05  0.00000E+00  9.000E+00
#rwgt            1           1   2.6954765085797847E-002          10       37931           0
</event>
<event>
      5   9999  3.19816E-02  8.99946E+00 -1.00000E+00  2.01203E-01
      21    -1     0     0   502   501  0.000000000E+00  0.000000000E+00  6.691551616E+02  6.691551616E+02  0.000000000E+00  0.00000E+00  9.000E+00
      21    -1     0     0   501   511  0.000000000E+00  0.000000000E+00 -7.466356331E+01  7.466356331E+01  0.000000000E+00  0.00000E+00  9.000E+00
      25     1     1     2     0     0 -3.544842960E+01 -1.587209621E+02  2.570798918E+02  3.288829666E+02  1.250000000E+02  0.00000E+00  9.000E+00
      25     1     1     2     0     0  3.869607137E+01  1.671139976E+02  3.437018292E+02  4.039559648E+02  1.250000000E+02  0.00000E+00  9.000E+00
      21     1     1     2   502   511 -3.247641769E+00 -8.393035467E+00 -6.290122652E+00  1.097979346E+01  1.460009660E-07  0.00000E+00  9.000E+00
#rwgt            1           1   2.8130163489199347E-002          10       38092           0
</event>
<event>
      5   9999  3.19816E-02  2.59664E+01 -1.00000E+00  1.57527E-01
      21    -1     0     0   502   501  0.000000000E+00  0.000000000E+00  4.756708957E+01  4.756708957E+01  0.000000000E+00  0.00000E+00  9.000E+00
      21    -1     0     0   501   512  0.000000000E+00  0.000000000E+00 -2.845921944E+03  2.845921944E+03  0.000000000E+00  0.00000E+00  9.000E+00
      25     1     1     2     0     0 -2.913369107E+02 -9.289709025E+01 -1.229050649E+03  1.272673392E+03  1.250000000E+02  0.00000E+00  9.000E+00
      25     1     1     2     0     0  3.109853876E+02  7.592096703E+01 -1.138665961E+03  1.189395256E+03  1.250000000E+02  0.00000E+00  9.000E+00
      21     1     1     2   502   512 -1.964847692E+01  1.697612322E+01 -4.306382446E+02  4.314203857E+02  5.394796609E-06  0.00000E+00  9.000E+00
#rwgt            1           1   6.5150378281780122E-002          10       38368           0
</event>
<event>
      5   9999  3.19816E-02  2.90319E+01 -1.00000E+00  1.54036E-01
      21    -1     0     0   502   511  0.000000000E+00  0.000000000E+00  2.082718910E+02  2.082718910E+02  0.000000000E+00  0.00000E+00  9.000E+00
      21    -1     0     0   501   502  0.000000000E+00  0.000000000E+00 -6.478399141E+02  6.478399141E+02  0.000000000E+00  0.00000E+00  9.000E+00
      25     1     1     2     0     0  3.076132652E+02  5.516800623E+01 -2.526299047E+02  4.208518726E+02  1.250000000E+02  0.00000E+00  9.000E+00
      25     1     1     2     0     0 -3.353392158E+02 -6.377732519E+01 -1.787923575E+02  4.051069538E+02  1.250000000E+02  0.00000E+00  9.000E+00
      21     1     1     2   501   511  2.772595059E+01  8.609318959E+00 -8.145760770E+00  3.015297875E+01  3.153981341E-07  0.00000E+00  9.000E+00
#rwgt            1           1   2.6751525269043376E-002          10       38562           0
</event>
<event>
      5   9999  3.19816E-02  1.12510E+02 -1.00000E+00  1.21568E-01
      21    -1     0     0   502   501  0.000000000E+00  0.000000000E+00  6.032646122E+01  6.032646122E+01  0.000000000E+00  0.00000E+00  9.000E+00
      21    -1     0     0   512   502  0.000000000E+00  0.000000000E+00 -2.457211436E+03  2.457211436E+03  0.000000000E+00  0.00000E+00  9.000E+00
      25     1     1     2     0     0 -1.101881653E+02 -6.185381968E+01 -9.948891127E+02  1.010641714E+03  1.250000000E+02  0.00000E+00  9.000E+00
      25     1     1     2     0     0  8.527469150E+01 -4.786292202E+01 -7.569774937E+01  1.758345290E+02  1.250000000E+02  0.00000E+00  9.000E+00
      21     1     1     2   512   501  2.491347384E+01  1.097167417E+02 -1.326298113E+03  1.331061655E+03  1.525878906E-05  0.00000E+00  9.000E+00
#rwgt            1           1   3.4652297021603010E-002          10       38684           0
</event>
<event>
      5   9999  3.19816E-02  1.41004E+01 -1.00000E+00  1.79952E-01
      21    -1     0     0   502   501  0.000000000E+00  0.000000000E+00  1.942545312E+02  1.942545312E+02  0.000000000E+00  0.00000E+00  9.000E+00
      21    -1     0     0   501   511  0.000000000E+00  0.000000000E+00 -1.191366322E+03  1.191366322E+03  0.000000000E+00  0.00000E+00  9.000E+00
      25     1     1     2     0     0 -2.045323163E+01  3.347283626E+01  1.633575234E+02  2.094025928E+02  1.250000000E+02  0.00000E+00  9.000E+00
      25     1     1     2     0     0  1.681437771E+01 -1.985007847E+01 -5.148624880E+02  5.304574728E+02  1.250000000E+02  0.00000E+00  9.000E+00
      21     1     1     2   502   511  3.638853915E+00 -1.362275779E+01 -6.456068259E+02  6.457607873E+02  7.629394531E-06  0.00000E+00  9.000E+00
#rwgt            1           1   2.8080522769378814E-002          10       38797           0
</event>
<event>
      5   9999  3.19816E-02  8.52812E+01 -1.00000E+00  1.27020E-01
      21    -1     0     0   512   501  0.000000000E+00  0.000000000E+00  8.244633608E+01  8.244633608E+01  0.000000000E+00  0.00000E+00  9.000E+00
      21    -1     0     0   501   502  0.000000000E+00  0.000000000E+00 -9.615103907E+02  9.615103907E+02  0.000000000E+00  0.00000E+00  9.000E+00
      25     1     1     2     0     0 -2.357485068E+01  2.137186863E+02 -3.445873786E+02  4.249669539E+02  1.250000000E+02  0.00000E+00  9.000E+00
      25     1     1     2     0     0  4.057908702E+01 -1.301499361E+02 -4.879786062E+02  5.218560992E+02  1.250000000E+02  0.00000E+00  9.000E+00
      21     1     1     2   512   502 -1.700423633E+01 -8.356875017E+01 -4.649806987E+01  9.713367367E+01  1.507891493E-06  0.00000E+00  9.000E+00
#rwgt            1           1   2.6460246951594046E-002          10       39033           0
</event>
<event>
      5   9999  3.19816E-02  1.77413E+01 -1.00000E+00  1.70781E-01
      21    -1     0     0   502   511  0.000000000E+00  0.000000000E+00  7.160916643E+01  7.160916643E+01  0.000000000E+00  0.00000E+00  9.000E+00
      21    -1     0     0   501   502  0.000000000E+00  0.000000000E+00 -1.029542624E+03  1.029542624E+03  0.000000000E+00  0.00000E+00  9.000E+00
      25     1     1     2     0     0 -1.277766934E+01 -9.483671007E+01 -5.321530999E+02  5.549497204E+02  1.250000000E+02  0.00000E+00  9.000E+00
      25     1     1     2     0     0  2.691839894E+01  8.412260010E+01 -4.722645240E+02  4.964473715E+02  1.250000000E+02  0.00000E+00  9.000E+00
      21     1     1     2   501   511 -1.414072960E+01  1.071410997E+01  4.648416592E+01  4.975469895E+01  2.023048729E-06  0.00000E+00  9.000E+00
#rwgt            1           1   8.0341619952681839E-002          10       39115           0
</event>
<event>
      5   9999  3.19816E-02  5.99112E+01 -1.00000E+00  1.34738E-01
      21    -1     0     0   502   512  0.000000000E+00  0.000000000E+00  1.803437098E+03  1.803437098E+03  0.000000000E+00  0.00000E+00  9.000E+00
      21    -1     0     0   501   502  0.000000000E+00  0.000000000E+00 -2.301027867E+02  2.301027867E+02  0.000000000E+00  0.00000E+00  9.000E+00
      25     1     1     2     0     0  3.604166443E+02 -4.068368188E+02  1.092571926E+03  1.226684462E+03  1.250000000E+02  0.00000E+00  9.000E+00
      25     1     1     2     0     0 -4.136891899E+02  3.794254713E+02  3.789272280E+02  6.887040571E+02  1.250000000E+02  0.00000E+00  9.000E+00
      21     1     1     2   501   512  5.327254560E+01  2.741134747E+01  1.018351574E+02  1.181513663E+02  0.000000000E+00  0.00000E+00  9.000E+00
#rwgt            1           1   2.3690780344159085E-002          10       39241           0
</event>
<event>
      5   9999  3.19816E-02  3.09968E+02 -1.00000E+00  1.05133E-01
      -3    -1     0     0     0   501  0.000000000E+00  0.000000000E+00  5.720805967E+02  5.720805967E+02  0.000000000E+00  0.00000E+00  9.000E+00
      21    -1     0     0   501   502  0.000000000E+00  0.000000000E+00 -4.116906722E+02  4.116906722E+02  0.000000000E+00  0.00000E+00  9.000E+00
      25     1     1     2     0     0  1.793775303E+01 -1.249997633E+02  1.576544877E+02  2.375429252E+02  1.250000000E+02  0.00000E+00  9.000E+00
      25     1     1     2     0     0  1.656278220E+02  3.747676503E+02 -5.179982471E+01  4.314992340E+02  1.250000000E+02  0.00000E+00  9.000E+00
      -3     1     1     2     0   502 -1.835655751E+02 -2.497678870E+02  5.453526152E+01  3.147291096E+02  4.523674479E-06  0.00000E+00  9.000E+00
#rwgt            2           3   3.3961754966913044E-005          10       39434           0
</event>
<event>
      5   9999  3.19816E-02  4.39171E+01 -1.00000E+00  1.42368E-01
      21    -1     0     0   511   501  0.000000000E+00  0.000000000E+00  2.766518100E+01  2.766518100E+01  0.000000000E+00  0.00000E+00  9.000E+00
      21    -1     0     0   501   502  0.000000000E+00  0.000000000E+00 -3.492724635E+03  3.492724635E+03  0.000000000E+00  0.00000E+00  9.000E+00
      25     1     1     2     0     0 -1.386267212E+02 -1.210176850E+02 -6.474848733E+02  6.846344346E+02  1.250000000E+02  0.00000E+00  9.000E+00
      25     1     1     2     0     0  1.624463873E+02  8.412142455E+01 -2.716893760E+03  2.725913048E+03  1.250000000E+02  0.00000E+00  9.000E+00
      21     1     1     2   511   502 -2.381966611E+01  3.689626041E+01 -1.006808209E+02  1.098423335E+02  1.348699152E-06  0.00000E+00  9.000E+00
#rwgt            1           1   1.6845789666309553E-002          10       39453           0
</event>
<event>
      5   9999  3.19816E-02  2.14743E+01 -1.00000E+00  1.63860E-01
       2    -1     0     0   502     0  0.000000000E+00  0.000000000E+00  5.106561654E+03  5.106561654E+03  0.000000000E+00  0.00000E+00  9.000E+00
      21    -1     0     0   501   502  0.000000000E+00  0.000000000E+00 -6.355288672E+01  6.355288672E+01  0.000000000E+00  0.00000E+00  9.000E+00
      25     1     1     2     0     0  6.660564637E+01  2.842672493E+02  4.209447662E+02  5.273174351E+02  1.250000000E+02  0.00000E+00  9.000E+00
      25     1     1     2     0     0 -4.672888865E+01 -2.761395850E+02  2.268846237E+03  2.289481362E+03  1.250000000E+02  0.00000E+00  9.000E+00
       2     1     1     2   501     0 -1.987675772E+01 -8.127664351E+00  2.353217764E+03  2.353315744E+03  3.051757812E-05  0.00000E+00  9.000E+00
#rwgt            1           1   3.2533690900600667E-002          10       39561           0
</event>
<event>
      5   9999  3.19816E-02  2.09475E+02 -1.00000E+00  1.10921E-01
       2    -1     0     0   502     0  0.000000000E+00  0.000000000E+00  2.492318221E+03  2.492318221E+03  0.000000000E+00  0.00000E+00  9.000E+00
      21    -1     0     0   501   502  0.000000000E+00  0.000000000E+00 -6.427022020E+01  6.427022020E+01  0.000000000E+00  0.00000E+00  9.000E+00
      25     1     1     2     0     0  2.919158922E+02  1.748724235E+02  1.214745610E+03  1.267685746E+03  1.250000000E+02  0.00000E+00  9.000E+00
      25     1     1     2     0     0 -9.296837119E+01 -1.093001927E+02  8.356521789E+02  8.570467982E+02  1.250000000E+02  0.00000E+00  9.000E+00
       2     1     1     2   501     0 -1.989475210E+02 -6.557223077E+01  3.776502114E+02  4.318558970E+02  9.344061824E-06  0.00000E+00  9.000E+00
#rwgt            1           1   8.8555842381051797E-002          10       39826           0
</event>
<event>
      5   9999  3.19816E-02  2.14226E+01 -1.00000E+00  1.63944E-01
      21    -1     0     0   502   511  0.000000000E+00  0.000000000E+00  1.028739616E+03  1.028739616E+03  0.000000000E+00  0.00000E+00  9.000E+00
      21    -1     0     0   501   502  0.000000000E+00  0.000000000E+00 -1.052742812E+03  1.052742812E+03  0.000000000E+00  0.00000E+00  9.000E+00
      25     1     1     2     0     0  1.173669726E+01 -6.335901331E+02 -6.717381416E+02  9.318966347E+02  1.250000000E+02  0.00000E+00  9.000E+00
      25     1     1     2     0     0 -3.109685405E+01  6.427613676E+02  1.778847910E+02  6.792475166E+02  1.250000000E+02  0.00000E+00  9.000E+00
      21     1     1     2   501   511  1.936015679E+01 -9.171234466E+00  4.698501540E+02  4.703382766E+02  5.394796609E-06  0.00000E+00  9.000E+00
#rwgt            1           1   2.9123039116855879E-002          10       39919           0
</event>
<event>
      5   9999  3.19816E-02  5.35246E+01 -1.00000E+00  1.37408E-01
      21    -1     0     0   502   501  0.000000000E+00  0.000000000E+00  2.342221592E+02  2.342221592E+02  0.000000000E+00  0.00000E+00  9.000E+00
      21    -1     0     0   501   512  0.000000000E+00  0.000000000E+00 -8.520447213E+02  8.520447213E+02  0.000000000E+00  0.00000E+00  9.000E+00
      25     1     1     2     0     0  8.396608426E+00 -3.672822539E+02 -1.549685560E+02  4.178600369E+02  1.250000000E+02  0.00000E+00  9.000E+00
      25     1     1     2     0     0  2.681903245E+01  4.075903162E+02 -3.934027275E+02  5.807235421E+02  1.250000000E+02  0.00000E+00  9.000E+00
      21     1     1     2   502   512 -3.521564087E+01 -4.030806227E+01 -6.945127862E+01  8.768330142E+01  0.000000000E+00  0.00000E+00  9.000E+00
#rwgt            1           1   2.6422706732527699E-002          10       40137           0
</event>
<event>
      5   9999  3.19816E-02  3.90648E+01 -1.00000E+00  1.45480E-01
      21    -1     0     0   502   501  0.000000000E+00  0.000000000E+00  1.700958139E+02  1.700958139E+02  0.000000000E+00  0.00000E+00  9.000E+00
      21    -1     0     0   501   511  0.000000000E+00  0.000000000E+00 -1.091403578E+03  1.091403578E+03  0.000000000E+00  0.00000E+00  9.000E+00
      25     1     1     2     0     0  2.196476392E+02  1.282692340E+02 -1.719518925E+00  2.834184866E+02  1.250000000E+02  0.00000E+00  9.000E+00
      25     1     1     2     0     0 -1.986742208E+02 -1.612263596E+02 -8.670222902E+02  9.125886459E+02  1.250000000E+02  0.00000E+00  9.000E+00
      21     1     1     2   502   511 -2.097341843E+01  3.295712563E+01 -5.256595477E+01  6.549225917E+01  1.507891493E-06  0.00000E+00  9.000E+00
#rwgt            1           1   2.6583988713832996E-002          10       40285           0
</event>
<event>
      5   9999  3.19816E-02  2.86144E+01 -1.00000E+00  1.54480E-01
      21    -1     0     0   502   501  0.000000000E+00  0.000000000E+00  3.831161948E+02  3.831161948E+02  0.000000000E+00  0.00000E+00  9.000E+00
      21    -1     0     0   512   502  0.000000000E+00  0.000000000E+00 -2.354353948E+02  2.354353948E+02  0.000000000E+00  0.00000E+00  9.000E+00
      25     1     1     2     0     0  2.315267547E+02  1.875903243E+01 -2.001766990E+01  2.645415781E+02  1.250000000E+02  0.00000E+00  9.000E+00
      25     1     1     2     0     0 -2.283883456E+02 -4.720083193E+01  1.828480188E+02  3.216326366E+02  1.250000000E+02  0.00000E+00  9.000E+00
      21     1     1     2   512   501 -3.138409099E+00  2.844179950E+01 -1.514954884E+01  3.237737483E+01  1.685873940E-07  0.00000E+00  9.000E+00
#rwgt            1           1   2.6974765264460673E-002          10       40448           0
</event>
<event>
      5   9999  3.19816E-02  8.80522E+01 -1.00000E+00  1.26365E-01
      21    -1     0     0   502   511  0.000000000E+00  0.000000000E+00  4.175682345E+02  4.175682345E+02  0.000000000E+00  0.00000E+00  9.000E+00
      21    -1     0     0   501   502  0.000000000E+00  0.000000000E+00 -2.126171983E+02  2.126171983E+02  0.000000000E+00  0.00000E+00  9.000E+00
      25     1     1     2     0     0  2.219186104E+01 -1.432772273E+02  2.583473105E+02  3.215418719E+02  1.250000000E+02  0.00000E+00  9.000E+00
      25     1     1     2     0     0 -1.035878885E+02  1.096934098E+02 -8.702758471E+01  2.143872554E+02  1.250000000E+02  0.00000E+00  9.000E+00
      21     1     1     2   501   511  8.139602741E+01  3.358381748E+01  3.363131035E+01  9.425630542E+01  9.536743164E-07  0.00000E+00  9.000E+00
#rwgt            1           1   3.0647642487390717E-002          10       40626           0
</event>
<event>
      5   9999  3.19816E-02  1.40406E+02 -1.00000E+00  1.17543E-01
      21    -1     0     0   502   501  0.000000000E+00  0.000000000E+00  6.265329888E+02  6.265329888E+02  0.000000000E+00  0.00000E+00  9.000E+00
      21    -1     0     0   501   512  0.000000000E+00  0.000000000E+00 -1.821793135E+03  1.821793135E+03  0.000000000E+00  0.00000E+00  9.000E+00
      25     1     1     2     0     0  6.970134357E+02 -8.893774218E+01 -1.260708832E+03  1.448706116E+03  1.250000000E+02  0.00000E+00  9.000E+00
      25     1     1     2     0     0 -8.119858836E+02  8.344550053E+00  1.507840876E+02  8.353152385E+02  1.250000000E+02  0.00000E+00  9.000E+00
      21     1     1     2   502   512  1.149724479E+02  8.059319213E+01 -8.533540188E+01  1.643047693E+02  2.336015456E-06  0.00000E+00  9.000E+00
#rwgt            1           1   2.8503825489425840E-002          10       40708           0
</event>
<event>
      5   9999  3.19816E-02  3.35191E+01 -1.00000E+00  1.49768E-01
      21    -1     0     0   502   501  0.000000000E+00  0.000000000E+00  1.216512395E+03  1.216512395E+03  0.000000000E+00  0.00000E+00  9.000E+00
      21    -1     0     0   501   511  0.000000000E+00  0.000000000E+00 -2.259413157E+02  2.259413157E+02  0.000000000E+00  0.00000E+00  9.000E+00
      25     1     1     2     0     0 -1.474775108E+02 -4.199936730E+02  4.752162785E+02  6.630232371E+02  1.250000000E+02  0.00000E+00  9.000E+00
      25     1     1     2     0     0  1.475388532E+02  4.535127630E+02  5.448384966E+02  7.347894438E+02  1.250000000E+02  0.00000E+00  9.000E+00
      21     1     1     2   502   511 -6.134237843E-02 -3.351908994E+01 -2.948369620E+01  4.464102928E+01  1.305872339E-06  0.00000E+00  9.000E+00
#rwgt            1           1   3.0972291837823560E-002          10       40798           0
</event>
<event>
      5   9999  3.19816E-02  1.37348E+02 -1.00000E+00  1.17931E-01
      21    -1     0     0   502   501  0.000000000E+00  0.000000000E+00  4.442100125E+02  4.442100125E+02  0.000000000E+00  0.00000E+00  9.000E+00
      21    -1     0     0   512   502  0.000000000E+00  0.000000000E+00 -6.987994629E+02  6.987994629E+02  0.000000000E+00  0.00000E+00  9.000E+00
      25     1     1     2     0     0 -2.875307350E+02  2.652568385E+02  5.313590990E+01  4.141057098E+02  1.250000000E+02  0.00000E+00  9.000E+00
      25     1     1     2     0     0  4.241155588E+02 -2.797198658E+02 -2.511292105E+02  5.803516959E+02  1.250000000E+02  0.00000E+00  9.000E+00
      21     1     1     2   512   501 -1.365848239E+02  1.446302725E+01 -5.659614985E+01  1.485520698E+02  4.156969970E-06  0.00000E+00  9.000E+00
#rwgt            1           1   2.4462377205684411E-002          10       40930           0
</event>
<event>
      5   9999  3.19816E-02  1.03345E+02 -1.00000E+00  1.23189E-01
      21    -1     0     0   502   511  0.000000000E+00  0.000000000E+00  4.388341342E+02  4.388341342E+02  0.000000000E+00  0.00000E+00  9.000E+00
      21    -1     0     0   501   502  0.000000000E+00  0.000000000E+00 -2.316774776E+02  2.316774776E+02  0.000000000E+00  0.00000E+00  9.000E+00
      25     1     1     2     0     0 -1.153269028E+02 -2.003379386E+02 -6.863823804E+01  2.716096314E+02  1.250000000E+02  0.00000E+00  9.000E+00
      25     1     1     2     0     0  4.064588790E+01  1.289031871E+02  1.625820410E+02  2.456135988E+02  1.250000000E+02  0.00000E+00  9.000E+00
      21     1     1     2   501   511  7.468101490E+01  7.143475153E+01  1.132128536E+02  1.532883816E+02  1.348699152E-06  0.00000E+00  9.000E+00
#rwgt            1           1   2.8007032057306886E-002          10       41009           0
</event>
<event>
      5   9999  3.19816E-02  5.33474E+01 -1.00000E+00  1.37489E-01
      21    -1     0     0   502   512  0.000000000E+00  0.000000000E+00  1.709562564E+02  1.709562564E+02  0.000000000E+00  0.00000E+00  9.000E+00
      21    -1     0     0   501   502  0.000000000E+00  0.000000000E+00 -1.756347100E+02  1.756347100E+02  0.000000000E+00  0.00000E+00  9.000E+00
      25     1     1     2     0     0 -4.610362940E+01 -1.225503681E+01  2.097519728E+00  1.338100525E+02  1.250000000E+02  0.00000E+00  9.000E+00
      25     1     1     2     0     0  1.200894347E+01  5.328542019E+01 -4.878982997E+01  1.448758028E+02  1.250000000E+02  0.00000E+00  9.000E+00
      21     1     1     2   501   512  3.409468594E+01 -4.103038338E+01  4.201385665E+01  6.790511115E+01  1.261592536E-06  0.00000E+00  9.000E+00
#rwgt            1           1   6.6385274566824522E-003          10       41110           0
</event>
<event>
      5   9999  3.19816E-02  1.88035E+02 -1.00000E+00  1.12632E-01
      21    -1     0     0   502   511  0.000000000E+00  0.000000000E+00  2.528149076E+02  2.528149076E+02  0.000000000E+00  0.00000E+00  9.000E+00
      21    -1     0     0   501   502  0.000000000E+00  0.000000000E+00 -8.047616702E+02  8.047616702E+02  0.000000000E+00  0.00000E+00  9.000E+00
      25     1     1     2     0     0  1.301063263E+02  7.016756090E+01 -1.104004990E+02  2.228551389E+02  1.250000000E+02  0.00000E+00  9.000E+00
      25     1     1     2     0     0 -3.072803200E+02 -7.188351197E+00 -5.312716357E+02  6.263764191E+02  1.250000000E+02  0.00000E+00  9.000E+00
      21     1     1     2   501   511  1.771739937E+02 -6.297920970E+01  8.972537216E+01  2.083450199E+02  2.861022949E-06  0.00000E+00  9.000E+00
#rwgt            1           1   2.6966100972535965E-002          10       41181           0
</event>
<event>
      5   9999  3.19816E-02  1.60583E+01 -1.00000E+00  1.74639E-01
      21    -1     0     0   502   501  0.000000000E+00  0.000000000E+00  3.032137305E+02  3.032137305E+02  0.000000000E+00  0.00000E+00  9.000E+00
      21    -1     0     0   501   512  0.000000000E+00  0.000000000E+00 -4.955063065E+02  4.955063065E+02  0.000000000E+00  0.00000E+00  9.000E+00
      25     1     1     2     0     0  9.635284731E+01 -8.947909168E+01  9.877882042E+01  2.065735569E+02  1.250000000E+02  0.00000E+00  9.000E+00
      25     1     1     2     0     0 -9.560033773E+01  7.343843902E+01  1.002347782E+02  2.005109465E+02  1.250000000E+02  0.00000E+00  9.000E+00
      21     1     1     2   502   512 -7.525095862E-01  1.604065266E+01 -3.913061747E+02  3.916355336E+02  0.000000000E+00  0.00000E+00  9.000E+00
#rwgt            1           1   2.8316668186586184E-002          10       41344           0
</event>
<event>
      5   9999  3.19816E-02  1.06476E+02 -1.00000E+00  1.22615E-01
      21    -1     0     0   511   501  0.000000000E+00  0.000000000E+00  1.368530903E+02  1.368530903E+02  0.000000000E+00  0.00000E+00  9.000E+00
      21    -1     0     0   501   502  0.000000000E+00  0.000000000E+00 -2.238965779E+03  2.238965779E+03  0.000000000E+00  0.00000E+00  9.000E+00
      25     1     1     2     0     0  3.023170473E+02  7.340565696E+01 -1.632791029E+03  1.666857982E+03  1.250000000E+02  0.00000E+00  9.000E+00
      25     1     1     2     0     0 -3.990345238E+02 -2.887673184E+01 -3.291902138E+02  5.329668036E+02  1.250000000E+02  0.00000E+00  9.000E+00
      21     1     1     2   511   502  9.671747654E+01 -4.452892512E+01 -1.401314459E+02  1.759940839E+02  2.697398305E-06  0.00000E+00  9.000E+00
#rwgt            1           1   3.1197168850199453E-002          10       41465           0
</event>
<event>
      5   9999  3.19816E-02  9.82353E+01 -1.00000E+00  1.24177E-01
      21    -1     0     0   502   501  0.000000000E+00  0.000000000E+00  3.163310004E+02  3.163310004E+02  0.000000000E+00  0.00000E+00  9.000E+00
      21    -1     0     0   501   512  0.000000000E+00  0.000000000E+00 -1.154754089E+03  1.154754089E+03  0.000000000E+00  0.00000E+00  9.000E+00
      25     1     1     2     0     0  3.469294944E+01  8.472605810E+01 -9.649648184E+02  9.773250260E+02  1.250000000E+02  0.00000E+00  9.000E+00
      25     1     1     2     0     0  6.331039946E+01 -7.798001859E+01  2.734699054E+02  3.170171591E+02  1.250000000E+02  0.00000E+00  9.000E+00
      21     1     1     2   502   512 -9.800334890E+01 -6.746039511E+00 -1.469281755E+02  1.767429042E+02  3.303624740E-06  0.00000E+00  9.000E+00
#rwgt            1           1   2.6765637530428297E-002          10       41519           0
</event>
<event>
      5   9999  3.19816E-02  1.31161E+02 -1.00000E+00  1.18751E-01
      21    -1     0     0   502   501  0.000000000E+00  0.000000000E+00  4.740312815E+02  4.740312815E+02  0.000000000E+00  0.00000E+00  9.000E+00
      21    -1     0     0   501   511  0.000000000E+00  0.000000000E+00 -3.279976642E+02  3.279976642E+02  0.000000000E+00  0.00000E+00  9.000E+00
      25     1     1     2     0     0  8.699562879E+01 -1.580648226E+02 -1.102615192E+02  2.456325105E+02  1.250000000E+02  0.00000E+00  9.000E+00
      25     1     1     2     0     0  4.004986158E+01  1.906623039E+02  3.321718743E+02  4.048694352E+02  1.250000000E+02  0.00000E+00  9.000E+00
      21     1     1     2   502   511 -1.270454904E+02 -3.259748132E+01 -7.587673772E+01  1.515270000E+02  3.693564745E-06  0.00000E+00  9.000E+00
#rwgt            1           1   3.0540814585642135E-002          10       41608           0
</event>
<event>
      5   9999  3.19816E-02  2.35795E+01 -1.00000E+00  1.60678E-01
       2    -1     0     0   502     0  0.000000000E+00  0.000000000E+00  9.885639521E+02  9.885639521E+02  0.000000000E+00  0.00000E+00  9.000E+00
      21    -1     0     0   501   502  0.000000000E+00  0.000000000E+00 -1.085855112E+02  1.085855112E+02  0.000000000E+00  0.00000E+00  9.000E+00
      25     1     1     2     0     0 -1.654176133E+02 -8.317516394E+01  5.459471633E+02  5.898850734E+02  1.250000000E+02  0.00000E+00  9.000E+00
      25     1     1     2     0     0  1.768140561E+02  6.253260613E+01  6.137774841E+01  2.335931619E+02  1.250000000E+02  0.00000E+00  9.000E+00
       2     1     1     2   501     0 -1.139644282E+01  2.064255781E+01  2.726535292E+02  2.736712281E+02  3.814697266E-06  0.00000E+00  9.000E+00
#rwgt            1           1   2.6779952421092233E-002          10       41685           0
</event>
<event>
      5   9999  3.19816E-02  1.24897E+02 -1.00000E+00  1.19636E-01
      21    -1     0     0   511   501  0.000000000E+00  0.000000000E+00  2.235518254E+02  2.235518254E+02  0.000000000E+00  0.00000E+00  9.000E+00
      21    -1     0     0   501   502  0.000000000E+00  0.000000000E+00 -4.936990359E+02  4.936990359E+02  0.000000000E+00  0.00000E+00  9.000E+00
      25     1     1     2     0     0  1.474429283E+02  1.256655407E+02 -2.540135534E+02  3.430439192E+02  1.250000000E+02  0.00000E+00  9.000E+00
      25     1     1     2     0     0 -2.143508353E+02 -2.020177087E+01 -1.168535047E+01  2.492306955E+02  1.250000000E+02  0.00000E+00  9.000E+00
      21     1     1     2   511   502  6.690790707E+01 -1.054637698E+02 -4.448306687E+00  1.249762466E+02  6.610474888E-07  0.00000E+00  9.000E+00
#rwgt            1           1   2.7040613667916321E-002          10       41827           0
</event>
<event>
      5   9999  3.19816E-02  1.38876E+02 -1.00000E+00  1.17735E-01
      21    -1     0     0   512   501  0.000000000E+00  0.000000000E+00  1.365515147E+02  1.365515147E+02  0.000000000E+00  0.00000E+00  9.000E+00
      21    -1     0     0   501   502  0.000000000E+00  0.000000000E+00 -1.347161021E+03  1.347161021E+03  0.000000000E+00  0.00000E+00  9.000E+00
      25     1     1     2     0     0 -2.875027407E+02 -1.213261823E+01 -4.540007056E+02  5.518574698E+02  1.250000000E+02  0.00000E+00  9.000E+00
      25     1     1     2     0     0  1.862435605E+02  1.071752181E+02 -7.529552114E+02  7.929311077E+02  1.250000000E+02  0.00000E+00  9.000E+00
      21     1     1     2   512   502  1.012591802E+02 -9.504259990E+01 -3.653589055E+00  1.389239579E+02  1.232389994E-06  0.00000E+00  9.000E+00
#rwgt            1           1   3.0550451971419933E-002          10       41889           0
</event>
<event>
      5   9999  3.19816E-02  4.41031E+01 -1.00000E+00  1.42258E-01
      21    -1     0     0   511   501  0.000000000E+00  0.000000000E+00  7.637933561E+02  7.637933561E+02  0.000000000E+00  0.00000E+00  9.000E+00
      21    -1     0     0   501   502  0.000000000E+00  0.000000000E+00 -7.378375509E+02  7.378375509E+02  0.000000000E+00  0.00000E+00  9.000E+00
      25     1     1     2     0     0 -4.867627220E+02 -3.586743331E+02  3.324787911E+02  7.012505767E+02  1.250000000E+02  0.00000E+00  9.000E+00
      25     1     1     2     0     0  5.113874781E+02  3.220860034E+02 -3.726194025E+02  7.209207761E+02  1.250000000E+02  0.00000E+00  9.000E+00
      21     1     1     2   511   502 -2.462475603E+01  3.658832966E+01  6.609641658E+01  7.945955425E+01  0.000000000E+00  0.00000E+00  9.000E+00
#rwgt            1           1   3.3609634605741102E-002          10       41937           0
</event>
<event>
      5   9999  3.19816E-02  3.67607E+02 -1.00000E+00  1.02801E-01
      21    -1     0     0   502   501  0.000000000E+00  0.000000000E+00  3.948361804E+02  3.948361804E+02  0.000000000E+00  0.00000E+00  9.000E+00
      21    -1     0     0   501   512  0.000000000E+00  0.000000000E+00 -1.206203845E+03  1.206203845E+03  0.000000000E+00  0.00000E+00  9.000E+00
      25     1     1     2     0     0 -1.791129925E+02  1.991916146E+01 -9.269562036E+01  2.381086204E+02  1.250000000E+02  0.00000E+00  9.000E+00
      25     1     1     2     0     0  4.314429180E+02 -2.872471007E+02  2.457545726E+01  5.337441723E+02  1.250000000E+02  0.00000E+00  9.000E+00
      21     1     1     2   502   512 -2.523299255E+02  2.673279392E+02 -7.432475014E+02  8.291872326E+02  0.000000000E+00  0.00000E+00  9.000E+00
#rwgt            2          11   2.3265673250950749E-003          10       42111           0
</event>
<event>
      5   9999  3.19816E-02  5.27992E+01 -1.00000E+00  1.37739E-01
       2    -1     0     0   502     0  0.000000000E+00  0.000000000E+00  3.689711666E+02  3.689711666E+02  0.000000000E+00  0.00000E+00  9.000E+00
      21    -1     0     0   501   502  0.000000000E+00  0.000000000E+00 -2.594709894E+02  2.594709894E+02  0.000000000E+00  0.00000E+00  9.000E+00
      25     1     1     2     0     0  6.747684622E+01 -2.109679564E+02  6.138910305E+01  2.616375840E+02  1.250000000E+02  0.00000E+00  9.000E+00
      25     1     1     2     0     0 -1.067692430E+02  1.756994659E+02 -5.868729596E+01  2.476674631E+02  1.250000000E+02  0.00000E+00  9.000E+00
       2     1     1     2   501     0  3.929239681E+01  3.526849050E+01  1.067983701E+02  1.191371089E+02  1.907348633E-06  0.00000E+00  9.000E+00
#rwgt            1           1   3.4362673588094542E-002          10       42131           0
</event>
<event>
      5   9999  3.19816E-02  1.58566E+02 -1.00000E+00  1.15446E-01
       2    -1     0     0   502     0  0.000000000E+00  0.000000000E+00  8.357346814E+02  8.357346814E+02  0.000000000E+00  0.00000E+00  9.000E+00
      21    -1     0     0   501   502  0.000000000E+00  0.000000000E+00 -2.297783551E+02  2.297783551E+02  0.000000000E+00  0.00000E+00  9.000E+00
      25     1     1     2     0     0  1.782292746E+02 -1.271352203E+02  3.129760917E+02  4.018806695E+02  1.250000000E+02  0.00000E+00  9.000E+00
      25     1     1     2     0     0 -1.041880569E+02 -1.308223019E+01 -1.320594575E+02  2.099785614E+02  1.250000000E+02  0.00000E+00  9.000E+00
       2     1     1     2   501     0 -7.404121776E+01  1.402174505E+02  4.250396922E+02  4.536538055E+02  5.394796609E-06  0.00000E+00  9.000E+00
#rwgt            2          18   6.2177980827364369E-004          10       42235           0
</event>
<event>
      5   9999  3.19816E-02  1.61776E+02 -1.00000E+00  1.15107E-01
      21    -1     0     0   502   511  0.000000000E+00  0.000000000E+00  1.362515872E+03  1.362515872E+03  0.000000000E+00  0.00000E+00  9.000E+00
      21    -1     0     0   501   502  0.000000000E+00  0.000000000E+00 -2.945001347E+02  2.945001347E+02  0.000000000E+00  0.00000E+00  9.000E+00
      25     1     1     2     0     0 -2.996664628E+02 -1.553677197E+02  1.683109332E+02  3.973571284E+02  1.250000000E+02  0.00000E+00  9.000E+00
      25     1     1     2     0     0  1.420110356E+02  1.916484476E+02 -6.862848500E+01  2.779048950E+02  1.250000000E+02  0.00000E+00  9.000E+00
      21     1     1     2   501   511  1.576554272E+02 -3.628072783E+01  9.683332894E+02  9.817539836E+02  1.078959322E-05  0.00000E+00  9.000E+00
#rwgt            1           1   2.6086730175041335E-002          10       42254           0
</event>
<event>
      5   9999  3.19816E-02  8.70320E+00 -1.00000E+00  2.02999E-01
      21    -1     0     0   512   501  0.000000000E+00  0.000000000E+00  4.354639913E+01  4.354639913E+01  0.000000000E+00  0.00000E+00  9.000E+00
      21    -1     0     0   501   502  0.000000000E+00  0.000000000E+00 -9.652520541E+02  9.652520541E+02  0.000000000E+00  0.00000E+00  9.000E+00
      25     1     1     2     0     0  8.449865516E+01 -1.053444449E+02 -3.928386882E+02  4.338026162E+02  1.250000000E+02  0.00000E+00  9.000E+00
      25     1     1     2     0     0 -8.773156879E+01  9.726397638E+01 -5.346971648E+02  5.645202984E+02  1.250000000E+02  0.00000E+00  9.000E+00
      21     1     1     2   512   502  3.232913629E+00  8.080468528E+00  5.830198035E+00  1.047553871E+01  3.264680848E-07  0.00000E+00  9.000E+00
#rwgt            1           1   3.5474757327961508E-002          10       42300           0
</event>
<event>
      5   9999  3.19816E-02  3.66177E+02 -1.00000E+00  1.02853E-01
      21    -1     0     0   502   501  0.000000000E+00  0.000000000E+00  2.356361151E+02  2.356361151E+02  0.000000000E+00  0.00000E+00  9.000E+00
       2    -1     0     0   501     0  0.000000000E+00  0.000000000E+00 -2.459929181E+03  2.459929181E+03  0.000000000E+00  0.00000E+00  9.000E+00
      25     1     1     2     0     0  6.844189475E+02 -7.759470062E+01 -7.879669811E+02  1.054024286E+03  1.250000000E+02  0.00000E+00  9.000E+00
      25     1     1     2     0     0 -3.244328122E+02  1.054545925E+01 -3.429412434E+02  4.884685791E+02  1.250000000E+02  0.00000E+00  9.000E+00
       2     1     1     2   502     0 -3.599861352E+02  6.704924138E+01 -1.093384842E+03  1.153072430E+03  2.157918644E-05  0.00000E+00  9.000E+00
#rwgt            1           1   3.0212786647464764E-002          10       42479           0
</event>
<event>
      5   9999  3.19816E-02  2.84962E+02 -1.00000E+00  1.06323E-01
      21    -1     0     0   502   501  0.000000000E+00  0.000000000E+00  1.268725683E+03  1.268725683E+03  0.000000000E+00  0.00000E+00  9.000E+00
      21    -1     0     0   511   502  0.000000000E+00  0.000000000E+00 -1.266717170E+03  1.266717170E+03  0.000000000E+00  0.00000E+00  9.000E+00
      25     1     1     2     0     0 -3.544665262E+02  4.461234009E+02  9.770638292E+02  1.137959285E+03  1.250000000E+02  0.00000E+00  9.000E+00
      25     1     1     2     0     0  7.251565802E+01 -4.874393596E+02 -1.583615051E+02  5.325025974E+02  1.250000000E+02  0.00000E+00  9.000E+00
      21     1     1     2   511   501  2.819508682E+02  4.131595868E+01 -8.166938108E+02  8.649809715E+02  1.078959322E-05  0.00000E+00  9.000E+00
#rwgt            1           1   3.4269276151430335E-002          10       42543           0
</event>
<event>
      5   9999  3.19816E-02  6.22329E+01 -1.00000E+00  1.33861E-01
      21    -1     0     0   502   501  0.000000000E+00  0.000000000E+00  2.936946216E+02  2.936946216E+02  0.000000000E+00  0.00000E+00  9.000E+00
      21    -1     0     0   512   502  0.000000000E+00  0.000000000E+00 -5.414257567E+02  5.414257567E+02  0.000000000E+00  0.00000E+00  9.000E+00
      25     1     1     2     0     0 -2.676961259E+02 -1.519458962E+02 -1.869858969E+02  3.812315528E+02  1.250000000E+02  0.00000E+00  9.000E+00
      25     1     1     2     0     0  3.016795659E+02  9.981085952E+01  3.117370814E+01  3.428841907E+02  1.250000000E+02  0.00000E+00  9.000E+00
      21     1     1     2   512   501 -3.398344006E+01  5.213503670E+01 -9.191894633E+01  1.110046348E+02  1.348699152E-06  0.00000E+00  9.000E+00
#rwgt            1           1   2.7714262588119355E-002          10       42593           0
</event>
<event>
      5   9999  3.19816E-02  1.84344E+01 -1.00000E+00  1.69344E-01
      21    -1     0     0   511   501  0.000000000E+00  0.000000000E+00  2.378000751E+02  2.378000751E+02  0.000000000E+00  0.00000E+00  9.000E+00
      21    -1     0     0   501   502  0.000000000E+00  0.000000000E+00 -1.483010914E+03  1.483010914E+03  0.000000000E+00  0.00000E+00  9.000E+00
      25     1     1     2     0     0  8.071531554E+01  8.417740011E+01 -1.469449349E+02  2.254298355E+02  1.250000000E+02  0.00000E+00  9.000E+00
      25     1     1     2     0     0 -8.597039183E+01 -6.650786208E+01 -1.291092454E+03  1.301675431E+03  1.250000000E+02  0.00000E+00  9.000E+00
      21     1     1     2   511   502  5.255076292E+00 -1.766953803E+01  1.928265501E+02  1.937057222E+02  2.697398305E-06  0.00000E+00  9.000E+00
#rwgt            1           1   3.2375826458783986E-002          10       42677           0
</event>
<event>
      5   9999  3.19816E-02  1.17856E+02 -1.00000E+00  1.20702E-01
      21    -1     0     0   512   501  0.000000000E+00  0.000000000E+00  1.361404085E+02  1.361404085E+02  0.000000000E+00  0.00000E+00  9.000E+00
      21    -1     0     0   501   502  0.000000000E+00  0.000000000E+00 -9.450336924E+02  9.450336924E+02  0.000000000E+00  0.00000E+00  9.000E+00
      25     1     1     2     0     0 -1.927258055E+02  7.811870671E+01 -1.112757356E+02  2.669326840E+02  1.250000000E+02  0.00000E+00  9.000E+00
      25     1     1     2     0     0  2.278822603E+02  3.437107877E+01 -6.199155788E+02  6.730765338E+02  1.250000000E+02  0.00000E+00  9.000E+00
      21     1     1     2   512   502 -3.515645474E+01 -1.124897855E+02 -7.770196959E+01  1.411648831E+02  1.651812370E-06  0.00000E+00  9.000E+00
#rwgt            1           1   2.7862581168504593E-002          10       42812           0
</event>
<event>
      5   9999  3.19816E-02  5.53807E+01 -1.00000E+00  1.36589E-01
      21    -1     0     0   502   501  0.000000000E+00  0.000000000E+00  5.258665044E+02  5.258665044E+02  0.000000000E+00  0.00000E+00  9.000E+00
      21    -1     0     0   501   511  0.000000000E+00  0.000000000E+00 -1.632891477E+03  1.632891477E+03  0.000000000E+00  0.00000E+00  9.000E+00
      25     1     1     2     0     0 -1.091709660E+02 -2.055044654E+02 -4.720519325E+02  5.409329090E+02  1.250000000E+02  0.00000E+00  9.000E+00
      25     1     1     2     0     0  7.235280961E+01  2.468741393E+02  4.490421661E+02  5.323961276E+02  1.250000000E+02  0.00000E+00  9.000E+00
      21     1     1     2   502   511  3.681815639E+01 -4.136967383E+01 -1.084015206E+03  1.085428945E+03  1.525878906E-05  0.00000E+00  9.000E+00
#rwgt            1           1   2.5867452453979919E-002          10       42859           0
</event>
<event>
      5   9999  3.19816E-02  3.85242E+01 -1.00000E+00  1.45860E-01
      21    -1     0     0   512   501  0.000000000E+00  0.000000000E+00  1.704813689E+02  1.704813689E+02  0.000000000E+00  0.00000E+00  9.000E+00
      21    -1     0     0   501   502  0.000000000E+00  0.000000000E+00 -2.430782804E+03  2.430782804E+03  0.000000000E+00  0.00000E+00  9.000E+00
      25     1     1     2     0     0  4.772543093E+02 -2.313947915E+02 -1.643930666E+03  1.731891526E+03  1.250000000E+02  0.00000E+00  9.000E+00
      25     1     1     2     0     0 -4.935600888E+02  2.662980719E+02 -5.777349772E+02  8.148122043E+02  1.250000000E+02  0.00000E+00  9.000E+00
      21     1     1     2   512   502  1.630577954E+01 -3.490328042E+01 -3.863579251E+01  5.456044257E+01  4.768371582E-07  0.00000E+00  9.000E+00
#rwgt            1           1   2.8176515841471583E-002          10       42992           0
</event>
<event>
      5   9999  3.19816E-02  1.82505E+02 -1.00000E+00  1.13115E-01
      21    -1     0     0   502   501  0.000000000E+00  0.000000000E+00  2.370570919E+02  2.370570919E+02  0.000000000E+00  0.00000E+00  9.000E+00
       2    -1     0     0   501     0  0.000000000E+00  0.000000000E+00 -5.375219732E+02  5.375219732E+02  0.000000000E+00  0.00000E+00  9.000E+00
      25     1     1     2     0     0  4.852086024E+01 -3.385490707E+01 -3.512340063E+02  3.774794773E+02  1.250000000E+02  0.00000E+00  9.000E+00
      25     1     1     2     0     0  8.024826676E+01 -9.547704020E+01  1.065788774E+02  2.062515615E+02  1.250000000E+02  0.00000E+00  9.000E+00
       2     1     1     2   502     0 -1.287691270E+02  1.293319473E+02 -5.580975239E+01  1.908480262E+02  2.861022949E-06  0.00000E+00  9.000E+00
#rwgt            1           1   2.8824083756234627E-002          10       43111           0
</event>
<event>
      5   9999  3.19816E-02  8.88352E+01 -1.00000E+00  1.26185E-01
      21    -1     0     0   502   501  0.000000000E+00  0.000000000E+00  1.362934417E+02  1.362934417E+02  0.000000000E+00  0.00000E+00  9.000E+00
      21    -1     0     0   501   511  0.000000000E+00  0.000000000E+00 -1.555156296E+03  1.555156296E+03  0.000000000E+00  0.00000E+00  9.000E+00
      25     1     1     2     0     0  1.364542453E+02 -2.778941948E+02 -9.780436307E+02  1.033459863E+03  1.250000000E+02  0.00000E+00  9.000E+00
      25     1     1     2     0     0 -9.445449472E+01  1.996144451E+02 -5.184326462E+01  2.589986532E+02  1.250000000E+02  0.00000E+00  9.000E+00
      21     1     1     2   502   511 -4.199975057E+01  7.827974968E+01 -3.889759589E+02  3.989912215E+02  0.000000000E+00  0.00000E+00  9.000E+00
#rwgt            1           1   2.7531805392128329E-002          10       43165           0
</event>
<event>
      5   9999  3.19816E-02  8.32403E+01 -1.00000E+00  1.27520E-01
      21    -1     0     0   502   512  0.000000000E+00  0.000000000E+00  2.912380360E+02  2.912380360E+02  0.000000000E+00  0.00000E+00  9.000E+00
      21    -1     0     0   501   502  0.000000000E+00  0.000000000E+00 -1.318687865E+03  1.318687865E+03  0.000000000E+00  0.00000E+00  9.000E+00
      25     1     1     2     0     0  9.399750868E+01 -1.813718628E+01 -1.207855561E+03  1.218074114E+03  1.250000000E+02  0.00000E+00  9.000E+00
      25     1     1     2     0     0 -1.334118202E+02 -5.518038351E+01 -2.404170007E+00  1.909826393E+02  1.250000000E+02  0.00000E+00  9.000E+00
      21     1     1     2   501   512  3.941431153E+01  7.331756979E+01  1.828099026E+02  2.008691477E+02  3.814697266E-06  0.00000E+00  9.000E+00
#rwgt            1           1   1.3286989523743761E-002          10       43225           0
</event>
<event>
      5   9999  3.19816E-02  8.61891E+00 -1.00000E+00  2.03527E-01
      21    -1     0     0   511   501  0.000000000E+00  0.000000000E+00  7.770917279E+01  7.770917279E+01  0.000000000E+00  0.00000E+00  9.000E+00
      21    -1     0     0   501   502  0.000000000E+00  0.000000000E+00 -5.653825245E+02  5.653825245E+02  0.000000000E+00  0.00000E+00  9.000E+00
      25     1     1     2     0     0  1.467125644E+00 -3.435446488E+01 -4.857365452E+02  5.027398662E+02  1.250000000E+02  0.00000E+00  9.000E+00
      25     1     1     2     0     0  6.928712150E+00  3.630269168E+01  3.067962446E+00  1.303852172E+02  1.250000000E+02  0.00000E+00  9.000E+00
      21     1     1     2   511   502 -8.395837795E+00 -1.948226809E+00 -5.004768948E+00  9.966613878E+00  1.788139343E-07  0.00000E+00  9.000E+00
#rwgt            1           1   2.5970262474035329E-002          10       43285           0
</event>
<event>
      5   9999  3.19816E-02  2.76053E+01 -1.00000E+00  1.55592E-01
      21    -1     0     0   512   501  0.000000000E+00  0.000000000E+00  1.063024394E+02  1.063024394E+02  0.000000000E+00  0.00000E+00  9.000E+00
      21    -1     0     0   501   502  0.000000000E+00  0.000000000E+00 -2.043961065E+03  2.043961065E+03  0.000000000E+00  0.00000E+00  9.000E+00
      25     1     1     2     0     0 -6.603009258E+01  3.046867625E+02 -4.939664986E+02  5.973457107E+02  1.250000000E+02  0.00000E+00  9.000E+00
      25     1     1     2     0     0  5.155968191E+01 -3.281954916E+02 -1.471516534E+03  1.513722759E+03  1.250000000E+02  0.00000E+00  9.000E+00
      21     1     1     2   512   502  1.447041067E+01  2.350872919E+01  2.782440687E+01  3.919503477E+01  2.431401974E-06  0.00000E+00  9.000E+00
#rwgt            1           1   2.5763053528777391E-002          10       43543           0
</event>
<event>
      5   9999  3.19816E-02  1.63054E+02 -1.00000E+00  1.14975E-01
      21    -1     0     0   502   501  0.000000000E+00  0.000000000E+00  2.381028962E+03  2.381028962E+03  0.000000000E+00  0.00000E+00  9.000E+00
      21    -1     0     0   501   511  0.000000000E+00  0.000000000E+00 -3.463959532E+02  3.463959532E+02  0.000000000E+00  0.00000E+00  9.000E+00
      25     1     1     2     0     0 -1.759319758E+02  4.511593472E+02  1.717555010E+03  1.788887092E+03  1.250000000E+02  0.00000E+00  9.000E+00
      25     1     1     2     0     0  1.034831601E+02 -5.972338213E+02  4.179576830E+02  7.468002588E+02  1.250000000E+02  0.00000E+00  9.000E+00
      21     1     1     2   502   511  7.244881564E+01  1.460744740E+02 -1.008796841E+02  1.917375642E+02  1.348699152E-06  0.00000E+00  9.000E+00
#rwgt            1           1   3.2263798802338303E-002          10       43681           0
</event>
<event>
      5   9999  3.19816E-02  3.72920E+01 -1.00000E+00  1.46754E-01
      21    -1     0     0   512   501  0.000000000E+00  0.000000000E+00  3.541846041E+02  3.541846041E+02  0.000000000E+00  0.00000E+00  9.000E+00
      21    -1     0     0   501   502  0.000000000E+00  0.000000000E+00 -2.278843749E+02  2.278843749E+02  0.000000000E+00  0.00000E+00  9.000E+00
      25     1     1     2     0     0 -1.125189042E+02  1.826407160E+02 -2.534511481E+01  2.495706509E+02  1.250000000E+02  0.00000E+00  9.000E+00
      25     1     1     2     0     0  1.475793881E+02 -1.699340983E+02  1.221991584E+02  2.849822939E+02  1.250000000E+02  0.00000E+00  9.000E+00
      21     1     1     2   512   502 -3.506048384E+01 -1.270661764E+01  2.944618559E+01  4.751603419E+01  6.743495762E-07  0.00000E+00  9.000E+00
#rwgt            1           1   2.7157022815408365E-002          10       43768           0
</event>
<event>
      5   9999  3.19816E-02  1.64120E+01 -1.00000E+00  1.73780E-01
      21    -1     0     0   502   501  0.000000000E+00  0.000000000E+00  1.986272145E+03  1.986272145E+03  0.000000000E+00  0.00000E+00  9.000E+00
      21    -1     0     0   511   502  0.000000000E+00  0.000000000E+00 -6.125772060E+01  6.125772060E+01  0.000000000E+00  0.00000E+00  9.000E+00
      25     1     1     2     0     0  1.672526455E+02  1.109284493E+02  1.670623731E+03  1.687272123E+03  1.250000000E+02  0.00000E+00  9.000E+00
      25     1     1     2     0     0 -1.645980666E+02 -9.473259891E+01  2.575484640E+02  3.435447571E+02  1.250000000E+02  0.00000E+00  9.000E+00
      21     1     1     2   511   501 -2.654578909E+00 -1.619585036E+01 -3.157770416E+00  1.671298513E+01  6.835070217E-07  0.00000E+00  9.000E+00
#rwgt            1           1   2.7986092272718168E-002          10       43850           0
</event>
<event>
      5   9999  3.19816E-02  7.11943E+01 -1.00000E+00  1.30850E-01
      21    -1     0     0   512   501  0.000000000E+00  0.000000000E+00  1.129212280E+02  1.129212280E+02  0.000000000E+00  0.00000E+00  9.000E+00
      21    -1     0     0   501   502  0.000000000E+00  0.000000000E+00 -9.054755253E+02  9.054755253E+02  0.000000000E+00  0.00000E+00  9.000E+00
      25     1     1     2     0     0 -2.343974485E+01  1.789054923E+02 -1.020216925E+02  2.420537596E+02  1.250000000E+02  0.00000E+00  9.000E+00
      25     1     1     2     0     0  8.535416383E+01 -2.140514488E+02 -6.318601396E+02  6.840874155E+02  1.250000000E+02  0.00000E+00  9.000E+00
      21     1     1     2   512   502 -6.191441898E+01  3.514595651E+01 -5.867246516E+01  9.225557817E+01  1.507891493E-06  0.00000E+00  9.000E+00
#rwgt            1           1   3.0090792571640875E-002          10       44056           0
</event>
<event>
      5   9999  3.19816E-02  1.99072E+01 -1.00000E+00  1.66536E-01
      21    -1     0     0   511   501  0.000000000E+00  0.000000000E+00  1.247827099E+02  1.247827099E+02  0.000000000E+00  0.00000E+00  9.000E+00
      21    -1     0     0   501   502  0.000000000E+00  0.000000000E+00 -5.624503794E+02  5.624503794E+02  0.000000000E+00  0.00000E+00  9.000E+00
      25     1     1     2     0     0 -1.442350405E+02  9.783814690E+01 -8.027349515E+01  2.290084800E+02  1.250000000E+02  0.00000E+00  9.000E+00
      25     1     1     2     0     0  1.275516319E+02 -8.697723659E+01 -3.795803632E+02  4.284165153E+02  1.250000000E+02  0.00000E+00  9.000E+00
      21     1     1     2   511   502  1.668340858E+01 -1.086091031E+01  2.218618886E+01  2.980809404E+01  4.129530925E-07  0.00000E+00  9.000E+00
#rwgt            1           1   2.6815640650726637E-002          10       44129           0
</event>
<event>
      5   9999  3.19816E-02  1.53408E+02 -1.00000E+00  1.16008E-01
      21    -1     0     0   502   501  0.000000000E+00  0.000000000E+00  8.974173051E+01  8.974173051E+01  0.000000000E+00  0.00000E+00  9.000E+00
      21    -1     0     0   501   512  0.000000000E+00  0.000000000E+00 -1.250870425E+03  1.250870425E+03  0.000000000E+00  0.00000E+00  9.000E+00
      25     1     1     2     0     0 -3.563648048E+01 -2.227040276E+02 -3.904123390E+02  4.678822898E+02  1.250000000E+02  0.00000E+00  9.000E+00
      25     1     1     2     0     0 -1.145116388E+02  1.912451053E+02 -4.608532224E+02  5.269708705E+02  1.250000000E+02  0.00000E+00  9.000E+00
      21     1     1     2   502   512  1.501481193E+02  3.145892238E+01 -3.098631329E+02  3.457589951E+02  0.000000000E+00  0.00000E+00  9.000E+00
#rwgt            2          11   2.9733040640912544E-003          10       44322           0
</event>
<event>
      5   9999  3.19816E-02  1.22144E+02 -1.00000E+00  1.20043E-01
      21    -1     0     0   502   501  0.000000000E+00  0.000000000E+00  3.480833760E+02  3.480833760E+02  0.000000000E+00  0.00000E+00  9.000E+00
      21    -1     0     0   501   511  0.000000000E+00  0.000000000E+00 -3.382199369E+02  3.382199369E+02  0.000000000E+00  0.00000E+00  9.000E+00
      25     1     1     2     0     0 -2.564085593E+02 -3.514003758E+01 -1.429313736E+02  3.209899517E+02  1.250000000E+02  0.00000E+00  9.000E+00
      25     1     1     2     0     0  1.369652745E+02  9.595715283E+00  1.569106619E+02  2.430998149E+02  1.250000000E+02  0.00000E+00  9.000E+00
      21     1     1     2   502   511  1.194432848E+02  2.554432230E+01 -4.115849148E+00  1.222135463E+02  1.505533569E-06  0.00000E+00  9.000E+00
#rwgt            1           1   2.4334969229970260E-002          10       44342           0
</event>
<event>
      5   9999  3.19816E-02  2.86786E+01 -1.00000E+00  1.54411E-01
      21    -1     0     0   502   501  0.000000000E+00  0.000000000E+00  4.375664208E+02  4.375664208E+02  0.000000000E+00  0.00000E+00  9.000E+00
      21    -1     0     0   501   512  0.000000000E+00  0.000000000E+00 -3.223397878E+02  3.223397878E+02  0.000000000E+00  0.00000E+00  9.000E+00
      25     1     1     2     0     0 -2.420168524E+02 -8.299944913E+01  2.759967203E+02  3.965605313E+02  1.250000000E+02  0.00000E+00  9.000E+00
      25     1     1     2     0     0  2.621977764E+02  6.262324522E+01 -1.477485445E+02  3.318493290E+02  1.250000000E+02  0.00000E+00  9.000E+00
      21     1     1     2   502   512 -2.018092394E+01  2.037620391E+01 -1.302154275E+01  3.149634824E+01  5.331201500E-07  0.00000E+00  9.000E+00
#rwgt            1           1   2.5803247012264306E-002          10       44407           0
</event>
<event>
      5   9999  3.19816E-02  1.20418E+02 -1.00000E+00  1.20304E-01
      21    -1     0     0   502   501  0.000000000E+00  0.000000000E+00  6.134613391E+02  6.134613391E+02  0.000000000E+00  0.00000E+00  9.000E+00
      21    -1     0     0   501   511  0.000000000E+00  0.000000000E+00 -2.822241450E+02  2.822241450E+02  0.000000000E+00  0.00000E+00  9.000E+00
      25     1     1     2     0     0  2.496009817E+01  2.861974933E+02  1.375589012E+02  3.421687639E+02  1.250000000E+02  0.00000E+00  9.000E+00
      25     1     1     2     0     0 -1.418994806E+02 -3.149312087E+02  2.227967378E+02  4.296283454E+02  1.250000000E+02  0.00000E+00  9.000E+00
      21     1     1     2   502   511  1.169393824E+02  2.873371542E+01 -2.911844495E+01  1.238883748E+02  8.259061849E-07  0.00000E+00  9.000E+00
#rwgt            1           1   3.0143864031902071E-002          10       44607           0
</event>
<event>
      5   9999  3.19816E-02  3.78372E+01 -1.00000E+00  1.46353E-01
      21    -1     0     0   512   501  0.000000000E+00  0.000000000E+00  9.898350820E+01  9.898350820E+01  0.000000000E+00  0.00000E+00  9.000E+00
      21    -1     0     0   501   502  0.000000000E+00  0.000000000E+00 -5.930512868E+02  5.930512868E+02  0.000000000E+00  0.00000E+00  9.000E+00
      25     1     1     2     0     0 -6.440315200E+01 -1.042670252E+02 -1.612354452E+02  2.379942170E+02  1.250000000E+02  0.00000E+00  9.000E+00
      25     1     1     2     0     0  4.256165884E+01  7.337034693E+01 -3.708294320E+02  4.004174949E+02  1.250000000E+02  0.00000E+00  9.000E+00
      21     1     1     2   512   502  2.184149316E+01  3.089667824E+01  3.799709854E+01  5.362308316E+01  1.430511475E-06  0.00000E+00  9.000E+00
#rwgt            1           1   2.9828642319969262E-002          10       44666           0
</event>
<event>
      5   9999  3.19816E-02  2.68677E+02 -1.00000E+00  1.07172E-01
       1    -1     0     0   502     0  0.000000000E+00  0.000000000E+00  5.676888745E+02  5.676888745E+02  0.000000000E+00  0.00000E+00  9.000E+00
      21    -1     0     0   501   502  0.000000000E+00  0.000000000E+00 -3.582106276E+02  3.582106276E+02  0.000000000E+00  0.00000E+00  9.000E+00
      25     1     1     2     0     0  7.681849120E+01 -1.491624390E+02  2.093299521E+02  2.959637523E+02  1.250000000E+02  0.00000E+00  9.000E+00
      25     1     1     2     0     0 -3.092704400E+02  1.442861865E+01  9.142297977E+01  3.461784963E+02  1.250000000E+02  0.00000E+00  9.000E+00
       1     1     1     2   501     0  2.324519488E+02  1.347338203E+02 -9.127468499E+01  2.837572535E+02  5.394796609E-06  0.00000E+00  9.000E+00
#rwgt            1           1   3.2761676920314509E-002          10       44746           0
</event>
<event>
      5   9999  3.19816E-02  3.43564E+01 -1.00000E+00  1.49059E-01
      21    -1     0     0   511   501  0.000000000E+00  0.000000000E+00  1.191179380E+03  1.191179380E+03  0.000000000E+00  0.00000E+00  9.000E+00
      21    -1     0     0   501   502  0.000000000E+00  0.000000000E+00 -1.329150014E+02  1.329150014E+02  0.000000000E+00  0.00000E+00  9.000E+00
      25     1     1     2     0     0  2.496947400E+02 -1.914299083E+02  1.907904073E+02  3.886114415E+02  1.250000000E+02  0.00000E+00  9.000E+00
      25     1     1     2     0     0 -2.374937808E+02  1.593130028E+02  8.154665786E+02  8.731521457E+02  1.250000000E+02  0.00000E+00  9.000E+00
      21     1     1     2   511   502 -1.220095921E+01  3.211690547E+01  5.200739291E+01  6.233079447E+01  9.536743164E-07  0.00000E+00  9.000E+00
#rwgt            1           1   3.4158038045332483E-002          10       44783           0
</event>
<event>
      5   9999  3.19816E-02  5.29456E+01 -1.00000E+00  1.37672E-01
      21    -1     0     0   502   501  0.000000000E+00  0.000000000E+00  2.246998832E+02  2.246998832E+02  0.000000000E+00  0.00000E+00  9.000E+00
      21    -1     0     0   512   502  0.000000000E+00  0.000000000E+00 -2.544891768E+02  2.544891768E+02  0.000000000E+00  0.00000E+00  9.000E+00
      25     1     1     2     0     0 -1.236637113E+02  8.476533876E+01  8.356589227E+01  2.123349583E+02  1.250000000E+02  0.00000E+00  9.000E+00
      25     1     1     2     0     0  7.477099115E+01 -6.444931369E+01 -2.134995979E+01  1.607023209E+02  1.250000000E+02  0.00000E+00  9.000E+00
      21     1     1     2   512   501  4.889272019E+01 -2.031602506E+01 -9.200522601E+01  1.061517808E+02  2.336015456E-06  0.00000E+00  9.000E+00
#rwgt            1           1   3.0588372282032018E-002          10       44890           0
</event>
<event>
      5   9999  3.19816E-02  2.26976E+02 -1.00000E+00  1.09684E-01
      21    -1     0     0   502   501  0.000000000E+00  0.000000000E+00  8.930659135E+02  8.930659135E+02  0.000000000E+00  0.00000E+00  9.000E+00
       2    -1     0     0   501     0  0.000000000E+00  0.000000000E+00 -4.738865007E+02  4.738865007E+02  0.000000000E+00  0.00000E+00  9.000E+00
      25     1     1     2     0     0 -1.095123005E+02  2.165097579E+02  5.341336325E+02  5.998276057E+02  1.250000000E+02  0.00000E+00  9.000E+00
      25     1     1     2     0     0  2.632337665E+02 -3.835068341E+02  5.328369381E+01  4.845963884E+02  1.250000000E+02  0.00000E+00  9.000E+00
       2     1     1     2   502     0 -1.537214660E+02  1.669970762E+02 -1.682379135E+02  2.825284200E+02  3.814697266E-06  0.00000E+00  9.000E+00
#rwgt            1           1   3.1081719940507097E-002          10       44971           0
</event>
<event>
      5   9999  3.19816E-02  1.44680E+01 -1.00000E+00  1.78874E-01
      21    -1     0     0   511   501  0.000000000E+00  0.000000000E+00  2.589360148E+02  2.589360148E+02  0.000000000E+00  0.00000E+00  9.000E+00
      21    -1     0     0   501   502  0.000000000E+00  0.000000000E+00 -1.180401397E+03  1.180401397E+03  0.000000000E+00  0.00000E+00  9.000E+00
      25     1     1     2     0     0  3.524592309E+01 -4.949742247E+02 -4.292933201E+02  6.679517294E+02  1.250000000E+02  0.00000E+00  9.000E+00
      25     1     1     2     0     0 -2.446606015E+01  5.046240147E+02 -5.226889459E+02  7.376128514E+02  1.250000000E+02  0.00000E+00  9.000E+00
      21     1     1     2   511   502 -1.077986294E+01 -9.649790022E+00  3.051688400E+01  3.377283082E+01  8.259061849E-07  0.00000E+00  9.000E+00
#rwgt            1           1   2.7714885669749081E-002          10       45012           0
</event>
<event>
      5   9999  3.19816E-02  3.71709E+01 -1.00000E+00  1.46844E-01
      21    -1     0     0   512   501  0.000000000E+00  0.000000000E+00  1.773134658E+03  1.773134658E+03  0.000000000E+00  0.00000E+00  9.000E+00
      21    -1     0     0   501   502  0.000000000E+00  0.000000000E+00 -9.873449879E+01  9.873449879E+01  0.000000000E+00  0.00000E+00  9.000E+00
      25     1     1     2     0     0 -1.419045417E+02 -8.314246620E+01  5.186188958E+01  2.129887890E+02  1.250000000E+02  0.00000E+00  9.000E+00
      25     1     1     2     0     0  1.178604654E+02  1.114895885E+02  5.698661821E+02  6.055522134E+02  1.250000000E+02  0.00000E+00  9.000E+00
      21     1     1     2   512   502  2.404407630E+01 -2.834712231E+01  1.052672087E+03  1.053328154E+03  1.525878906E-05  0.00000E+00  9.000E+00
#rwgt            1           1   2.8469209496482812E-002          10       45277           0
</event>
<event>
      5   9999  3.19816E-02  5.22111E+01 -1.00000E+00  1.38012E-01
      21    -1     0     0   502   501  0.000000000E+00  0.000000000E+00  2.991742063E+02  2.991742063E+02  0.000000000E+00  0.00000E+00  9.000E+00
      21    -1     0     0   501   511  0.000000000E+00  0.000000000E+00 -2.264882938E+02  2.264882938E+02  0.000000000E+00  0.00000E+00  9.000E+00
      25     1     1     2     0     0  1.173060553E+02  4.535490362E+01 -2.575305548E+01  1.791814660E+02  1.250000000E+02  0.00000E+00  9.000E+00
      25     1     1     2     0     0 -1.575058114E+02 -1.203848960E+01  1.660502412E+02  2.610568683E+02  1.250000000E+02  0.00000E+00  9.000E+00
      21     1     1     2   502   511  4.019975615E+01 -3.331641401E+01 -6.761127320E+01  8.542416579E+01  0.000000000E+00  0.00000E+00  9.000E+00
#rwgt            1           1   3.1795145665842420E-002          10       45432           0
</event>
<event>
      5   9999  3.19816E-02  9.20416E+01 -1.00000E+00  1.25470E-01
      21    -1     0     0   502   501  0.000000000E+00  0.000000000E+00  4.811441523E+02  4.811441523E+02  0.000000000E+00  0.00000E+00  9.000E+00
      21    -1     0     0   501   512  0.000000000E+00  0.000000000E+00 -1.204115912E+03  1.204115912E+03  0.000000000E+00  0.00000E+00  9.000E+00
      25     1     1     2     0     0 -2.451470908E+02  2.926816842E+02  3.279264299E+02  5.185753636E+02  1.250000000E+02  0.00000E+00  9.000E+00
      25     1     1     2     0     0  1.620574998E+02 -3.322768218E+02 -9.644432092E+02  1.040406759E+03  1.250000000E+02  0.00000E+00  9.000E+00
      21     1     1     2   502   512  8.308959096E+01  3.959513758E+01 -8.645498046E+01  1.262779422E+02  0.000000000E+00  0.00000E+00  9.000E+00
#rwgt            1           1   2.6757921342096619E-002          10       45495           0
</event>
<event>
      5   9999  3.19816E-02  8.32590E+01 -1.00000E+00  1.27516E-01
      21    -1     0     0   502   501  0.000000000E+00  0.000000000E+00  3.560482587E+02  3.560482587E+02  0.000000000E+00  0.00000E+00  9.000E+00
      21    -1     0     0   501   511  0.000000000E+00  0.000000000E+00 -1.424849951E+03  1.424849951E+03  0.000000000E+00  0.00000E+00  9.000E+00
      25     1     1     2     0     0  1.852646228E+02 -5.778435221E+02 -4.042313016E+02  7.397662210E+02  1.250000000E+02  0.00000E+00  9.000E+00
      25     1     1     2     0     0 -2.204040781E+02  5.023632480E+02 -2.455064069E+02  6.138771753E+02  1.250000000E+02  0.00000E+00  9.000E+00
      21     1     1     2   502   511  3.513945530E+01  7.548027411E+01 -4.190639841E+02  4.272548137E+02  0.000000000E+00  0.00000E+00  9.000E+00
#rwgt            1           1   2.5509108960531945E-002          10       45604           0
</event>
<event>
      5   9999  3.19816E-02  4.59729E+01 -1.00000E+00  1.41189E-01
      21    -1     0     0   502   501  0.000000000E+00  0.000000000E+00  7.462132304E+02  7.462132304E+02  0.000000000E+00  0.00000E+00  9.000E+00
      21    -1     0     0   501   512  0.000000000E+00  0.000000000E+00 -9.578649930E+02  9.578649930E+02  0.000000000E+00  0.00000E+00  9.000E+00
      25     1     1     2     0     0 -1.426315547E+02 -4.537245079E+02 -7.597263127E+02  9.049965523E+02  1.250000000E+02  0.00000E+00  9.000E+00
      25     1     1     2     0     0  1.129340920E+02  4.186307839E+02  5.859101345E+02  7.395414309E+02  1.250000000E+02  0.00000E+00  9.000E+00
      21     1     1     2   502   512  2.969746268E+01  3.509372402E+01 -3.783558438E+01  5.954024018E+01  1.507891493E-06  0.00000E+00  9.000E+00
#rwgt            1           1   2.9957939785205424E-002          10       45668           0
</event>
<event>
      5   9999  3.19816E-02  4.58446E+01 -1.00000E+00  1.41260E-01
      21    -1     0     0   511   501  0.000000000E+00  0.000000000E+00  8.186503595E+02  8.186503595E+02  0.000000000E+00  0.00000E+00  9.000E+00
      21    -1     0     0   501   502  0.000000000E+00  0.000000000E+00 -2.489694448E+02  2.489694448E+02  0.000000000E+00  0.00000E+00  9.000E+00
      25     1     1     2     0     0  1.299952062E+02  2.040500704E+02  5.987049812E+02  6.577293055E+02  1.250000000E+02  0.00000E+00  9.000E+00
      25     1     1     2     0     0 -8.754690157E+01 -2.213667829E+02 -1.302549530E+02  2.987625568E+02  1.250000000E+02  0.00000E+00  9.000E+00
      21     1     1     2   511   502 -4.244830467E+01  1.731671245E+01  1.012308865E+02  1.111279420E+02  1.907348633E-06  0.00000E+00  9.000E+00
#rwgt            1           1   2.7590201045682050E-002          10       45863           0
</event>
<event>
      5   9999  3.19816E-02  1.48987E+02 -1.00000E+00  1.16510E-01
      21    -1     0     0   502   512  0.000000000E+00  0.000000000E+00  5.456798349E+02  5.456798349E+02  0.000000000E+00  0.00000E+00  9.000E+00
      21    -1     0     0   501   502  0.000000000E+00  0.000000000E+00 -2.143471992E+02  2.143471992E+02  0.000000000E+00  0.00000E+00  9.000E+00
      25     1     1     2     0     0 -2.749321602E+01 -1.682925454E+02  9.028542028E+01  2.299015330E+02  1.250000000E+02  0.00000E+00  9.000E+00
      25     1     1     2     0     0 -5.445097174E+01  2.927205236E+02  1.568799489E+02  3.590077041E+02  1.250000000E+02  0.00000E+00  9.000E+00
      21     1     1     2   501   512  8.194418776E+01 -1.244279782E+02  8.416726656E+01  1.711177969E+02  1.907348633E-06  0.00000E+00  9.000E+00
#rwgt            1           1   2.8145986049605245E-002          10       46022           0
</event>
<event>
      5   9999  3.19816E-02  7.64137E+01 -1.00000E+00  1.29321E-01
      21    -1     0     0   502   501  0.000000000E+00  0.000000000E+00  1.543584938E+02  1.543584938E+02  0.000000000E+00  0.00000E+00  9.000E+00
      21    -1     0     0   501   511  0.000000000E+00  0.000000000E+00 -1.100644251E+03  1.100644251E+03  0.000000000E+00  0.00000E+00  9.000E+00
      25     1     1     2     0     0  1.403463505E+02  5.536360874E+01 -7.890015037E+02  8.129640830E+02  1.250000000E+02  0.00000E+00  9.000E+00
      25     1     1     2     0     0 -2.167313511E+02 -5.745898666E+01  1.128770155E+01  2.569560778E+02  1.250000000E+02  0.00000E+00  9.000E+00
      21     1     1     2   502   511  7.638500059E+01  2.095377919E+00 -1.685719549E+02  1.850825840E+02  1.907348633E-06  0.00000E+00  9.000E+00
#rwgt            1           1   2.7869667952250120E-002          10       46084           0
</event>
<event>
      5   9999  3.19816E-02  2.33037E+01 -1.00000E+00  1.61071E-01
      21    -1     0     0   502   512  0.000000000E+00  0.000000000E+00  6.545345798E+01  6.545345798E+01  0.000000000E+00  0.00000E+00  9.000E+00
      21    -1     0     0   501   502  0.000000000E+00  0.000000000E+00 -1.390895323E+03  1.390895323E+03  0.000000000E+00  0.00000E+00  9.000E+00
      25     1     1     2     0     0 -1.825306727E+02  1.237602883E+02 -3.683734880E+02  4.471667274E+02  1.250000000E+02  0.00000E+00  9.000E+00
      25     1     1     2     0     0  2.031642061E+02 -1.129288965E+02 -9.482059699E+02  9.842500656E+02  1.250000000E+02  0.00000E+00  9.000E+00
      21     1     1     2   501   512 -2.063353349E+01 -1.083139182E+01 -8.862406773E+00  2.493198762E+01  2.920019320E-07  0.00000E+00  9.000E+00
#rwgt            1           1   2.9468801765630746E-002          10       46163           0
</event>
<event>
      5   9999  3.19816E-02  1.11273E+02 -1.00000E+00  1.21777E-01
      21    -1     0     0   502   501  0.000000000E+00  0.000000000E+00  7.463290486E+02  7.463290486E+02  0.000000000E+00  0.00000E+00  9.000E+00
      21    -1     0     0   501   511  0.000000000E+00  0.000000000E+00 -1.172783229E+02  1.172783229E+02  0.000000000E+00  0.00000E+00  9.000E+00
      25     1     1     2     0     0  3.493976387E+01  1.305541937E+02  3.129189705E+02  3.630543578E+02  1.250000000E+02  0.00000E+00  9.000E+00
      25     1     1     2     0     0 -6.551113806E+01 -2.375446637E+02  2.135472805E+02  3.492085587E+02  1.250000000E+02  0.00000E+00  9.000E+00
      21     1     1     2   502   511  3.057137420E+01  1.069904700E+02  1.025844747E+02  1.513444550E+02  2.697398305E-06  0.00000E+00  9.000E+00
#rwgt            1           1   2.9227785477926302E-002          10       46298           0
</event>
<event>
      5   9999  3.19816E-02  9.34951E+01 -1.00000E+00  1.25156E-01
      21    -1     0     0   502   501  0.000000000E+00  0.000000000E+00  2.171493415E+02  2.171493415E+02  0.000000000E+00  0.00000E+00  9.000E+00
       1    -1     0     0   501     0  0.000000000E+00  0.000000000E+00 -9.089492053E+02  9.089492053E+02  0.000000000E+00  0.00000E+00  9.000E+00
      25     1     1     2     0     0  2.736368367E+01 -7.031157449E+01  1.759303527E+02  2.286240969E+02  1.250000000E+02  0.00000E+00  9.000E+00
      25     1     1     2     0     0  3.155023396E+01 -2.286530924E+00 -3.925660995E+02  4.131994530E+02  1.250000000E+02  0.00000E+00  9.000E+00
       1     1     1     2   502     0 -5.891391762E+01  7.259810542E+01 -4.751641169E+02  4.842749969E+02  7.629394531E-06  0.00000E+00  9.000E+00
#rwgt            1           1   2.9357988064695577E-002          10       46358           0
</event>
<event>
      5   9999  3.19816E-02  5.32554E+01 -1.00000E+00  1.37530E-01
      -2    -1     0     0     0   501  0.000000000E+00  0.000000000E+00  8.936092167E+02  8.936092167E+02  0.000000000E+00  0.00000E+00  9.000E+00
      21    -1     0     0   501   502  0.000000000E+00  0.000000000E+00 -6.363887944E+01  6.363887944E+01  0.000000000E+00  0.00000E+00  9.000E+00
      25     1     1     2     0     0  7.930446692E+01  3.919939724E+01  3.806269207E+02  4.102775207E+02  1.250000000E+02  0.00000E+00  9.000E+00
      25     1     1     2     0     0 -1.114870962E+02  3.231920655E+00  1.032152462E+02  1.967694209E+02  1.250000000E+02  0.00000E+00  9.000E+00
      -2     1     1     2     0   502  3.218262932E+01 -4.243131790E+01  3.461281704E+02  3.502011546E+02  3.814697266E-06  0.00000E+00  9.000E+00
#rwgt            1           1   2.6430377043299889E-002          10       46478           0
</event>
<event>
      5   9999  3.19816E-02  1.56905E+02 -1.00000E+00  1.15624E-01
      21    -1     0     0   511   501  0.000000000E+00  0.000000000E+00  4.840685456E+02  4.840685456E+02  0.000000000E+00  0.00000E+00  9.000E+00
      21    -1     0     0   501   502  0.000000000E+00  0.000000000E+00 -1.215404830E+03  1.215404830E+03  0.000000000E+00  0.00000E+00  9.000E+00
      25     1     1     2     0     0  3.328180096E+02 -1.576828319E+02 -8.485704749E+02  9.334498133E+02  1.250000000E+02  0.00000E+00  9.000E+00
      25     1     1     2     0     0 -4.633023864E+02  2.448214772E+02 -4.467199537E+01  5.405619707E+02  1.250000000E+02  0.00000E+00  9.000E+00
      21     1     1     2   511   502  1.304843768E+02 -8.713864530E+01  1.619061862E+02  2.254615914E+02  2.697398305E-06  0.00000E+00  9.000E+00
#rwgt            1           1   2.6389178920512357E-002          10       46593           0
</event>
<event>
      5   9999  3.19816E-02  1.56732E+01 -1.00000E+00  1.75606E-01
      21    -1     0     0   502   501  0.000000000E+00  0.000000000E+00  5.811154206E+02  5.811154206E+02  0.000000000E+00  0.00000E+00  9.000E+00
      21    -1     0     0   512   502  0.000000000E+00  0.000000000E+00 -2.657234519E+02  2.657234519E+02  0.000000000E+00  0.00000E+00  9.000E+00
      25     1     1     2     0     0 -2.949230662E+01  1.698412878E+02  4.958313450E+02  5.396198494E+02  1.250000000E+02  0.00000E+00  9.000E+00
      25     1     1     2     0     0  3.596305981E+01 -1.841164308E+02 -1.438486735E+02  2.674128692E+02  1.250000000E+02  0.00000E+00  9.000E+00
      21     1     1     2   512   501 -6.470753188E+00  1.427514296E+01 -3.659070277E+01  3.980615383E+01  4.768371582E-07  0.00000E+00  9.000E+00
#rwgt            1           1   3.2230783228030156E-002          10       46706           0
</event>
<event>
      5   9999  3.19816E-02  8.25296E+01 -1.00000E+00  1.27699E-01
      21    -1     0     0   502   511  0.000000000E+00  0.000000000E+00  2.055223940E+02  2.055223940E+02  0.000000000E+00  0.00000E+00  9.000E+00
      21    -1     0     0   501   502  0.000000000E+00  0.000000000E+00 -4.017609456E+02  4.017609456E+02  0.000000000E+00  0.00000E+00  9.000E+00
      25     1     1     2     0     0 -6.021128312E+01 -4.524937116E+01  1.148918018E+02  1.857364540E+02  1.250000000E+02  0.00000E+00  9.000E+00
      25     1     1     2     0     0  5.856475899E-01 -1.181121919E+01 -3.148205808E+02  3.389348698E+02  1.250000000E+02  0.00000E+00  9.000E+00
      21     1     1     2   501   511  5.962563553E+01  5.706059035E+01  3.690227247E+00  8.261201584E+01  1.292197906E-06  0.00000E+00  9.000E+00
#rwgt            1           1   2.6781494066695832E-002          10       46893           0
</event>
<event>
      5   9999  3.19816E-02  1.10989E+01 -1.00000E+00  1.90664E-01
      21    -1     0     0   512   501  0.000000000E+00  0.000000000E+00  3.819285044E+03  3.819285044E+03  0.000000000E+00  0.00000E+00  9.000E+00
      21    -1     0     0   501   502  0.000000000E+00  0.000000000E+00 -3.146759435E+02  3.146759435E+02  0.000000000E+00  0.00000E+00  9.000E+00
      25     1     1     2     0     0 -5.505180568E+02 -2.958471610E+02  3.351526680E+03  3.411590796E+03  1.250000000E+02  0.00000E+00  9.000E+00
      25     1     1     2     0     0  5.406359996E+02  2.907942957E+02  6.079758970E+01  6.294203312E+02  1.250000000E+02  0.00000E+00  9.000E+00
      21     1     1     2   512   502  9.882057172E+00  5.052865380E+00  9.228483140E+01  9.294986072E+01  1.348699152E-06  0.00000E+00  9.000E+00
#rwgt            1           1   3.9771074822222002E-002          10       46970           0
</event>
<event>
      5   9999  3.19816E-02  2.37592E+01 -1.00000E+00  1.60425E-01
      21    -1     0     0   511   501  0.000000000E+00  0.000000000E+00  3.262180261E+02  3.262180261E+02  0.000000000E+00  0.00000E+00  9.000E+00
      21    -1     0     0   501   502  0.000000000E+00  0.000000000E+00 -1.323970393E+03  1.323970393E+03  0.000000000E+00  0.00000E+00  9.000E+00
      25     1     1     2     0     0  4.405120641E+02  1.761834329E+02  7.115181617E+00  4.906802487E+02  1.250000000E+02  0.00000E+00  9.000E+00
      25     1     1     2     0     0 -4.279136660E+02 -1.560394567E+02 -1.024857988E+03  1.128457935E+03  1.250000000E+02  0.00000E+00  9.000E+00
      21     1     1     2   511   502 -1.259839810E+01 -2.014397616E+01  1.999043924E+01  3.105023464E+01  3.371747881E-07  0.00000E+00  9.000E+00
#rwgt            1           1   3.0425575396012941E-002          10       47399           0
</event>
<event>
      5   9999  3.19816E-02  5.58281E+01 -1.00000E+00  1.36397E-01
      21    -1     0     0   502   501  0.000000000E+00  0.000000000E+00  4.258708650E+02  4.258708650E+02  0.000000000E+00  0.00000E+00  9.000E+00
      21    -1     0     0   501   512  0.000000000E+00  0.000000000E+00 -7.214945859E+02  7.214945859E+02  0.000000000E+00  0.00000E+00  9.000E+00
      25     1     1     2     0     0  5.097479549E+01 -3.376155803E+02  1.242694524E+02  3.842533105E+02  1.250000000E+02  0.00000E+00  9.000E+00
      25     1     1     2     0     0 -6.100539983E+00  3.044029141E+02  1.032472842E+01  3.292870339E+02  1.250000000E+02  0.00000E+00  9.000E+00
      21     1     1     2   502   512 -4.487425551E+01  3.321266626E+01 -4.302179017E+02  4.338251065E+02  0.000000000E+00  0.00000E+00  9.000E+00
#rwgt            1           1   2.9377926332092082E-002          10       47529           0
</event>
<event>
      5   9999  3.19816E-02  4.06947E+01 -1.00000E+00  1.44378E-01
      -1    -1     0     0     0   501  0.000000000E+00  0.000000000E+00  3.715481160E+02  3.715481160E+02  0.000000000E+00  0.00000E+00  9.000E+00
      21    -1     0     0   501   502  0.000000000E+00  0.000000000E+00 -6.519282310E+02  6.519282310E+02  0.000000000E+00  0.00000E+00  9.000E+00
      25     1     1     2     0     0  5.707732350E+01 -4.641488302E+01 -4.163805045E+02  4.409193654E+02  1.250000000E+02  0.00000E+00  9.000E+00
      25     1     1     2     0     0 -2.598154831E+01  7.266588527E+01 -1.977447746E+02  2.463399432E+02  1.250000000E+02  0.00000E+00  9.000E+00
      -1     1     1     2     0   502 -3.109577519E+01 -2.625100225E+01  3.337451641E+02  3.362170384E+02  7.629394531E-06  0.00000E+00  9.000E+00
#rwgt            1           1   5.7511115279760779E-002          10       47631           0
</event>
<event>
      5   9999  3.19816E-02  5.82865E+01 -1.00000E+00  1.35379E-01
      21    -1     0     0   511   501  0.000000000E+00  0.000000000E+00  7.444974836E+01  7.444974836E+01  0.000000000E+00  0.00000E+00  9.000E+00
      21    -1     0     0   501   502  0.000000000E+00  0.000000000E+00 -8.129915783E+02  8.129915783E+02  0.000000000E+00  0.00000E+00  9.000E+00
      25     1     1     2     0     0  7.411541471E+01 -7.801594935E+00 -4.430885966E+01  1.521257198E+02  1.250000000E+02  0.00000E+00  9.000E+00
      25     1     1     2     0     0 -9.630441208E+01 -4.609612043E+01 -6.171930133E+02  6.387108953E+02  1.250000000E+02  0.00000E+00  9.000E+00
      21     1     1     2   511   502  2.218899736E+01  5.389771536E+01 -7.703995706E+01  9.660471163E+01  1.651812370E-06  0.00000E+00  9.000E+00
#rwgt            1           1   2.9947233907441431E-002          10       47698           0
</event>
<event>
      5   9999  3.19816E-02  4.36440E+01 -1.00000E+00  1.42530E-01
      21    -1     0     0   512   501  0.000000000E+00  0.000000000E+00  8.802820265E+02  8.802820265E+02  0.000000000E+00  0.00000E+00  9.000E+00
      21    -1     0     0   501   502  0.000000000E+00  0.000000000E+00 -2.029053583E+02  2.029053583E+02  0.000000000E+00  0.00000E+00  9.000E+00
      25     1     1     2     0     0 -3.022725429E+02  1.374020411E+02  9.893979396E+01  3.683233551E+02  1.250000000E+02  0.00000E+00  9.000E+00
      25     1     1     2     0     0  2.601058317E+02 -1.261427751E+02  3.065804971E+02  4.395266142E+02  1.250000000E+02  0.00000E+00  9.000E+00
      21     1     1     2   512   502  4.216671120E+01 -1.125926606E+01  2.718563771E+02  2.753374155E+02  5.394796609E-06  0.00000E+00  9.000E+00
#rwgt            1           1   2.8581692185689785E-002          10       47801           0
</event>
<event>
      5   9999  3.19816E-02  2.07931E+02 -1.00000E+00  1.11037E-01
       2    -1     0     0   502     0  0.000000000E+00  0.000000000E+00  1.231114972E+03  1.231114972E+03  0.000000000E+00  0.00000E+00  9.000E+00
      21    -1     0     0   501   502  0.000000000E+00  0.000000000E+00 -4.916299773E+02  4.916299773E+02  0.000000000E+00  0.00000E+00  9.000E+00
      25     1     1     2     0     0  1.715373641E+02 -5.831736825E+02  5.347889460E+02  8.192318524E+02  1.250000000E+02  0.00000E+00  9.000E+00
      25     1     1     2     0     0 -3.690751743E+02  5.182578010E+02  6.207949220E+01  6.513727780E+02  1.250000000E+02  0.00000E+00  9.000E+00
       2     1     1     2   501     0  1.975378102E+02  6.491588148E+01  1.426165563E+02  2.521403186E+02  1.907348633E-06  0.00000E+00  9.000E+00
#rwgt            1           1   2.2449598677158230E-002          10       47923           0
</event>
<event>
      5   9999  3.19816E-02  2.42403E+02 -1.00000E+00  1.08690E-01
      21    -1     0     0   502   501  0.000000000E+00  0.000000000E+00  9.151435813E+02  9.151435813E+02  0.000000000E+00  0.00000E+00  9.000E+00
       2    -1     0     0   501     0  0.000000000E+00  0.000000000E+00 -1.217855189E+03  1.217855189E+03  0.000000000E+00  0.00000E+00  9.000E+00
      25     1     1     2     0     0  6.256091804E+02 -6.856136633E+02  2.729093207E+02  9.754780568E+02  1.250000000E+02  0.00000E+00  9.000E+00
      25     1     1     2     0     0 -4.191946709E+02  5.585220945E+02 -2.513120883E+02  7.526312961E+02  1.250000000E+02  0.00000E+00  9.000E+00
       2     1     1     2   502     0 -2.064145095E+02  1.270915688E+02 -3.243088395E+02  4.048894170E+02  6.607249480E-06  0.00000E+00  9.000E+00
#rwgt            1           1   3.4889604712669206E-002          10       48035           0
</event>
<event>
      5   9999  3.19816E-02  1.30010E+02 -1.00000E+00  1.18910E-01
      21    -1     0     0   502   501  0.000000000E+00  0.000000000E+00  1.122658957E+03  1.122658957E+03  0.000000000E+00  0.00000E+00  9.000E+00
      21    -1     0     0   501   511  0.000000000E+00  0.000000000E+00 -8.297058867E+02  8.297058867E+02  0.000000000E+00  0.00000E+00  9.000E+00
      25     1     1     2     0     0 -3.145534360E+02  3.676800397E+01  7.084085898E+02  7.859793130E+02  1.250000000E+02  0.00000E+00  9.000E+00
      25     1     1     2     0     0  2.168262267E+02  4.897559578E+01  3.258409328E+02  4.137747395E+02  1.250000000E+02  0.00000E+00  9.000E+00
      21     1     1     2   502   511  9.772720930E+01 -8.574359975E+01 -7.412964525E+02  7.526107911E+02  1.078959322E-05  0.00000E+00  9.000E+00
#rwgt            1           1   2.8491919446345566E-002          10       48105           0
</event>
<event>
      5   9999  3.19816E-02  3.41356E+02 -1.00000E+00  1.03801E-01
       2    -1     0     0   502     0  0.000000000E+00  0.000000000E+00  5.205374193E+02  5.205374193E+02  0.000000000E+00  0.00000E+00  9.000E+00
      21    -1     0     0   501   502  0.000000000E+00  0.000000000E+00 -4.768569122E+02  4.768569122E+02  0.000000000E+00  0.00000E+00  9.000E+00
      25     1     1     2     0     0 -6.640606172E+01  8.520903303E+01  1.840826262E+02  2.473494646E+02  1.250000000E+02  0.00000E+00  9.000E+00
      25     1     1     2     0     0 -2.079515507E+02 -2.883137226E+02 -1.571548897E+02  4.082784705E+02  1.250000000E+02  0.00000E+00  9.000E+00
       2     1     1     2   501     0  2.743576124E+02  2.031046896E+02  1.675277061E+01  3.417663965E+02  1.980453459E-06  0.00000E+00  9.000E+00
#rwgt            2          18   2.3596127596630634E-004          10       48265           0
</event>
<event>
      5   9999  3.19816E-02  2.42626E+02 -1.00000E+00  1.08676E-01
      21    -1     0     0   502   501  0.000000000E+00  0.000000000E+00  1.908424175E+03  1.908424175E+03  0.000000000E+00  0.00000E+00  9.000E+00
      21    -1     0     0   511   502  0.000000000E+00  0.000000000E+00 -6.237043767E+02  6.237043767E+02  0.000000000E+00  0.00000E+00  9.000E+00
      25     1     1     2     0     0 -2.421262499E+02  9.745411950E+02  8.365808887E+02  1.312954015E+03  1.250000000E+02  0.00000E+00  9.000E+00
      25     1     1     2     0     0  1.877214013E+01 -8.797759678E+02  3.190065955E+02  9.443242847E+02  1.250000000E+02  0.00000E+00  9.000E+00
      21     1     1     2   511   501  2.233541097E+02 -9.476522718E+01  1.291323141E+02  2.748502523E+02  6.877043296E-06  0.00000E+00  9.000E+00
#rwgt            2          11   6.9819984372646911E-003          10       48329           0
</event>
<event>
      5   9999  3.19816E-02  8.26547E+01 -1.00000E+00  1.27667E-01
      21    -1     0     0   512   501  0.000000000E+00  0.000000000E+00  2.646665180E+02  2.646665180E+02  0.000000000E+00  0.00000E+00  9.000E+00
      21    -1     0     0   501   502  0.000000000E+00  0.000000000E+00 -7.827117699E+02  7.827117699E+02  0.000000000E+00  0.00000E+00  9.000E+00
      25     1     1     2     0     0 -1.094754272E+02  7.667482446E+00  1.636370908E+02  2.333361458E+02  1.250000000E+02  0.00000E+00  9.000E+00
      25     1     1     2     0     0  7.671150651E+01  6.821611586E+01 -7.088241039E+02  7.270451870E+02  1.250000000E+02  0.00000E+00  9.000E+00
      21     1     1     2   512   502  3.276392074E+01 -7.588359830E+01  2.714176120E+01  8.699695509E+01  5.840038640E-07  0.00000E+00  9.000E+00
#rwgt            1           1   2.9321792690669434E-002          10       48394           0
</event>
<event>
      5   9999  3.19816E-02  9.52320E+00 -1.00000E+00  1.98242E-01
      21    -1     0     0   511   501  0.000000000E+00  0.000000000E+00  9.547291318E+02  9.547291318E+02  0.000000000E+00  0.00000E+00  9.000E+00
      21    -1     0     0   501   502  0.000000000E+00  0.000000000E+00 -2.940097646E+02  2.940097646E+02  0.000000000E+00  0.00000E+00  9.000E+00
      25     1     1     2     0     0  1.262688713E+02  4.930596523E+02  3.943966506E+02  6.559156703E+02  1.250000000E+02  0.00000E+00  9.000E+00
      25     1     1     2     0     0 -1.180149099E+02 -4.883095437E+02  2.523556615E+02  5.759184919E+02  1.250000000E+02  0.00000E+00  9.000E+00
      21     1     1     2   511   502 -8.253961468E+00 -4.750108591E+00  1.396705512E+01  1.690473425E+01  0.000000000E+00  0.00000E+00  9.000E+00
#rwgt            1           1   3.3108800063853035E-002          10       48472           0
</event>
<event>
      5   9999  3.19816E-02  3.76928E+01 -1.00000E+00  1.46459E-01
      21    -1     0     0   502   512  0.000000000E+00  0.000000000E+00  8.141467775E+02  8.141467775E+02  0.000000000E+00  0.00000E+00  9.000E+00
      21    -1     0     0   501   502  0.000000000E+00  0.000000000E+00 -7.318491728E+01  7.318491728E+01  0.000000000E+00  0.00000E+00  9.000E+00
      25     1     1     2     0     0 -8.618433598E+01  6.137758982E+01  3.991192518E+02  4.314117818E+02  1.250000000E+02  0.00000E+00  9.000E+00
      25     1     1     2     0     0  1.237521922E+02 -5.831134754E+01  9.886019501E+01  2.100313226E+02  1.250000000E+02  0.00000E+00  9.000E+00
      21     1     1     2   501   512 -3.756785617E+01 -3.066242280E+00  2.429824134E+02  2.458885904E+02  3.814697266E-06  0.00000E+00  9.000E+00
#rwgt            1           1   2.7032241489287442E-002          10       48768           0
</event>
<event>
      5   9999  3.19816E-02  4.05652E+01 -1.00000E+00  1.44463E-01
      21    -1     0     0   502   501  0.000000000E+00  0.000000000E+00  3.978989254E+02  3.978989254E+02  0.000000000E+00  0.00000E+00  9.000E+00
      21    -1     0     0   501   511  0.000000000E+00  0.000000000E+00 -3.767386298E+02  3.767386298E+02  0.000000000E+00  0.00000E+00  9.000E+00
      25     1     1     2     0     0 -1.649178793E+02  2.616041457E+02 -2.039061131E+01  3.341787142E+02  1.250000000E+02  0.00000E+00  9.000E+00
      25     1     1     2     0     0  1.929430616E+02 -2.909319742E+02  8.562451716E+01  3.805587952E+02  1.250000000E+02  0.00000E+00  9.000E+00
      21     1     1     2   502   511 -2.802518232E+01  2.932782850E+01 -4.407361024E+01  5.990004581E+01  6.743495762E-07  0.00000E+00  9.000E+00
#rwgt            1           1   2.8378563677346442E-002          10       48858           0
</event>
<event>
      5   9999  3.19816E-02  1.13060E+02 -1.00000E+00  1.21477E-01
      21    -1     0     0   502   512  0.000000000E+00  0.000000000E+00  3.497856477E+03  3.497856477E+03  0.000000000E+00  0.00000E+00  9.000E+00
      21    -1     0     0   501   502  0.000000000E+00  0.000000000E+00 -5.856148895E+01  5.856148895E+01  0.000000000E+00  0.00000E+00  9.000E+00
      25     1     1     2     0     0 -8.180781281E+01 -4.128355791E+01  1.136962496E+03  1.147477916E+03  1.250000000E+02  0.00000E+00  9.000E+00
      25     1     1     2     0     0  1.905925294E+02  7.207970045E+01  2.242088901E+02  3.277432256E+02  1.250000000E+02  0.00000E+00  9.000E+00
      21     1     1     2   501   512 -1.087847166E+02 -3.079614254E+01  2.078123602E+03  2.081196824E+03  3.051757812E-05  0.00000E+00  9.000E+00
#rwgt            1           1   3.7083524946964867E-002          10       48959           0
</event>
<event>
      5   9999  3.19816E-02  7.28581E+01 -1.00000E+00  1.30347E-01
      21    -1     0     0   502   501  0.000000000E+00  0.000000000E+00  6.220491846E+02  6.220491846E+02  0.000000000E+00  0.00000E+00  9.000E+00
       2    -1     0     0   501     0  0.000000000E+00  0.000000000E+00 -6.161109957E+02  6.161109957E+02  0.000000000E+00  0.00000E+00  9.000E+00
      25     1     1     2     0     0  1.767896709E+01  3.126376934E+02  4.061958835E+02  5.278967408E+02  1.250000000E+02  0.00000E+00  9.000E+00
      25     1     1     2     0     0  3.698952184E+01 -2.644749120E+02  8.583450632E+00  2.949811510E+02  1.250000000E+02  0.00000E+00  9.000E+00
       2     1     1     2   502     0 -5.466848893E+01 -4.816278141E+01 -4.088411452E+02  4.152822886E+02  0.000000000E+00  0.00000E+00  9.000E+00
#rwgt            1           1   3.0435502340924962E-002          10       49015           0
</event>
<event>
      5   9999  3.19816E-02  6.72029E+01 -1.00000E+00  1.32124E-01
      21    -1     0     0   502   501  0.000000000E+00  0.000000000E+00  4.680645798E+02  4.680645798E+02  0.000000000E+00  0.00000E+00  9.000E+00
      21    -1     0     0   511   502  0.000000000E+00  0.000000000E+00 -1.979614362E+03  1.979614362E+03  0.000000000E+00  0.00000E+00  9.000E+00
      25     1     1     2     0     0 -6.372492415E+01 -7.665568869E+02 -9.647921126E+02  1.240209316E+03  1.250000000E+02  0.00000E+00  9.000E+00
      25     1     1     2     0     0  4.939901575E+01  8.322150999E+02 -2.163797721E+02  8.703260545E+02  1.250000000E+02  0.00000E+00  9.000E+00
      21     1     1     2   511   501  1.432590841E+01 -6.565821306E+01 -3.303778977E+02  3.371435716E+02  5.394796609E-06  0.00000E+00  9.000E+00
#rwgt            2          11   3.1455344737035306E-003          10       49085           0
</event>
<event>
      5   9999  3.19816E-02  3.80457E+01 -1.00000E+00  1.46202E-01
      21    -1     0     0   502   501  0.000000000E+00  0.000000000E+00  2.373381041E+02  2.373381041E+02  0.000000000E+00  0.00000E+00  9.000E+00
      21    -1     0     0   501   512  0.000000000E+00  0.000000000E+00 -4.469184260E+02  4.469184260E+02  0.000000000E+00  0.00000E+00  9.000E+00
      25     1     1     2     0     0  9.565281113E+00 -2.138748414E+02  5.449900169E+01  2.538288470E+02  1.250000000E+02  0.00000E+00  9.000E+00
      25     1     1     2     0     0  2.350379241E+01  1.950623019E+02 -8.585704053E+01  2.481897687E+02  1.250000000E+02  0.00000E+00  9.000E+00
      21     1     1     2   502   512 -3.306907352E+01  1.881253948E+01 -1.782222830E+02  1.822379143E+02  0.000000000E+00  0.00000E+00  9.000E+00
#rwgt            1           1   2.7633903933406909E-002          10       49105           0
</event>
<event>
      5   9999  3.19816E-02  9.14287E+00 -1.00000E+00  2.00366E-01
      21    -1     0     0   502   501  0.000000000E+00  0.000000000E+00  3.727552525E+02  3.727552525E+02  0.000000000E+00  0.00000E+00  9.000E+00
       2    -1     0     0   501     0  0.000000000E+00  0.000000000E+00 -1.087116318E+03  1.087116318E+03  0.000000000E+00  0.00000E+00  9.000E+00
      25     1     1     2     0     0  3.437861638E+02  4.001133652E+02 -1.755904291E+02  5.698566752E+02  1.250000000E+02  0.00000E+00  9.000E+00
      25     1     1     2     0     0 -3.457882939E+02 -3.911924091E+02 -2.349002141E+02  5.860069588E+02  1.250000000E+02  0.00000E+00  9.000E+00
       2     1     1     2   502     0  2.002130090E+00 -8.920956129E+00 -3.038704225E+02  3.040079368E+02  0.000000000E+00  0.00000E+00  9.000E+00
#rwgt            1           1   2.4629602839428905E-002          10       49201           0
</event>
<event>
      5   9999  3.19816E-02  1.66101E+02 -1.00000E+00  1.14665E-01
       1    -1     0     0   502     0  0.000000000E+00  0.000000000E+00  1.855593381E+03  1.855593381E+03  0.000000000E+00  0.00000E+00  9.000E+00
      21    -1     0     0   501   502  0.000000000E+00  0.000000000E+00 -7.652809320E+01  7.652809320E+01  0.000000000E+00  0.00000E+00  9.000E+00
      25     1     1     2     0     0 -4.718591236E+01 -3.283838526E+01  2.310229961E+02  2.688893724E+02  1.250000000E+02  0.00000E+00  9.000E+00
      25     1     1     2     0     0 -1.085916242E+02 -2.480668450E+01  1.470362499E+03  1.479864315E+03  1.250000000E+02  0.00000E+00  9.000E+00
       1     1     1     2   501     0  1.557775366E+02  5.764506976E+01  7.767979244E+01  1.833677865E+02  4.370284743E-06  0.00000E+00  9.000E+00
#rwgt            1           1   3.8139893203293140E-002          10       49485           0
</event>
<event>
      5   9999  3.19816E-02  4.42693E+01 -1.00000E+00  1.42161E-01
      21    -1     0     0   511   501  0.000000000E+00  0.000000000E+00  6.226917156E+02  6.226917156E+02  0.000000000E+00  0.00000E+00  9.000E+00
      21    -1     0     0   501   502  0.000000000E+00  0.000000000E+00 -9.782476180E+01  9.782476180E+01  0.000000000E+00  0.00000E+00  9.000E+00
      25     1     1     2     0     0  2.749340425E+01 -2.607031174E+01  4.577943528E+02  4.760632499E+02  1.250000000E+02  0.00000E+00  9.000E+00
      25     1     1     2     0     0 -5.227529222E+00  6.433262186E+01 -2.444711552E+01  1.427889168E+02  1.250000000E+02  0.00000E+00  9.000E+00
      21     1     1     2   511   502 -2.226587503E+01 -3.826231012E+01  9.151971653E+01  1.016643108E+02  1.907348633E-06  0.00000E+00  9.000E+00
#rwgt            1           1   3.1048795570896671E-002          10       49520           0
</event>
<event>
      5   9999  3.19816E-02  2.91765E+01 -1.00000E+00  1.53884E-01
      21    -1     0     0   502   501  0.000000000E+00  0.000000000E+00  2.530032709E+02  2.530032709E+02  0.000000000E+00  0.00000E+00  9.000E+00
      21    -1     0     0   512   502  0.000000000E+00  0.000000000E+00 -5.064553306E+02  5.064553306E+02  0.000000000E+00  0.00000E+00  9.000E+00
      25     1     1     2     0     0 -2.738736074E+02 -2.796304423E+01 -6.496625155E+01  3.092479563E+02  1.250000000E+02  0.00000E+00  9.000E+00
      25     1     1     2     0     0  2.843267970E+02  7.234359944E-01 -5.731710965E+01  3.158361948E+02  1.250000000E+02  0.00000E+00  9.000E+00
      21     1     1     2   512   501 -1.045318966E+01  2.723960824E+01 -1.311686985E+02  1.343744503E+02  1.907348633E-06  0.00000E+00  9.000E+00
#rwgt            1           1   2.8054923159472611E-002          10       49619           0
</event>
<event>
      5   9999  3.19816E-02  2.64620E+01 -1.00000E+00  1.56924E-01
      21    -1     0     0   502   511  0.000000000E+00  0.000000000E+00  2.516279991E+02  2.516279991E+02  0.000000000E+00  0.00000E+00  9.000E+00
      21    -1     0     0   501   502  0.000000000E+00  0.000000000E+00 -9.220579574E+02  9.220579574E+02  0.000000000E+00  0.00000E+00  9.000E+00
      25     1     1     2     0     0  1.897843834E+01  1.545297142E+02 -8.491396106E+02  8.722973644E+02  1.250000000E+02  0.00000E+00  9.000E+00
      25     1     1     2     0     0 -4.224773785E+01 -1.671303221E+02  1.412567366E+02  2.555305883E+02  1.250000000E+02  0.00000E+00  9.000E+00
      21     1     1     2   501   511  2.326929951E+01  1.260060792E+01  3.745291565E+01  4.585800377E+01  6.743495762E-07  0.00000E+00  9.000E+00
#rwgt            1           1   2.8775263783474572E-002          10       49763           0
</event>
<event>
      5   9999  3.19816E-02  9.43225E+02 -1.00000E+00  9.16047E-02
      21    -1     0     0   512   501  0.000000000E+00  0.000000000E+00  1.562431406E+03  1.562431406E+03  0.000000000E+00  0.00000E+00  9.000E+00
      21    -1     0     0   501   502  0.000000000E+00  0.000000000E+00 -1.867050490E+03  1.867050490E+03  0.000000000E+00  0.00000E+00  9.000E+00
      25     1     1     2     0     0 -5.890427360E+02 -4.350898266E+02 -3.791087049E+02  8.340401143E+02  1.250000000E+02  0.00000E+00  9.000E+00
      25     1     1     2     0     0  1.067092071E+03  1.248196316E+03  1.187138045E+02  1.651180637E+03  1.250000000E+02  0.00000E+00  9.000E+00
      21     1     1     2   512   502 -4.780493347E+02 -8.131064890E+02 -4.422418373E+01  9.442611436E+02  1.910921565E-05  0.00000E+00  9.000E+00
#rwgt            2          11   1.2546263684952274E-003          10       50041           0
</event>
<event>
      5   9999  3.19816E-02  4.60724E+01 -1.00000E+00  1.41133E-01
      21    -1     0     0   502   501  0.000000000E+00  0.000000000E+00  2.172027233E+02  2.172027233E+02  0.000000000E+00  0.00000E+00  9.000E+00
      21    -1     0     0   501   511  0.000000000E+00  0.000000000E+00 -3.019831622E+02  3.019831622E+02  0.000000000E+00  0.00000E+00  9.000E+00
      25     1     1     2     0     0 -1.743924207E+01 -6.364121376E+00 -1.963584020E+02  2.335085678E+02  1.250000000E+02  0.00000E+00  9.000E+00
      25     1     1     2     0     0  5.141117029E+01 -2.475783210E+01  1.652680235E+02  2.149292401E+02  1.250000000E+02  0.00000E+00  9.000E+00
      21     1     1     2   502   511 -3.397192823E+01  3.112195347E+01 -5.369006041E+01  7.074807758E+01  1.507891493E-06  0.00000E+00  9.000E+00
#rwgt            1           1   3.0016586993795131E-002          10       50061           0
</event>
<event>
      5   9999  3.19816E-02  1.64716E+01 -1.00000E+00  1.73638E-01
      21    -1     0     0   502   501  0.000000000E+00  0.000000000E+00  4.233821249E+01  4.233821249E+01  0.000000000E+00  0.00000E+00  9.000E+00
       2    -1     0     0   501     0  0.000000000E+00  0.000000000E+00 -1.799312716E+03  1.799312716E+03  0.000000000E+00  0.00000E+00  9.000E+00
      25     1     1     2     0     0  9.068826427E+01  3.552979252E+01 -1.277621452E+02  2.035556267E+02  1.250000000E+02  0.00000E+00  9.000E+00
      25     1     1     2     0     0 -8.483519844E+01 -2.013321312E+01 -1.523974997E+03  1.531576687E+03  1.250000000E+02  0.00000E+00  9.000E+00
       2     1     1     2   502     0 -5.853065822E+00 -1.539657940E+01 -1.052373613E+02  1.065186146E+02  0.000000000E+00  0.00000E+00  9.000E+00
#rwgt            1           1   3.4217199015447321E-002          10       50193           0
</event>
<event>
      5   9999  3.19816E-02  1.73546E+01 -1.00000E+00  1.71619E-01
      21    -1     0     0   502   501  0.000000000E+00  0.000000000E+00  6.819417630E+01  6.819417630E+01  0.000000000E+00  0.00000E+00  9.000E+00
      21    -1     0     0   511   502  0.000000000E+00  0.000000000E+00 -1.538464492E+03  1.538464492E+03  0.000000000E+00  0.00000E+00  9.000E+00
      25     1     1     2     0     0 -1.595132713E+02  1.430803488E+02 -1.200761143E+03  1.226119404E+03  1.250000000E+02  0.00000E+00  9.000E+00
      25     1     1     2     0     0  1.445360495E+02 -1.518476481E+02 -2.219093521E+02  3.298744282E+02  1.250000000E+02  0.00000E+00  9.000E+00
      21     1     1     2   511   501  1.497722177E+01  8.767299264E+00 -4.759981996E+01  5.066483562E+01  1.168007728E-06  0.00000E+00  9.000E+00
#rwgt            1           1   2.7533783013845996E-002          10       50344           0
</event>
<event>
      5   9999  3.19816E-02  2.29904E+01 -1.00000E+00  1.61526E-01
      21    -1     0     0   502   501  0.000000000E+00  0.000000000E+00  5.465486678E+02  5.465486678E+02  0.000000000E+00  0.00000E+00  9.000E+00
      21    -1     0     0   512   502  0.000000000E+00  0.000000000E+00 -8.291956193E+02  8.291956193E+02  0.000000000E+00  0.00000E+00  9.000E+00
      25     1     1     2     0     0 -4.902125052E+02  8.008629208E+01  2.759130762E+02  5.817861635E+02  1.250000000E+02  0.00000E+00  9.000E+00
      25     1     1     2     0     0  5.129670574E+02 -8.337079580E+01 -5.036145299E+02  7.343966819E+02  1.250000000E+02  0.00000E+00  9.000E+00
      21     1     1     2   512   501 -2.275455221E+01  3.284503717E+00 -5.494549785E+01  5.956144177E+01  0.000000000E+00  0.00000E+00  9.000E+00
#rwgt            1           1   3.0570428953699852E-002          10       50538           0
</event>
<event>
      5   9999  3.19816E-02  7.57180E+01 -1.00000E+00  1.29517E-01
      21    -1     0     0   502   511  0.000000000E+00  0.000000000E+00  3.244567467E+02  3.244567467E+02  0.000000000E+00  0.00000E+00  9.000E+00
      21    -1     0     0   501   502  0.000000000E+00  0.000000000E+00 -5.955050831E+02  5.955050831E+02  0.000000000E+00  0.00000E+00  9.000E+00
      25     1     1     2     0     0 -1.710642724E+02  2.297303503E+02  9.965788875E+01  3.280178561E+02  1.250000000E+02  0.00000E+00  9.000E+00
      25     1     1     2     0     0  2.351998475E+02 -1.894830442E+02 -3.947327678E+02  5.125053661E+02  1.250000000E+02  0.00000E+00  9.000E+00
      21     1     1     2   501   511 -6.413557503E+01 -4.024730612E+01  2.402654261E+01  7.943860764E+01  1.469710828E-06  0.00000E+00  9.000E+00
#rwgt            1           1   2.7027524903117030E-002          10       50730           0
</event>
<event>
      5   9999  3.19816E-02  1.38712E+02 -1.00000E+00  1.17756E-01
      21    -1     0     0   502   501  0.000000000E+00  0.000000000E+00  1.769124944E+03  1.769124944E+03  0.000000000E+00  0.00000E+00  9.000E+00
      21    -1     0     0   512   502  0.000000000E+00  0.000000000E+00 -5.914663962E+02  5.914663962E+02  0.000000000E+00  0.00000E+00  9.000E+00
      25     1     1     2     0     0 -7.578884530E+02 -1.521730544E+02  3.873259106E+01  7.840132392E+02  1.250000000E+02  0.00000E+00  9.000E+00
      25     1     1     2     0     0  6.295333312E+02  9.958008609E+01  1.243471296E+03  1.402880705E+03  1.250000000E+02  0.00000E+00  9.000E+00
      21     1     1     2   512   501  1.283551217E+02  5.259296827E+01 -1.045453388E+02  1.736973962E+02  2.697398305E-06  0.00000E+00  9.000E+00
#rwgt            2          11   6.5971277381015707E-003          10       50884           0
</event>
<event>
      5   9999  3.19816E-02  3.26855E+01 -1.00000E+00  1.50498E-01
      21    -1     0     0   511   501  0.000000000E+00  0.000000000E+00  1.116623876E+03  1.116623876E+03  0.000000000E+00  0.00000E+00  9.000E+00
      21    -1     0     0   501   502  0.000000000E+00  0.000000000E+00 -2.045155190E+02  2.045155190E+02  0.000000000E+00  0.00000E+00  9.000E+00
      25     1     1     2     0     0  3.595142682E+01 -3.801140262E+02  1.436908070E+02  4.266746137E+02  1.250000000E+02  0.00000E+00  9.000E+00
      25     1     1     2     0     0 -1.381493073E+01  3.560658316E+02  5.131857125E+02  6.371485732E+02  1.250000000E+02  0.00000E+00  9.000E+00
      21     1     1     2   511   502 -2.213649609E+01  2.404819456E+01  2.552318375E+02  2.573162082E+02  2.697398305E-06  0.00000E+00  9.000E+00
#rwgt            1           1   2.8436336077233844E-002          10       50904           0
</event>
<event>
      5   9999  3.19816E-02  1.85111E+02 -1.00000E+00  1.12885E-01
      21    -1     0     0   502   501  0.000000000E+00  0.000000000E+00  5.053734798E+02  5.053734798E+02  0.000000000E+00  0.00000E+00  9.000E+00
      -3    -1     0     0     0   502  0.000000000E+00  0.000000000E+00 -1.822568649E+03  1.822568649E+03  0.000000000E+00  0.00000E+00  9.000E+00
      25     1     1     2     0     0 -3.496747215E+02  1.526827637E+02  3.064746720E+02  5.051100492E+02  1.250000000E+02  0.00000E+00  9.000E+00
      25     1     1     2     0     0  4.390877231E+02 -3.147675303E+02 -1.502564740E+03  1.601624933E+03  1.250000000E+02  0.00000E+00  9.000E+00
      -3     1     1     2     0   501 -8.941300160E+01  1.620847665E+02 -1.211051016E+02  2.212071473E+02  0.000000000E+00  0.00000E+00  9.000E+00
#rwgt            1           1   3.2510900763426331E-002          10       51066           0
</event>
<event>
      5   9999  3.19816E-02  1.49193E+02 -1.00000E+00  1.16487E-01
      21    -1     0     0   511   501  0.000000000E+00  0.000000000E+00  1.186784331E+02  1.186784331E+02  0.000000000E+00  0.00000E+00  9.000E+00
      21    -1     0     0   501   502  0.000000000E+00  0.000000000E+00 -1.225997926E+03  1.225997926E+03  0.000000000E+00  0.00000E+00  9.000E+00
      25     1     1     2     0     0 -2.567324283E+02 -6.148986046E+01 -5.578309871E+02  6.296768638E+02  1.250000000E+02  0.00000E+00  9.000E+00
      25     1     1     2     0     0  1.836163020E+02 -6.855819905E+01 -5.102858369E+02  5.607421942E+02  1.250000000E+02  0.00000E+00  9.000E+00
      21     1     1     2   511   502  7.311612630E+01  1.300480595E+02 -3.920266893E+01  1.542573012E+02  4.238221368E-06  0.00000E+00  9.000E+00
#rwgt            1           1   3.0325415538369437E-002          10       51151           0
</event>
<event>
      5   9999  3.19816E-02  1.80969E+02 -1.00000E+00  1.13252E-01
      21    -1     0     0   502   501  0.000000000E+00  0.000000000E+00  5.252275525E+02  5.252275525E+02  0.000000000E+00  0.00000E+00  9.000E+00
      21    -1     0     0   501   512  0.000000000E+00  0.000000000E+00 -2.459282805E+02  2.459282805E+02  0.000000000E+00  0.00000E+00  9.000E+00
      25     1     1     2     0     0  1.590458779E+02  1.789452095E+01  1.693945084E+02  2.644528401E+02  1.250000000E+02  0.00000E+00  9.000E+00
      25     1     1     2     0     0 -1.258249387E+02  1.599987357E+02  1.934552300E+02  3.073783282E+02  1.250000000E+02  0.00000E+00  9.000E+00
      21     1     1     2   502   512 -3.322093913E+01 -1.778932567E+02 -8.355046636E+01  1.993246648E+02  4.156969970E-06  0.00000E+00  9.000E+00
#rwgt            1           1   2.6664925969209944E-002          10       51222           0
</event>
<event>
      5   9999  3.19816E-02  1.70634E+02 -1.00000E+00  1.14218E-01
      21    -1     0     0   502   501  0.000000000E+00  0.000000000E+00  1.022746296E+03  1.022746296E+03  0.000000000E+00  0.00000E+00  9.000E+00
       1    -1     0     0   501     0  0.000000000E+00  0.000000000E+00 -8.491344912E+01  8.491344912E+01  0.000000000E+00  0.00000E+00  9.000E+00
      25     1     1     2     0     0 -1.376366209E+01 -1.945394132E+01  5.568280359E+01  1.389009318E+02  1.250000000E+02  0.00000E+00  9.000E+00
      25     1     1     2     0     0  1.758141160E+02  7.289311643E+01  5.519931451E+02  5.971142622E+02  1.250000000E+02  0.00000E+00  9.000E+00
       1     1     1     2   502     0 -1.620504539E+02 -5.343917511E+01  3.301568983E+02  3.716445513E+02  5.394796609E-06  0.00000E+00  9.000E+00
#rwgt            1           1   3.5626633646880221E-002          10       51268           0
</event>
<event>
      5   9999  3.19816E-02  1.57500E+01 -1.00000E+00  1.75411E-01
      21    -1     0     0   511   501  0.000000000E+00  0.000000000E+00  1.635879069E+03  1.635879069E+03  0.000000000E+00  0.00000E+00  9.000E+00
      21    -1     0     0   501   502  0.000000000E+00  0.000000000E+00 -2.987916384E+02  2.987916384E+02  0.000000000E+00  0.00000E+00  9.000E+00
      25     1     1     2     0     0  1.293222031E+02  4.174783689E+02  1.158522846E+03  1.244512999E+03  1.250000000E+02  0.00000E+00  9.000E+00
      25     1     1     2     0     0 -1.147300796E+02 -4.115512372E+02 -6.167137180E+01  4.494060192E+02  1.250000000E+02  0.00000E+00  9.000E+00
      21     1     1     2   511   502 -1.459212352E+01 -5.927131736E+00  2.402359563E+02  2.407516888E+02  3.814697266E-06  0.00000E+00  9.000E+00
#rwgt            1           1   1.8307059998424274E-002          10       51321           0
</event>
<event>
      5   9999  3.19816E-02  4.56037E+01 -1.00000E+00  1.41395E-01
      21    -1     0     0   502   512  0.000000000E+00  0.000000000E+00  1.229251465E+03  1.229251465E+03  0.000000000E+00  0.00000E+00  9.000E+00
      21    -1     0     0   501   502  0.000000000E+00  0.000000000E+00 -5.684551161E+02  5.684551161E+02  0.000000000E+00  0.00000E+00  9.000E+00
      25     1     1     2     0     0  3.888648903E+02  4.105678300E+02  5.669666559E+02  8.104677876E+02  1.250000000E+02  0.00000E+00  9.000E+00
      25     1     1     2     0     0 -4.342801607E+02 -4.064269808E+02 -2.376783581E+02  6.526087270E+02  1.250000000E+02  0.00000E+00  9.000E+00
      21     1     1     2   501   512  4.541527044E+01 -4.140849204E+00  3.315080515E+02  3.346300669E+02  3.814697266E-06  0.00000E+00  9.000E+00
#rwgt            1           1   3.2654211735038692E-002          10       51572           0
</event>
<event>
      5   9999  3.19816E-02  7.31337E+01 -1.00000E+00  1.30265E-01
      21    -1     0     0   502   501  0.000000000E+00  0.000000000E+00  7.621094284E+02  7.621094284E+02  0.000000000E+00  0.00000E+00  9.000E+00
      21    -1     0     0   501   511  0.000000000E+00  0.000000000E+00 -1.522848801E+02  1.522848801E+02  0.000000000E+00  0.00000E+00  9.000E+00
      25     1     1     2     0     0 -7.653554753E+01 -9.433287526E+01  2.405406971E+02  2.970542179E+02  1.250000000E+02  0.00000E+00  9.000E+00
      25     1     1     2     0     0  1.264622642E+02  1.477731657E+02  4.515301265E+02  5.072810542E+02  1.250000000E+02  0.00000E+00  9.000E+00
      21     1     1     2   502   511 -4.992671670E+01 -5.344029047E+01 -8.224627532E+01  1.100590364E+02  2.861022949E-06  0.00000E+00  9.000E+00
#rwgt            1           1   2.8741418214608998E-002          10       51714           0
</event>
<event>
      5   9999  3.19816E-02  8.08602E+01 -1.00000E+00  1.28125E-01
      21    -1     0     0   512   501  0.000000000E+00  0.000000000E+00  2.035062182E+02  2.035062182E+02  0.000000000E+00  0.00000E+00  9.000E+00
      21    -1     0     0   501   502  0.000000000E+00  0.000000000E+00 -1.566117784E+03  1.566117784E+03  0.000000000E+00  0.00000E+00  9.000E+00
      25     1     1     2     0     0  1.752497557E+02 -2.143699059E+02 -1.177750016E+03  1.216300552E+03  1.250000000E+02  0.00000E+00  9.000E+00
      25     1     1     2     0     0 -1.506099472E+02  1.373552881E+02 -3.178100245E+02  3.977160332E+02  1.250000000E+02  0.00000E+00  9.000E+00
      21     1     1     2   512   502 -2.463980850E+01  7.701461773E+01  1.329484741E+02  1.556074172E+02  1.907348633E-06  0.00000E+00  9.000E+00
#rwgt            1           1   2.6264922294922537E-002          10       51782           0
</event>
<event>
      5   9999  3.19816E-02  2.69681E+01 -1.00000E+00  1.56325E-01
      21    -1     0     0   502   501  0.000000000E+00  0.000000000E+00  1.329854315E+03  1.329854315E+03  0.000000000E+00  0.00000E+00  9.000E+00
      21    -1     0     0   501   511  0.000000000E+00  0.000000000E+00 -8.507092948E+02  8.507092948E+02  0.000000000E+00  0.00000E+00  9.000E+00
      25     1     1     2     0     0 -1.677332743E+02 -2.621430558E+02  5.107503844E+02  6.110191390E+02  1.250000000E+02  0.00000E+00  9.000E+00
      25     1     1     2     0     0  1.549894218E+02  2.383759998E+02  7.373601876E+02  8.001061708E+02  1.250000000E+02  0.00000E+00  9.000E+00
      21     1     1     2   502   511  1.274385250E+01  2.376705596E+01 -7.689655515E+02  7.694383004E+02  1.525878906E-05  0.00000E+00  9.000E+00
#rwgt            1           1   3.6062533238569172E-002          10       51878           0
</event>
<event>
      5   9999  3.19816E-02  7.60462E+01 -1.00000E+00  1.29424E-01
      21    -1     0     0   502   512  0.000000000E+00  0.000000000E+00  9.596075567E+02  9.596075567E+02  0.000000000E+00  0.00000E+00  9.000E+00
      21    -1     0     0   501   502  0.000000000E+00  0.000000000E+00 -1.334351592E+02  1.334351592E+02  0.000000000E+00  0.00000E+00  9.000E+00
      25     1     1     2     0     0 -1.300481531E+02  8.966239510E+01  2.198548521E+01  2.026332371E+02  1.250000000E+02  0.00000E+00  9.000E+00
      25     1     1     2     0     0  2.047873556E+02 -1.037007783E+02  3.912225386E+02  4.705016335E+02  1.250000000E+02  0.00000E+00  9.000E+00
      21     1     1     2   501   512 -7.473920252E+01  1.403838322E+01  4.129643737E+02  4.199078453E+02  0.000000000E+00  0.00000E+00  9.000E+00
#rwgt            1           1   2.6978086751237203E-002          10       52038           0
</event>
<event>
      5   9999  3.19859E-02  5.07810E+01 -1.00000E+00  1.38693E-01
      21    -1     0     0   502   501  0.000000000E+00  0.000000000E+00  3.954279492E+01  3.954279492E+01  0.000000000E+00  0.00000E+00  9.000E+00
      21    -1     0     0   501   511  0.000000000E+00  0.000000000E+00 -1.076264282E+03  1.076264282E+03  0.000000000E+00  0.00000E+00  9.000E+00
      25     1     1     2     0     0  7.857414574E+00 -1.073689674E+02 -2.216850777E+02  2.763315179E+02  1.250000000E+02  0.00000E+00  9.000E+00
      25     1     1     2     0     0  2.238887739E+01  6.657838939E+01 -6.856267411E+02  7.004591151E+02  1.250000000E+02  0.00000E+00  9.000E+00
      21     1     1     2   502   511 -3.024629197E+01  4.079057801E+01 -1.294096680E+02  1.390164436E+02  1.907348633E-06  0.00000E+00  9.000E+00
#rwgt            1           1   4.9036747895717867E-002          10       52121           0
</event>
<event>
      5   9999  3.19816E-02  5.57901E+01 -1.00000E+00  1.36414E-01
      21    -1     0     0   502   501  0.000000000E+00  0.000000000E+00  7.009179642E+02  7.009179642E+02  0.000000000E+00  0.00000E+00  9.000E+00
      21    -1     0     0   512   502  0.000000000E+00  0.000000000E+00 -2.236523129E+02  2.236523129E+02  0.000000000E+00  0.00000E+00  9.000E+00
      25     1     1     2     0     0  2.004396542E+00  1.392794157E+02  5.003046941E+02  5.341652929E+02  1.250000000E+02  0.00000E+00  9.000E+00
      25     1     1     2     0     0  3.165857407E+01 -1.837692211E+02  1.071571345E+02  2.487590067E+02  1.250000000E+02  0.00000E+00  9.000E+00
      21     1     1     2   512   501 -3.366297061E+01  4.448980544E+01 -1.301961773E+02  1.416459775E+02  0.000000000E+00  0.00000E+00  9.000E+00
#rwgt            1           1   3.0563191111401218E-002          10       52189           0
</event>
<event>
      5   9999  3.19816E-02  6.97116E+01 -1.00000E+00  1.31312E-01
      21    -1     0     0   511   501  0.000000000E+00  0.000000000E+00  4.371271925E+02  4.371271925E+02  0.000000000E+00  0.00000E+00  9.000E+00
      21    -1     0     0   501   502  0.000000000E+00  0.000000000E+00 -1.236445977E+03  1.236445977E+03  0.000000000E+00  0.00000E+00  9.000E+00
      25     1     1     2     0     0  5.044083504E+02  3.930063326E+02 -6.848870201E+02  9.452920140E+02  1.250000000E+02  0.00000E+00  9.000E+00
      25     1     1     2     0     0 -4.524493901E+02 -4.394817809E+02 -1.319042547E+02  6.564132988E+02  1.250000000E+02  0.00000E+00  9.000E+00
      21     1     1     2   511   502 -5.195896030E+01  4.647544832E+01  1.747249060E+01  7.186785638E+01  0.000000000E+00  0.00000E+00  9.000E+00
#rwgt            2          11   8.0185068068169760E-003          10       52285           0
</event>
<event>
      5   9999  3.19816E-02  5.98151E+01 -1.00000E+00  1.34775E-01
      21    -1     0     0   512   501  0.000000000E+00  0.000000000E+00  5.202724987E+02  5.202724987E+02  0.000000000E+00  0.00000E+00  9.000E+00
      21    -1     0     0   501   502  0.000000000E+00  0.000000000E+00 -7.186609780E+02  7.186609780E+02  0.000000000E+00  0.00000E+00  9.000E+00
      25     1     1     2     0     0 -2.343595270E+02 -4.466015466E+02  9.427521674E+01  5.281005073E+02  1.250000000E+02  0.00000E+00  9.000E+00
      25     1     1     2     0     0  2.754602174E+02  4.900593107E+02 -3.020203241E+02  6.502905009E+02  1.250000000E+02  0.00000E+00  9.000E+00
      21     1     1     2   512   502 -4.110069038E+01 -4.345776409E+01  9.356628143E+00  6.054246857E+01  8.760057960E-07  0.00000E+00  9.000E+00
#rwgt            1           1   3.5496185126326400E-002          10       52320           0
</event>
<event>
      5   9999  3.19816E-02  1.34073E+02 -1.00000E+00  1.18359E-01
      21    -1     0     0   502   501  0.000000000E+00  0.000000000E+00  1.188393598E+03  1.188393598E+03  0.000000000E+00  0.00000E+00  9.000E+00
      21    -1     0     0   501   511  0.000000000E+00  0.000000000E+00 -1.269377820E+02  1.269377820E+02  0.000000000E+00  0.00000E+00  9.000E+00
      25     1     1     2     0     0  9.787935655E+01 -5.423364996E+01  9.217219445E+02  9.368660525E+02  1.250000000E+02  0.00000E+00  9.000E+00
      25     1     1     2     0     0 -1.044077862E+02 -7.968039413E+01 -4.725737439E+00  1.813760834E+02  1.250000000E+02  0.00000E+00  9.000E+00
      21     1     1     2   502   511  6.528429667E+00  1.339140441E+02  1.444596091E+02  1.970892444E+02  3.814697266E-06  0.00000E+00  9.000E+00
#rwgt            1           1   3.4339002194791725E-002          10       52456           0
</event>
<event>
      5   9999  3.19816E-02  6.78583E+01 -1.00000E+00  1.31908E-01
      21    -1     0     0   502   501  0.000000000E+00  0.000000000E+00  5.084070760E+02  5.084070760E+02  0.000000000E+00  0.00000E+00  9.000E+00
      21    -1     0     0   512   502  0.000000000E+00  0.000000000E+00 -1.041196566E+02  1.041196566E+02  0.000000000E+00  0.00000E+00  9.000E+00
      25     1     1     2     0     0  1.904612315E+01  7.190666183E+01  3.869760353E+02  4.134111449E+02  1.250000000E+02  0.00000E+00  9.000E+00
      25     1     1     2     0     0 -2.671159998E-02 -6.768229226E+00  3.301582553E+01  1.294637184E+02  1.250000000E+02  0.00000E+00  9.000E+00
      21     1     1     2   512   501 -1.901941155E+01 -6.513843260E+01 -1.570444141E+01  6.965186931E+01  1.066240300E-06  0.00000E+00  9.000E+00
#rwgt            1           1   2.8473298990856967E-002          10       52531           0
</event>
<event>
      5   9999  3.19816E-02  1.35286E+02 -1.00000E+00  1.18199E-01
       2    -1     0     0   502     0  0.000000000E+00  0.000000000E+00  2.243534593E+03  2.243534593E+03  0.000000000E+00  0.00000E+00  9.000E+00
      21    -1     0     0   501   502  0.000000000E+00  0.000000000E+00 -7.991044530E+01  7.991044530E+01  0.000000000E+00  0.00000E+00  9.000E+00
      25     1     1     2     0     0 -1.017545675E+02  3.015811473E+01  4.446242554E+01  1.698982377E+02  1.250000000E+02  0.00000E+00  9.000E+00
      25     1     1     2     0     0  9.345974585E+01 -1.651890837E+02  1.639356150E+03  1.655033457E+03  1.250000000E+02  0.00000E+00  9.000E+00
       2     1     1     2   501     0  8.294821602E+00  1.350309690E+02  4.798055725E+02  4.985133439E+02  5.394796609E-06  0.00000E+00  9.000E+00
#rwgt            1           1   4.1851288582409829E-002          10       52590           0
</event>
<event>
      5   9999  3.19816E-02  7.73645E+01 -1.00000E+00  1.29058E-01
      21    -1     0     0   502   501  0.000000000E+00  0.000000000E+00  7.476960695E+01  7.476960695E+01  0.000000000E+00  0.00000E+00  9.000E+00
      21    -1     0     0   511   502  0.000000000E+00  0.000000000E+00 -1.128382896E+03  1.128382896E+03  0.000000000E+00  0.00000E+00  9.000E+00
      25     1     1     2     0     0  8.006061019E+01 -9.799220841E+01 -6.889197316E+01  1.907440122E+02  1.250000000E+02  0.00000E+00  9.000E+00
      25     1     1     2     0     0 -3.503219441E+00  8.684599637E+01 -7.489708967E+02  7.642884951E+02  1.250000000E+02  0.00000E+00  9.000E+00
      21     1     1     2   511   501 -7.655739074E+01  1.114621204E+01 -2.357504196E+02  2.481199961E+02  3.814697266E-06  0.00000E+00  9.000E+00
#rwgt            1           1   3.4013804421238400E-002          10       52643           0
</event>
<event>
      5   9999  3.19816E-02  2.97630E+01 -1.00000E+00  1.53279E-01
      21    -1     0     0   502   512  0.000000000E+00  0.000000000E+00  3.455974780E+03  3.455974780E+03  0.000000000E+00  0.00000E+00  9.000E+00
      21    -1     0     0   501   502  0.000000000E+00  0.000000000E+00 -5.397210703E+01  5.397210703E+01  0.000000000E+00  0.00000E+00  9.000E+00
      25     1     1     2     0     0 -1.422635364E+02 -3.358930708E+02  1.628267255E+03  1.673302818E+03  1.250000000E+02  0.00000E+00  9.000E+00
      25     1     1     2     0     0  1.574381613E+02  3.614971549E+02  1.351971259E+03  1.413831055E+03  1.250000000E+02  0.00000E+00  9.000E+00
      21     1     1     2   501   512 -1.517462498E+01 -2.560408411E+01  4.217641600E+02  4.228130142E+02  5.394796609E-06  0.00000E+00  9.000E+00
#rwgt            1           1   4.0420204274743243E-002          10       52760           0
</event>
<event>
      5   9999  3.19816E-02  9.39311E+01 -1.00000E+00  1.25063E-01
      21    -1     0     0   502   501  0.000000000E+00  0.000000000E+00  5.991471436E+02  5.991471436E+02  0.000000000E+00  0.00000E+00  9.000E+00
      21    -1     0     0   511   502  0.000000000E+00  0.000000000E+00 -6.844916798E+02  6.844916798E+02  0.000000000E+00  0.00000E+00  9.000E+00
      25     1     1     2     0     0  1.764630143E+02 -2.421752248E+02  1.350270935E+02  3.516324088E+02  1.250000000E+02  0.00000E+00  9.000E+00
      25     1     1     2     0     0 -2.557165866E+02  1.917576696E+02  2.675242968E+02  4.351508082E+02  1.250000000E+02  0.00000E+00  9.000E+00
      21     1     1     2   511   501  7.925357232E+01  5.041755518E+01 -4.878959265E+02  4.968556065E+02  0.000000000E+00  0.00000E+00  9.000E+00
#rwgt            1           1   2.6870398858410333E-002          10       52890           0
</event>
<event>
      5   9999  3.19816E-02  4.24961E+01 -1.00000E+00  1.43228E-01
      21    -1     0     0   502   501  0.000000000E+00  0.000000000E+00  1.286785948E+02  1.286785948E+02  0.000000000E+00  0.00000E+00  9.000E+00
      21    -1     0     0   512   502  0.000000000E+00  0.000000000E+00 -6.774188980E+02  6.774188980E+02  0.000000000E+00  0.00000E+00  9.000E+00
      25     1     1     2     0     0 -7.348861634E+01 -1.568354857E+02 -4.988090065E+02  5.426171498E+02  1.250000000E+02  0.00000E+00  9.000E+00
      25     1     1     2     0     0  4.901470867E+01  1.220943253E+02  1.903332677E+01  1.824739254E+02  1.250000000E+02  0.00000E+00  9.000E+00
      21     1     1     2   512   501  2.447390767E+01  3.474116044E+01 -6.896462347E+01  8.100641750E+01  0.000000000E+00  0.00000E+00  9.000E+00
#rwgt            1           1   2.6612766386136053E-002          10       52990           0
</event>
<event>
      5   9999  3.19816E-02  1.94189E+02 -1.00000E+00  1.12116E-01
      21    -1     0     0   502   511  0.000000000E+00  0.000000000E+00  1.110788486E+03  1.110788486E+03  0.000000000E+00  0.00000E+00  9.000E+00
      21    -1     0     0   501   502  0.000000000E+00  0.000000000E+00 -2.661083530E+02  2.661083530E+02  0.000000000E+00  0.00000E+00  9.000E+00
      25     1     1     2     0     0  1.028646698E+02  2.329306473E+02  7.518610065E+02  8.035905673E+02  1.250000000E+02  0.00000E+00  9.000E+00
      25     1     1     2     0     0  2.062455255E+01 -8.306479082E+01 -1.820016024E+02  2.368010028E+02  1.250000000E+02  0.00000E+00  9.000E+00
      21     1     1     2   501   511 -1.234892224E+02 -1.498658565E+02  2.748207289E+02  3.365052689E+02  0.000000000E+00  0.00000E+00  9.000E+00
#rwgt            1           1   2.9217973143442183E-002          10       53054           0
</event>
<event>
      5   9999  3.19816E-02  2.99396E+01 -1.00000E+00  1.53101E-01
      21    -1     0     0   512   501  0.000000000E+00  0.000000000E+00  3.022685924E+01  3.022685924E+01  0.000000000E+00  0.00000E+00  9.000E+00
      21    -1     0     0   501   502  0.000000000E+00  0.000000000E+00 -7.970666457E+02  7.970666457E+02  0.000000000E+00  0.00000E+00  9.000E+00
      25     1     1     2     0     0 -4.990234905E+01 -3.131197172E+01 -3.211690258E+02  3.496358493E+02  1.250000000E+02  0.00000E+00  9.000E+00
      25     1     1     2     0     0  6.323433121E+01  4.504545964E+00 -3.904390107E+02  4.148330901E+02  1.250000000E+02  0.00000E+00  9.000E+00
      21     1     1     2   512   502 -1.333198217E+01  2.680742576E+01 -5.523175003E+01  6.282456554E+01  0.000000000E+00  0.00000E+00  9.000E+00
#rwgt            1           1   1.3649625094200797E-002          10       53118           0
</event>
<event>
      5   9999  3.19816E-02  1.09700E+02 -1.00000E+00  1.22046E-01
      21    -1     0     0   511   501  0.000000000E+00  0.000000000E+00  4.650513946E+02  4.650513946E+02  0.000000000E+00  0.00000E+00  9.000E+00
      21    -1     0     0   501   502  0.000000000E+00  0.000000000E+00 -7.597136585E+02  7.597136585E+02  0.000000000E+00  0.00000E+00  9.000E+00
      25     1     1     2     0     0  3.296458505E+02  4.138180057E+02 -3.878460372E+02  6.678033222E+02  1.250000000E+02  0.00000E+00  9.000E+00
      25     1     1     2     0     0 -2.657704015E+02 -3.246328924E+02  5.710923488E+01  4.414825997E+02  1.250000000E+02  0.00000E+00  9.000E+00
      21     1     1     2   511   502 -6.387544899E+01 -8.918511331E+01  3.607453843E+01  1.154791312E+02  1.907348633E-06  0.00000E+00  9.000E+00
#rwgt            1           1   2.9519355835552746E-002          10       53264           0
</event>
<event>
      5   9999  3.19816E-02  3.12369E+02 -1.00000E+00  1.05025E-01
      21    -1     0     0   502   501  0.000000000E+00  0.000000000E+00  7.402645850E+02  7.402645850E+02  0.000000000E+00  0.00000E+00  9.000E+00
      21    -1     0     0   501   512  0.000000000E+00  0.000000000E+00 -1.797020060E+03  1.797020060E+03  0.000000000E+00  0.00000E+00  9.000E+00
      25     1     1     2     0     0  1.076601445E+01  2.870041014E+02 -7.343064921E+02  7.983221690E+02  1.250000000E+02  0.00000E+00  9.000E+00
      25     1     1     2     0     0 -1.058231340E+01  2.536500578E+01  6.784686234E+02  6.904346759E+02  1.250000000E+02  0.00000E+00  9.000E+00
      21     1     1     2   502   512 -1.837010482E-01 -3.123691072E+02 -1.000917606E+03  1.048527800E+03  0.000000000E+00  0.00000E+00  9.000E+00
#rwgt            1           1   3.1684608045136980E-002          10       53400           0
</event>
<event>
      5   9999  3.19816E-02  4.20070E+01 -1.00000E+00  1.43534E-01
      21    -1     0     0   502   501  0.000000000E+00  0.000000000E+00  3.187293058E+02  3.187293058E+02  0.000000000E+00  0.00000E+00  9.000E+00
      21    -1     0     0   501   511  0.000000000E+00  0.000000000E+00 -5.586294549E+02  5.586294549E+02  0.000000000E+00  0.00000E+00  9.000E+00
      25     1     1     2     0     0 -1.147456227E+02  2.401832728E+02 -4.049328751E+02  5.004499933E+02  1.250000000E+02  0.00000E+00  9.000E+00
      25     1     1     2     0     0  8.153742232E+01 -2.144578006E+02  1.943919393E+02  3.256589098E+02  1.250000000E+02  0.00000E+00  9.000E+00
      21     1     1     2   502   511  3.320820039E+01 -2.572547219E+01 -2.935921327E+01  5.124985752E+01  1.066240300E-06  0.00000E+00  9.000E+00
#rwgt            1           1   2.9267196020909075E-002          10       53516           0
</event>
<event>
      5   9999  3.19816E-02  3.46602E+02 -1.00000E+00  1.03594E-01
      21    -1     0     0   502   512  0.000000000E+00  0.000000000E+00  1.307711867E+03  1.307711867E+03  0.000000000E+00  0.00000E+00  9.000E+00
      21    -1     0     0   501   502  0.000000000E+00  0.000000000E+00 -1.411194277E+03  1.411194277E+03  0.000000000E+00  0.00000E+00  9.000E+00
      25     1     1     2     0     0 -1.526597056E+02 -7.298396592E+02 -9.017589987E+02  1.176760471E+03  1.250000000E+02  0.00000E+00  9.000E+00
      25     1     1     2     0     0  4.707287221E+02  5.921265149E+02  1.140420896E+02  7.751322066E+02  1.250000000E+02  0.00000E+00  9.000E+00
      21     1     1     2   501   512 -3.180690165E+02  1.377131443E+02  6.842344989E+02  7.670134673E+02  1.525878906E-05  0.00000E+00  9.000E+00
#rwgt            2          11   2.8101785956745388E-003          10       53711           0
</event>
<event>
      5   9999  3.19816E-02  2.15245E+02 -1.00000E+00  1.10499E-01
      21    -1     0     0   511   501  0.000000000E+00  0.000000000E+00  2.433722811E+02  2.433722811E+02  0.000000000E+00  0.00000E+00  9.000E+00
      21    -1     0     0   501   502  0.000000000E+00  0.000000000E+00 -2.452419070E+03  2.452419070E+03  0.000000000E+00  0.00000E+00  9.000E+00
      25     1     1     2     0     0  1.846848478E+02 -2.973367582E+02 -6.086814551E+02  7.131870404E+02  1.250000000E+02  0.00000E+00  9.000E+00
      25     1     1     2     0     0 -2.380605555E+02  8.881490093E+01 -1.715354105E+03  1.738569993E+03  1.250000000E+02  0.00000E+00  9.000E+00
      21     1     1     2   511   502  5.337570769E+01  2.085218573E+02  1.149887707E+02  2.440343183E+02  5.223489356E-06  0.00000E+00  9.000E+00
#rwgt            1           1   9.4961546457221532E-002          10       53776           0
</event>
<event>
      5   9999  3.19816E-02  2.65317E+02 -1.00000E+00  1.07355E-01
       1    -1     0     0   502     0  0.000000000E+00  0.000000000E+00  1.364808113E+03  1.364808113E+03  0.000000000E+00  0.00000E+00  9.000E+00
      21    -1     0     0   501   502  0.000000000E+00  0.000000000E+00 -4.867041992E+02  4.867041992E+02  0.000000000E+00  0.00000E+00  9.000E+00
      25     1     1     2     0     0  3.853565473E+02 -3.767890973E+02  1.003468582E+03  1.145881271E+03  1.250000000E+02  0.00000E+00  9.000E+00
      25     1     1     2     0     0 -3.364427463E+02  1.160204065E+02  6.004627273E+01  3.819489640E+02  1.250000000E+02  0.00000E+00  9.000E+00
       1     1     1     2   501     0 -4.891380100E+01  2.607686909E+02 -1.854109409E+02  3.236820771E+02  2.697398305E-06  0.00000E+00  9.000E+00
#rwgt            2          17   7.9762198170500463E-005          10       53819           0
</event>
<event>
      5   9999  3.19816E-02  2.61168E+02 -1.00000E+00  1.07586E-01
      21    -1     0     0   502   501  0.000000000E+00  0.000000000E+00  7.607351543E+02  7.607351543E+02  0.000000000E+00  0.00000E+00  9.000E+00
      21    -1     0     0   501   511  0.000000000E+00  0.000000000E+00 -8.113767993E+02  8.113767993E+02  0.000000000E+00  0.00000E+00  9.000E+00
      25     1     1     2     0     0 -2.037482832E+02  1.759609655E+02  6.262078482E+01  3.033512601E+02  1.250000000E+02  0.00000E+00  9.000E+00
      25     1     1     2     0     0  1.340715927E+02  7.574137454E+01  5.346172596E+02  5.702215026E+02  1.250000000E+02  0.00000E+00  9.000E+00
      21     1     1     2   502   511  6.967669053E+01 -2.517023401E+02 -6.478796894E+02  6.985391909E+02  7.629394531E-06  0.00000E+00  9.000E+00
#rwgt            1           1   2.6900573971834846E-002          10       53838           0
</event>
<event>
      5   9999  3.19816E-02  3.27704E+02 -1.00000E+00  1.04360E-01
       2    -1     0     0   502     0  0.000000000E+00  0.000000000E+00  1.716360476E+03  1.716360476E+03  0.000000000E+00  0.00000E+00  9.000E+00
      21    -1     0     0   501   502  0.000000000E+00  0.000000000E+00 -6.033760293E+02  6.033760293E+02  0.000000000E+00  0.00000E+00  9.000E+00
      25     1     1     2     0     0  1.088311496E+02  3.395414472E+02 -7.912297598E+01  3.860285726E+02  1.250000000E+02  0.00000E+00  9.000E+00
      25     1     1     2     0     0  1.219618361E+02 -5.721875516E+02 -9.481893422E+01  6.057135577E+02  1.250000000E+02  0.00000E+00  9.000E+00
       2     1     1     2   501     0 -2.307929857E+02  2.326461044E+02  1.286926357E+03  1.327994375E+03  0.000000000E+00  0.00000E+00  9.000E+00
#rwgt            2          18   2.4411895220101789E-003          10       53938           0
</event>
<event>
      5   9999  3.19816E-02  2.47091E+02 -1.00000E+00  1.08404E-01
      21    -1     0     0   502   501  0.000000000E+00  0.000000000E+00  5.428779580E+02  5.428779580E+02  0.000000000E+00  0.00000E+00  9.000E+00
       2    -1     0     0   501     0  0.000000000E+00  0.000000000E+00 -9.010705704E+02  9.010705704E+02  0.000000000E+00  0.00000E+00  9.000E+00
      25     1     1     2     0     0  1.606770211E+02  3.078758780E+02 -5.912040849E+00  3.691403711E+02  1.250000000E+02  0.00000E+00  9.000E+00
      25     1     1     2     0     0  7.344822875E+00 -1.267051208E+02  3.157557696E+02  3.625394324E+02  1.250000000E+02  0.00000E+00  9.000E+00
       2     1     1     2   502     0 -1.680218440E+02 -1.811707572E+02 -6.680363412E+02  7.122687249E+02  1.078959322E-05  0.00000E+00  9.000E+00
#rwgt            1           1   2.9098404353181784E-002          10       53957           0
</event>
<event>
      5   9999  3.19816E-02  3.05523E+01 -1.00000E+00  1.52492E-01
      21    -1     0     0   502   501  0.000000000E+00  0.000000000E+00  5.690511400E+02  5.690511400E+02  0.000000000E+00  0.00000E+00  9.000E+00
      21    -1     0     0   511   502  0.000000000E+00  0.000000000E+00 -3.338582918E+02  3.338582918E+02  0.000000000E+00  0.00000E+00  9.000E+00
      25     1     1     2     0     0 -2.883929796E+02 -1.656161914E+02 -5.160325047E+01  3.590085361E+02  1.250000000E+02  0.00000E+00  9.000E+00
      25     1     1     2     0     0  2.582406282E+02  1.705438342E+02  3.438393736E+02  4.791909184E+02  1.250000000E+02  0.00000E+00  9.000E+00
      21     1     1     2   511   501  3.015235136E+01 -4.927642780E+00 -5.704327487E+01  6.470997732E+01  1.168007728E-06  0.00000E+00  9.000E+00
#rwgt            1           1   2.8043822883139124E-002          10       54008           0
</event>
<event>
      5   9999  3.19816E-02  7.94326E+01 -1.00000E+00  1.28499E-01
      21    -1     0     0   502   501  0.000000000E+00  0.000000000E+00  7.190533404E+02  7.190533404E+02  0.000000000E+00  0.00000E+00  9.000E+00
      21    -1     0     0   501   512  0.000000000E+00  0.000000000E+00 -1.137555992E+03  1.137555992E+03  0.000000000E+00  0.00000E+00  9.000E+00
      25     1     1     2     0     0  5.726763587E+02 -4.117411324E+02 -6.498571776E+02  9.671754356E+02  1.250000000E+02  0.00000E+00  9.000E+00
      25     1     1     2     0     0 -6.401272437E+02  3.697897587E+02  2.752455406E+02  7.986817022E+02  1.250000000E+02  0.00000E+00  9.000E+00
      21     1     1     2   502   512  6.745088503E+01  4.195137374E+01 -4.389101444E+01  9.075219445E+01  1.507891493E-06  0.00000E+00  9.000E+00
#rwgt            1           1   3.7950477078720304E-002          10       54173           0
</event>
<event>
      5   9999  3.19816E-02  7.66589E+01 -1.00000E+00  1.29253E-01
      21    -1     0     0   502   501  0.000000000E+00  0.000000000E+00  1.038017894E+03  1.038017894E+03  0.000000000E+00  0.00000E+00  9.000E+00
      21    -1     0     0   501   511  0.000000000E+00  0.000000000E+00 -6.245621934E+01  6.245621934E+01  0.000000000E+00  0.00000E+00  9.000E+00
      25     1     1     2     0     0  1.169618187E+00 -3.469485778E+01  7.903715070E+02  8.009477013E+02  1.250000000E+02  0.00000E+00  9.000E+00
      25     1     1     2     0     0 -3.022965048E+01 -3.624243118E+01  1.779482263E+02  2.225262160E+02  1.250000000E+02  0.00000E+00  9.000E+00
      21     1     1     2   502   511  2.906003229E+01  7.093728897E+01  7.241941201E+00  7.700019581E+01  1.351330763E-06  0.00000E+00  9.000E+00
#rwgt            1           1   2.5862457676271464E-002          10       54279           0
</event>
<event>
      5   9999  3.19816E-02  3.19170E+01 -1.00000E+00  1.51195E-01
      21    -1     0     0   502   501  0.000000000E+00  0.000000000E+00  1.566468073E+02  1.566468073E+02  0.000000000E+00  0.00000E+00  9.000E+00
      21    -1     0     0   512   502  0.000000000E+00  0.000000000E+00 -3.000955366E+02  3.000955366E+02  0.000000000E+00  0.00000E+00  9.000E+00
      25     1     1     2     0     0  8.362607455E+01  1.592465595E+01 -2.067880566E+02  2.561898034E+02  1.250000000E+02  0.00000E+00  9.000E+00
      25     1     1     2     0     0 -7.795403569E+01  1.548427533E+01  7.567104251E+01  1.663361089E+02  1.250000000E+02  0.00000E+00  9.000E+00
      21     1     1     2   512   501 -5.672038858E+00 -3.140893128E+01 -1.233171521E+01  3.421643156E+01  2.920019320E-07  0.00000E+00  9.000E+00
#rwgt            1           1   2.4121064573758635E-002          10       54307           0
</event>
<event>
      5   9999  3.19816E-02  1.69786E+01 -1.00000E+00  1.72460E-01
      21    -1     0     0   511   501  0.000000000E+00  0.000000000E+00  3.368483050E+02  3.368483050E+02  0.000000000E+00  0.00000E+00  9.000E+00
      21    -1     0     0   501   502  0.000000000E+00  0.000000000E+00 -1.198244669E+03  1.198244669E+03  0.000000000E+00  0.00000E+00  9.000E+00
      25     1     1     2     0     0  3.198398876E+02 -2.405854628E+02 -9.599415276E+02  1.047516900E+03  1.250000000E+02  0.00000E+00  9.000E+00
      25     1     1     2     0     0 -3.125251332E+02  2.252633176E+02  1.816930094E+01  4.054264972E+02  1.250000000E+02  0.00000E+00  9.000E+00
      21     1     1     2   511   502 -7.314754420E+00  1.532214516E+01  8.037586251E+01  8.214957723E+01  2.336015456E-06  0.00000E+00  9.000E+00
#rwgt            1           1   2.9511022796879258E-002          10       54429           0
</event>
<event>
      5   9999  3.19816E-02  2.70756E+02 -1.00000E+00  1.07060E-01
      -2    -1     0     0     0   501  0.000000000E+00  0.000000000E+00  6.520896668E+01  6.520896668E+01  0.000000000E+00  0.00000E+00  9.000E+00
      21    -1     0     0   501   502  0.000000000E+00  0.000000000E+00 -2.757318251E+03  2.757318251E+03  0.000000000E+00  0.00000E+00  9.000E+00
      25     1     1     2     0     0  7.147341570E+01 -2.588367016E+02 -1.309433178E+03  1.342514482E+03  1.250000000E+02  0.00000E+00  9.000E+00
      25     1     1     2     0     0 -1.875663472E+02  1.423227540E+01 -8.859767143E+02  9.143103579E+02  1.250000000E+02  0.00000E+00  9.000E+00
      -2     1     1     2     0   502  1.160929315E+02  2.446044262E+02 -4.966993925E+02  5.657023781E+02  5.394796609E-06  0.00000E+00  9.000E+00
#rwgt            2           4   1.3709942563991327E-004          10       54693           0
</event>
<event>
      5   9999  3.19816E-02  1.39449E+02 -1.00000E+00  1.17663E-01
      21    -1     0     0   502   501  0.000000000E+00  0.000000000E+00  2.182685464E+02  2.182685464E+02  0.000000000E+00  0.00000E+00  9.000E+00
       2    -1     0     0   501     0  0.000000000E+00  0.000000000E+00 -5.057306951E+03  5.057306951E+03  0.000000000E+00  0.00000E+00  9.000E+00
      25     1     1     2     0     0 -8.420429619E+02  3.589534443E+02 -1.591940073E+03  1.840592872E+03  1.250000000E+02  0.00000E+00  9.000E+00
      25     1     1     2     0     0  7.741367350E+02 -2.371558129E+02 -1.759639587E+03  1.941001556E+03  1.250000000E+02  0.00000E+00  9.000E+00
       2     1     1     2   502     0  6.790622697E+01 -1.217976314E+02 -1.487458745E+03  1.493981070E+03  3.051757812E-05  0.00000E+00  9.000E+00
#rwgt            1           1   4.6477533986414667E-002          10       54727           0
</event>
<event>
      5   9999  3.19816E-02  9.54535E+01 -1.00000E+00  1.24744E-01
      21    -1     0     0   502   501  0.000000000E+00  0.000000000E+00  3.704555158E+02  3.704555158E+02  0.000000000E+00  0.00000E+00  9.000E+00
      21    -1     0     0   511   502  0.000000000E+00  0.000000000E+00 -3.427484940E+02  3.427484940E+02  0.000000000E+00  0.00000E+00  9.000E+00
      25     1     1     2     0     0  1.169646463E+02  1.016880236E+01  2.581890902E+02  3.099528018E+02  1.250000000E+02  0.00000E+00  9.000E+00
      25     1     1     2     0     0 -8.417888781E+01 -9.981515303E+01 -3.277470290E+01  1.837071884E+02  1.250000000E+02  0.00000E+00  9.000E+00
      21     1     1     2   511   501 -3.278575851E+01  8.964635067E+01 -1.977073655E+02  2.195440196E+02  2.697398305E-06  0.00000E+00  9.000E+00
#rwgt            1           1   3.0369391309995452E-002          10       54844           0
</event>
<event>
      5   9999  3.19816E-02  5.70848E+00 -1.00000E+00  2.28884E-01
      21    -1     0     0   502   501  0.000000000E+00  0.000000000E+00  1.421980416E+03  1.421980416E+03  0.000000000E+00  0.00000E+00  9.000E+00
      21    -1     0     0   501   512  0.000000000E+00  0.000000000E+00 -4.251345710E+01  4.251345710E+01  0.000000000E+00  0.00000E+00  9.000E+00
      25     1     1     2     0     0 -1.245567726E+02  4.390510313E+01  1.162416303E+03  1.176553743E+03  1.250000000E+02  0.00000E+00  9.000E+00
      25     1     1     2     0     0  1.189953436E+02 -4.261776956E+01  2.188533130E+02  2.819537882E+02  1.250000000E+02  0.00000E+00  9.000E+00
      21     1     1     2   502   512  5.561428989E+00 -1.287333569E+00 -1.802657220E+00  5.986342220E+00  1.365713982E-07  0.00000E+00  9.000E+00
#rwgt            1           1   4.1074978501284165E-002          10       54949           0
</event>
<event>
      5   9999  3.19816E-02  2.62650E+01 -1.00000E+00  1.57162E-01
      21    -1     0     0   502   501  0.000000000E+00  0.000000000E+00  3.962104030E+02  3.962104030E+02  0.000000000E+00  0.00000E+00  9.000E+00
      21    -1     0     0   501   511  0.000000000E+00  0.000000000E+00 -2.279018614E+02  2.279018614E+02  0.000000000E+00  0.00000E+00  9.000E+00
      25     1     1     2     0     0 -9.892210923E+01  7.430445660E+01  3.233199234E+02  3.680591105E+02  1.250000000E+02  0.00000E+00  9.000E+00
      25     1     1     2     0     0  7.670117772E+01 -8.830737498E+01 -1.531905835E+02  2.297250923E+02  1.250000000E+02  0.00000E+00  9.000E+00
      21     1     1     2   502   511  2.222093151E+01  1.400291838E+01 -1.820798304E+00  2.632806158E+01  5.763494851E-07  0.00000E+00  9.000E+00
#rwgt            1           1   2.9280267082729936E-002          10       55173           0
</event>
<event>
      5   9999  3.19816E-02  5.89296E+01 -1.00000E+00  1.35122E-01
      21    -1     0     0   502   501  0.000000000E+00  0.000000000E+00  6.440250179E+02  6.440250179E+02  0.000000000E+00  0.00000E+00  9.000E+00
      21    -1     0     0   512   502  0.000000000E+00  0.000000000E+00 -4.537622934E+02  4.537622934E+02  0.000000000E+00  0.00000E+00  9.000E+00
      25     1     1     2     0     0  1.449747783E+02  2.011165881E+01 -3.415021342E+02  3.920087662E+02  1.250000000E+02  0.00000E+00  9.000E+00
      25     1     1     2     0     0 -9.660225683E+01  1.354544042E+01  5.970999183E+02  6.177934829E+02  1.250000000E+02  0.00000E+00  9.000E+00
      21     1     1     2   512   501 -4.837252145E+01 -3.365709923E+01 -6.533505960E+01  8.798506221E+01  9.536743164E-07  0.00000E+00  9.000E+00
#rwgt            1           1   2.7539416320002914E-002          10       55303           0
</event>
<event>
      5   9999  3.19816E-02  1.19530E+01 -1.00000E+00  1.87207E-01
      21    -1     0     0   511   501  0.000000000E+00  0.000000000E+00  1.307165907E+02  1.307165907E+02  0.000000000E+00  0.00000E+00  9.000E+00
      21    -1     0     0   501   502  0.000000000E+00  0.000000000E+00 -1.429218482E+03  1.429218482E+03  0.000000000E+00  0.00000E+00  9.000E+00
      25     1     1     2     0     0  3.615411088E+02  8.815838849E+01 -8.530870254E+02  9.390773918E+02  1.250000000E+02  0.00000E+00  9.000E+00
      25     1     1     2     0     0 -3.588800523E+02 -9.981144376E+01 -4.580374070E+02  6.034736800E+02  1.250000000E+02  0.00000E+00  9.000E+00
      21     1     1     2   511   502 -2.661056531E+00  1.165305527E+01  1.262254148E+01  1.738400047E+01  6.307962682E-07  0.00000E+00  9.000E+00
#rwgt            1           1   3.0743475373439490E-002          10       55440           0
</event>
<event>
      5   9999  3.19816E-02  2.78701E+02 -1.00000E+00  1.06642E-01
       1    -1     0     0   502     0  0.000000000E+00  0.000000000E+00  3.129186376E+02  3.129186376E+02  0.000000000E+00  0.00000E+00  9.000E+00
      21    -1     0     0   501   502  0.000000000E+00  0.000000000E+00 -6.116409122E+02  6.116409122E+02  0.000000000E+00  0.00000E+00  9.000E+00
      25     1     1     2     0     0 -2.059573428E+01  8.577765414E+01  6.781220714E+01  1.673483960E+02  1.250000000E+02  0.00000E+00  9.000E+00
      25     1     1     2     0     0 -5.563693224E+01 -3.538498174E+02 -1.673640182E+02  4.146575408E+02  1.250000000E+02  0.00000E+00  9.000E+00
       1     1     1     2   501     0  7.623266652E+01  2.680721633E+02 -1.991704635E+02  3.425536129E+02  6.607249480E-06  0.00000E+00  9.000E+00
#rwgt            1           1   2.7858364908840066E-002          10       55630           0
</event>
<event>
      5   9999  3.19816E-02  2.49342E+01 -1.00000E+00  1.58837E-01
      21    -1     0     0   502   501  0.000000000E+00  0.000000000E+00  3.258088649E+01  3.258088649E+01  0.000000000E+00  0.00000E+00  9.000E+00
      21    -1     0     0   501   511  0.000000000E+00  0.000000000E+00 -3.745128324E+03  3.745128324E+03  0.000000000E+00  0.00000E+00  9.000E+00
      25     1     1     2     0     0 -8.247086838E+01  1.247201773E+02 -2.952956265E+02  3.538093750E+02  1.250000000E+02  0.00000E+00  9.000E+00
      25     1     1     2     0     0  5.754226937E+01 -1.241911973E+02 -2.788736476E+03  2.794890105E+03  1.250000000E+02  0.00000E+00  9.000E+00
      21     1     1     2   502   511  2.492859901E+01 -5.289799612E-01 -6.285153349E+02  6.290097305E+02  1.078959322E-05  0.00000E+00  9.000E+00
#rwgt            1           1   1.3055979843185536E-002          10       55667           0
</event>
<event>
      5   9999  3.19816E-02  8.04072E+01 -1.00000E+00  1.28243E-01
      21    -1     0     0   502   501  0.000000000E+00  0.000000000E+00  3.585940333E+02  3.585940333E+02  0.000000000E+00  0.00000E+00  9.000E+00
      21    -1     0     0   512   502  0.000000000E+00  0.000000000E+00 -2.882701055E+02  2.882701055E+02  0.000000000E+00  0.00000E+00  9.000E+00
      25     1     1     2     0     0  2.044385094E+01 -3.401435548E+01  2.411985000E+02  2.745480719E+02  1.250000000E+02  0.00000E+00  9.000E+00
      25     1     1     2     0     0  2.089116539E+01  1.029834809E+02  2.064678157E+01  1.646005095E+02  1.250000000E+02  0.00000E+00  9.000E+00
      21     1     1     2   512   501 -4.133501633E+01 -6.896912540E+01 -1.915213538E+02  2.077155574E+02  2.697398305E-06  0.00000E+00  9.000E+00
#rwgt            1           1   2.8291962446957634E-002          10       55830           0
</event>
<event>
      5   9999  3.19816E-02  2.30448E+01 -1.00000E+00  1.61446E-01
      21    -1     0     0   502   501  0.000000000E+00  0.000000000E+00  1.336403434E+03  1.336403434E+03  0.000000000E+00  0.00000E+00  9.000E+00
      21    -1     0     0   501   511  0.000000000E+00  0.000000000E+00 -1.873908515E+02  1.873908515E+02  0.000000000E+00  0.00000E+00  9.000E+00
      25     1     1     2     0     0 -2.219439229E+02 -2.272619788E+02  1.127317382E+03  1.177869514E+03  1.250000000E+02  0.00000E+00  9.000E+00
      25     1     1     2     0     0  2.050918114E+02  2.115436060E+02  2.992206592E+01  3.214555620E+02  1.250000000E+02  0.00000E+00  9.000E+00
      21     1     1     2   502   511  1.685211150E+01  1.571837283E+01 -8.226865357E+00  2.446920963E+01  2.665600750E-07  0.00000E+00  9.000E+00
#rwgt            1           1   2.7129665811166669E-002          10       55906           0
</event>
<event>
      5   9999  3.19816E-02  5.47189E+01 -1.00000E+00  1.36877E-01
      21    -1     0     0   502   512  0.000000000E+00  0.000000000E+00  1.279351446E+02  1.279351446E+02  0.000000000E+00  0.00000E+00  9.000E+00
      21    -1     0     0   501   502  0.000000000E+00  0.000000000E+00 -7.399061005E+02  7.399061005E+02  0.000000000E+00  0.00000E+00  9.000E+00
      25     1     1     2     0     0  1.279808032E+02 -8.262105283E+00 -6.275315143E+02  6.525857414E+02  1.250000000E+02  0.00000E+00  9.000E+00
      25     1     1     2     0     0 -7.510924833E+01  2.236005999E+01  4.350377684E+01  1.538146614E+02  1.250000000E+02  0.00000E+00  9.000E+00
      21     1     1     2   501   512 -5.287155485E+01 -1.409795471E+01 -2.794321843E+01  6.144084224E+01  8.920806376E-07  0.00000E+00  9.000E+00
#rwgt            1           1   2.6996202069571269E-002          10       56088           0
</event>
<event>
      5   9999  3.19816E-02  6.91892E+01 -1.00000E+00  1.31477E-01
      -2    -1     0     0     0   501  0.000000000E+00  0.000000000E+00  8.020295834E+02  8.020295834E+02  0.000000000E+00  0.00000E+00  9.000E+00
      21    -1     0     0   501   502  0.000000000E+00  0.000000000E+00 -5.385560810E+02  5.385560810E+02  0.000000000E+00  0.00000E+00  9.000E+00
      25     1     1     2     0     0  3.250470581E+02 -5.019220345E+02 -9.873718863E+01  6.188338639E+02  1.250000000E+02  0.00000E+00  9.000E+00
      25     1     1     2     0     0 -2.724890353E+02  4.569242656E+02  2.791883030E+02  6.136783909E+02  1.250000000E+02  0.00000E+00  9.000E+00
      -2     1     1     2     0   502 -5.255802278E+01  4.499776897E+01  8.302238790E+01  1.080734096E+02  9.536743164E-07  0.00000E+00  9.000E+00
#rwgt            1           1   3.2253286458651782E-002          10       56210           0
</event>
<event>
      5   9999  3.19816E-02  1.10405E+01 -1.00000E+00  1.90916E-01
      21    -1     0     0   511   501  0.000000000E+00  0.000000000E+00  1.545606013E+02  1.545606013E+02  0.000000000E+00  0.00000E+00  9.000E+00
      21    -1     0     0   501   502  0.000000000E+00  0.000000000E+00 -5.252574854E+02  5.252574854E+02  0.000000000E+00  0.00000E+00  9.000E+00
      25     1     1     2     0     0  3.826368885E+01 -2.353499166E+02 -8.268985670E+01  2.816315066E+02  1.250000000E+02  0.00000E+00  9.000E+00
      25     1     1     2     0     0 -3.504624737E+01  2.247886837E+02 -2.871850916E+02  3.871155753E+02  1.250000000E+02  0.00000E+00  9.000E+00
      21     1     1     2   511   502 -3.217441483E+00  1.056123281E+01 -8.219357660E-01  1.107100477E+01  1.788139343E-07  0.00000E+00  9.000E+00
#rwgt            1           1   2.6433635608253851E-002          10       56310           0
</event>
<event>
      5   9999  3.19816E-02  1.21128E+02 -1.00000E+00  1.20196E-01
      21    -1     0     0   502   501  0.000000000E+00  0.000000000E+00  1.329768309E+03  1.329768309E+03  0.000000000E+00  0.00000E+00  9.000E+00
      21    -1     0     0   512   502  0.000000000E+00  0.000000000E+00 -3.673111654E+02  3.673111654E+02  0.000000000E+00  0.00000E+00  9.000E+00
      25     1     1     2     0     0  1.523604068E+02 -1.064803944E+02  1.204513941E+03  1.225165540E+03  1.250000000E+02  0.00000E+00  9.000E+00
      25     1     1     2     0     0 -1.081780048E+02  2.192630213E+02 -1.190950707E+02  2.993115252E+02  1.250000000E+02  0.00000E+00  9.000E+00
      21     1     1     2   512   501 -4.418240195E+01 -1.127826270E+02 -1.229617260E+02  1.726024092E+02  3.568322551E-06  0.00000E+00  9.000E+00
#rwgt            1           1   2.8498535588252393E-002          10       56509           0
</event>
<event>
      5   9999  3.19816E-02  2.27360E+01 -1.00000E+00  1.61902E-01
      21    -1     0     0   502   501  0.000000000E+00  0.000000000E+00  8.515862004E+02  8.515862004E+02  0.000000000E+00  0.00000E+00  9.000E+00
      21    -1     0     0   501   511  0.000000000E+00  0.000000000E+00 -2.391895830E+02  2.391895830E+02  0.000000000E+00  0.00000E+00  9.000E+00
      25     1     1     2     0     0 -7.650457621E+01  3.688575642E+02  7.154223931E+01  4.033015558E+02  1.250000000E+02  0.00000E+00  9.000E+00
      25     1     1     2     0     0  9.376374246E+01 -3.540573995E+02  5.404620129E+02  6.647348862E+02  1.250000000E+02  0.00000E+00  9.000E+00
      21     1     1     2   502   511 -1.725916625E+01 -1.480016476E+01  3.923650983E-01  2.273934139E+01  5.134688041E-07  0.00000E+00  9.000E+00
#rwgt            1           1   2.9288765266279274E-002          10       56609           0
</event>
<event>
      5   9999  3.19816E-02  8.91806E+01 -1.00000E+00  1.26107E-01
      21    -1     0     0   502   501  0.000000000E+00  0.000000000E+00  1.225313544E+03  1.225313544E+03  0.000000000E+00  0.00000E+00  9.000E+00
      -2    -1     0     0     0   502  0.000000000E+00  0.000000000E+00 -5.004664982E+02  5.004664982E+02  0.000000000E+00  0.00000E+00  9.000E+00
      25     1     1     2     0     0  2.861378037E+01  3.210568279E+02  5.556969300E+02  6.544618501E+02  1.250000000E+02  0.00000E+00  9.000E+00
      25     1     1     2     0     0  2.587337225E+01 -2.504570716E+02  5.833909297E+02  6.475864057E+02  1.250000000E+02  0.00000E+00  9.000E+00
      -2     1     1     2     0   501 -5.448715262E+01 -7.059975635E+01 -4.142408135E+02  4.237317866E+02  5.394796609E-06  0.00000E+00  9.000E+00
#rwgt            1           1   2.7142260738297619E-002          10       56819           0
</event>
<event>
      5   9999  3.19816E-02  4.04803E+01 -1.00000E+00  1.44519E-01
      21    -1     0     0   511   501  0.000000000E+00  0.000000000E+00  1.824047074E+02  1.824047074E+02  0.000000000E+00  0.00000E+00  9.000E+00
      21    -1     0     0   501   502  0.000000000E+00  0.000000000E+00 -1.113323768E+03  1.113323768E+03  0.000000000E+00  0.00000E+00  9.000E+00
      25     1     1     2     0     0 -1.594269457E+02 -2.051450336E+02 -3.882129899E+02  4.835656743E+02  1.250000000E+02  0.00000E+00  9.000E+00
      25     1     1     2     0     0  1.322302146E+02  1.751617749E+02 -6.500752313E+02  6.974161479E+02  1.250000000E+02  0.00000E+00  9.000E+00
      21     1     1     2   511   502  2.719673107E+01  2.998325874E+01  1.073691601E+02  1.147466536E+02  2.336015456E-06  0.00000E+00  9.000E+00
#rwgt            1           1   2.9714423848657901E-002          10       56887           0
</event>
<event>
      5   9999  3.19816E-02  6.78045E+01 -1.00000E+00  1.31925E-01
      21    -1     0     0   502   501  0.000000000E+00  0.000000000E+00  2.780223836E+02  2.780223836E+02  0.000000000E+00  0.00000E+00  9.000E+00
      21    -1     0     0   512   502  0.000000000E+00  0.000000000E+00 -3.334157872E+02  3.334157872E+02  0.000000000E+00  0.00000E+00  9.000E+00
      25     1     1     2     0     0  4.595338952E+01 -1.368900792E+02 -1.108267451E+02  2.208125341E+02  1.250000000E+02  0.00000E+00  9.000E+00
      25     1     1     2     0     0 -1.006262570E+02  9.678607225E+01  1.729120337E+02  2.549838403E+02  1.250000000E+02  0.00000E+00  9.000E+00
      21     1     1     2   512   501  5.467286750E+01  4.010400692E+01 -1.174786922E+02  1.356417964E+02  1.907348633E-06  0.00000E+00  9.000E+00
#rwgt            1           1   2.4149545365348375E-002          10       56951           0
</event>
<event>
      5   9999  3.19816E-02  3.60677E+02 -1.00000E+00  1.03056E-01
       1    -1     0     0   502     0  0.000000000E+00  0.000000000E+00  2.182764178E+02  2.182764178E+02  0.000000000E+00  0.00000E+00  9.000E+00
      21    -1     0     0   501   502  0.000000000E+00  0.000000000E+00 -1.727410232E+03  1.727410232E+03  0.000000000E+00  0.00000E+00  9.000E+00
      25     1     1     2     0     0  1.361078414E+02 -1.398430987E+02 -1.707215317E+02  2.878407166E+02  1.250000000E+02  0.00000E+00  9.000E+00
      25     1     1     2     0     0  2.102734034E+02  3.930591608E+01 -1.265944120E+03  1.289960997E+03  1.250000000E+02  0.00000E+00  9.000E+00
       1     1     1     2   501     0 -3.463812448E+02  1.005371826E+02 -7.246816302E+01  3.678849365E+02  4.573661350E-06  0.00000E+00  9.000E+00
#rwgt            2          17   2.7289398978301132E-004          10       57024           0
</event>
<event>
      5   9999  3.19816E-02  1.16676E+01 -1.00000E+00  1.88320E-01
      21    -1     0     0   502   501  0.000000000E+00  0.000000000E+00  1.299142701E+02  1.299142701E+02  0.000000000E+00  0.00000E+00  9.000E+00
      21    -1     0     0   501   511  0.000000000E+00  0.000000000E+00 -9.041913597E+02  9.041913597E+02  0.000000000E+00  0.00000E+00  9.000E+00
      25     1     1     2     0     0  1.035360814E+02  1.132053535E+02  2.515855156E+01  1.994821419E+02  1.250000000E+02  0.00000E+00  9.000E+00
      25     1     1     2     0     0 -1.119300422E+02 -1.213093645E+02 -5.976137412E+02  6.324646077E+02  1.250000000E+02  0.00000E+00  9.000E+00
      21     1     1     2   502   511  8.393960888E+00  8.104010979E+00 -2.018218999E+02  2.021588802E+02  2.697398305E-06  0.00000E+00  9.000E+00
#rwgt            1           1   2.6663654930980576E-002          10       57043           0
</event>
<event>
      5   9999  3.19816E-02  3.32693E+02 -1.00000E+00  1.04153E-01
      21    -1     0     0   502   512  0.000000000E+00  0.000000000E+00  1.395886025E+03  1.395886025E+03  0.000000000E+00  0.00000E+00  9.000E+00
      21    -1     0     0   501   502  0.000000000E+00  0.000000000E+00 -8.572177268E+02  8.572177268E+02  0.000000000E+00  0.00000E+00  9.000E+00
      25     1     1     2     0     0  5.572047054E+02 -4.897713229E+02  1.032883375E+02  7.593724469E+02  1.250000000E+02  0.00000E+00  9.000E+00
      25     1     1     2     0     0 -6.961356517E+02  7.920675758E+02  1.862428515E+02  1.078094286E+03  1.250000000E+02  0.00000E+00  9.000E+00
      21     1     1     2   501   512  1.389309463E+02 -3.022962528E+02  2.491371096E+02  4.156370191E+02  0.000000000E+00  0.00000E+00  9.000E+00
#rwgt            2          11   4.6438409603512107E-003          10       57282           0
</event>
<event>
      5   9999  3.19816E-02  1.68567E+02 -1.00000E+00  1.14420E-01
      21    -1     0     0   502   511  0.000000000E+00  0.000000000E+00  4.569179826E+02  4.569179826E+02  0.000000000E+00  0.00000E+00  9.000E+00
      21    -1     0     0   501   502  0.000000000E+00  0.000000000E+00 -5.218826820E+02  5.218826820E+02  0.000000000E+00  0.00000E+00  9.000E+00
      25     1     1     2     0     0 -3.493078551E+01  1.461510546E+02  2.048866822E+02  2.831675177E+02  1.250000000E+02  0.00000E+00  9.000E+00
      25     1     1     2     0     0  1.131119585E+02 -2.954914432E+02 -3.675284648E+02  5.008110228E+02  1.250000000E+02  0.00000E+00  9.000E+00
      21     1     1     2   501   511 -7.818117296E+01  1.493403886E+02  9.767708310E+01  1.948221241E+02  2.697398305E-06  0.00000E+00  9.000E+00
#rwgt            1           1   2.7348921666278895E-002          10       57332           0
</event>
<event>
      5   9999  3.19816E-02  1.07494E+02 -1.00000E+00  1.22433E-01
      21    -1     0     0   512   501  0.000000000E+00  0.000000000E+00  1.246032189E+03  1.246032189E+03  0.000000000E+00  0.00000E+00  9.000E+00
      21    -1     0     0   501   502  0.000000000E+00  0.000000000E+00 -1.051206816E+02  1.051206816E+02  0.000000000E+00  0.00000E+00  9.000E+00
      25     1     1     2     0     0  2.636679577E+01 -9.515327617E+01  3.787644442E+02  4.108976249E+02  1.250000000E+02  0.00000E+00  9.000E+00
      25     1     1     2     0     0  3.557779688E+01  7.302222472E+00 -3.587765304E+01  1.350233612E+02  1.250000000E+02  0.00000E+00  9.000E+00
      21     1     1     2   512   502 -6.194459265E+01  8.785105370E+01  7.980247165E+02  8.052318848E+02  0.000000000E+00  0.00000E+00  9.000E+00
#rwgt            1           1   2.6820971428127994E-002          10       57386           0
</event>
<event>
      5   9999  3.19816E-02  3.54282E+01 -1.00000E+00  1.48187E-01
      21    -1     0     0   511   501  0.000000000E+00  0.000000000E+00  5.672573037E+02  5.672573037E+02  0.000000000E+00  0.00000E+00  9.000E+00
      21    -1     0     0   501   502  0.000000000E+00  0.000000000E+00 -8.322679617E+02  8.322679617E+02  0.000000000E+00  0.00000E+00  9.000E+00
      25     1     1     2     0     0 -5.719568455E+02  2.855333844E+02 -3.253073336E+02  7.280891484E+02  1.250000000E+02  0.00000E+00  9.000E+00
      25     1     1     2     0     0  5.365314116E+02 -2.859787092E+02  2.467390578E+01  6.211952828E+02  1.250000000E+02  0.00000E+00  9.000E+00
      21     1     1     2   511   502  3.542543396E+01  4.453248735E-01  3.562276989E+01  5.024083419E+01  6.743495762E-07  0.00000E+00  9.000E+00
#rwgt            1           1   3.1045844228923352E-002          10       57479           0
</event>
<event>
      5   9999  3.19816E-02  3.51179E+02 -1.00000E+00  1.03416E-01
      21    -1     0     0   502   512  0.000000000E+00  0.000000000E+00  2.450103617E+03  2.450103617E+03  0.000000000E+00  0.00000E+00  9.000E+00
      21    -1     0     0   501   502  0.000000000E+00  0.000000000E+00 -1.310205202E+03  1.310205202E+03  0.000000000E+00  0.00000E+00  9.000E+00
      25     1     1     2     0     0  4.052096539E+02 -6.276921880E+02  7.197350753E+02  1.044909530E+03  1.250000000E+02  0.00000E+00  9.000E+00
      25     1     1     2     0     0 -5.405577678E+01  6.319309805E+02 -1.033994298E+03  1.219437575E+03  1.250000000E+02  0.00000E+00  9.000E+00
      21     1     1     2   501   512 -3.511538771E+02 -4.238792536E+00  1.454157639E+03  1.495961714E+03  0.000000000E+00  0.00000E+00  9.000E+00
#rwgt            2          11   1.1522074699363664E-003          10       57788           0
</event>
<event>
      5   9999  3.19816E-02  4.58598E+01 -1.00000E+00  1.41252E-01
      21    -1     0     0   502   501  0.000000000E+00  0.000000000E+00  1.399560134E+03  1.399560134E+03  0.000000000E+00  0.00000E+00  9.000E+00
      21    -1     0     0   501   511  0.000000000E+00  0.000000000E+00 -4.268230190E+01  4.268230190E+01  0.000000000E+00  0.00000E+00  9.000E+00
      25     1     1     2     0     0 -7.592305294E+01  8.064576143E+01  1.153237169E+03  1.165267788E+03  1.250000000E+02  0.00000E+00  9.000E+00
      25     1     1     2     0     0  5.324302497E+01 -4.078677657E+01  1.521004076E+02  2.079853717E+02  1.250000000E+02  0.00000E+00  9.000E+00
      21     1     1     2   502   511  2.268002797E+01 -3.985898486E+01  5.154025526E+01  6.898927637E+01  1.168007728E-06  0.00000E+00  9.000E+00
#rwgt            1           1   2.5198871458662297E-002          10       57853           0
</event>
<event>
      5   9999  3.19816E-02  1.81483E+01 -1.00000E+00  1.69927E-01
      21    -1     0     0   502   512  0.000000000E+00  0.000000000E+00  2.610196696E+02  2.610196696E+02  0.000000000E+00  0.00000E+00  9.000E+00
      21    -1     0     0   501   502  0.000000000E+00  0.000000000E+00 -7.818009363E+02  7.818009363E+02  0.000000000E+00  0.00000E+00  9.000E+00
      25     1     1     2     0     0 -9.719163612E+01 -3.667329072E+02 -4.643292141E+02  6.125078436E+02  1.250000000E+02  0.00000E+00  9.000E+00
      25     1     1     2     0     0  7.921817799E+01  3.692458841E+02 -7.450474789E+01  4.047147144E+02  1.250000000E+02  0.00000E+00  9.000E+00
      21     1     1     2   501   512  1.797345813E+01 -2.512976859E+00  1.805269534E+01  2.559804795E+01  4.768371582E-07  0.00000E+00  9.000E+00
#rwgt            1           1   2.6976945821766723E-002          10       57920           0
</event>
<event>
      5   9999  3.19816E-02  3.23105E+01 -1.00000E+00  1.50835E-01
      21    -1     0     0   502   501  0.000000000E+00  0.000000000E+00  1.072113682E+03  1.072113682E+03  0.000000000E+00  0.00000E+00  9.000E+00
      21    -1     0     0   501   511  0.000000000E+00  0.000000000E+00 -2.071805218E+02  2.071805218E+02  0.000000000E+00  0.00000E+00  9.000E+00
      25     1     1     2     0     0  3.774600420E+01 -1.741688162E+02  9.306564882E+02  9.557750972E+02  1.250000000E+02  0.00000E+00  9.000E+00
      25     1     1     2     0     0 -4.767149484E+01  1.434205448E+02  5.079738952E+01  2.026015767E+02  1.250000000E+02  0.00000E+00  9.000E+00
      21     1     1     2   502   511  9.925490637E+00  3.074827135E+01 -1.165207172E+02  1.209175302E+02  1.348699152E-06  0.00000E+00  9.000E+00
#rwgt            1           1   2.6366508327893414E-002          10       58110           0
</event>
<event>
      5   9999  3.19816E-02  2.54195E+01 -1.00000E+00  1.58211E-01
      21    -1     0     0   512   501  0.000000000E+00  0.000000000E+00  1.816457915E+02  1.816457915E+02  0.000000000E+00  0.00000E+00  9.000E+00
      21    -1     0     0   501   502  0.000000000E+00  0.000000000E+00 -3.681974565E+02  3.681974565E+02  0.000000000E+00  0.00000E+00  9.000E+00
      25     1     1     2     0     0  1.536349938E+02  1.079422214E+02 -2.036533357E+02  3.038995157E+02  1.250000000E+02  0.00000E+00  9.000E+00
      25     1     1     2     0     0 -1.286124730E+02 -1.124170852E+02 -5.772281022E+00  2.117477001E+02  1.250000000E+02  0.00000E+00  9.000E+00
      21     1     1     2   512   502 -2.502252080E+01  4.474863816E+00  2.287395176E+01  3.419603226E+01  5.840038640E-07  0.00000E+00  9.000E+00
#rwgt            1           1   2.6790344877324186E-002          10       58237           0
</event>
<event>
      5   9999  3.19816E-02  2.53568E+01 -1.00000E+00  1.58291E-01
      21    -1     0     0   502   501  0.000000000E+00  0.000000000E+00  4.220998047E+02  4.220998047E+02  0.000000000E+00  0.00000E+00  9.000E+00
      21    -1     0     0   511   502  0.000000000E+00  0.000000000E+00 -1.426973100E+02  1.426973100E+02  0.000000000E+00  0.00000E+00  9.000E+00
      25     1     1     2     0     0 -5.986146391E+01  1.155998142E+02  4.070937751E+01  1.850107168E+02  1.250000000E+02  0.00000E+00  9.000E+00
      25     1     1     2     0     0  6.720637381E+01 -1.398694915E+02  2.724658465E+02  3.375541569E+02  1.250000000E+02  0.00000E+00  9.000E+00
      21     1     1     2   511   501 -7.344909906E+00  2.426967734E+01 -3.377272930E+01  4.223224105E+01  0.000000000E+00  0.00000E+00  9.000E+00
#rwgt            1           1   3.6289348292084710E-002          10       58433           0
</event>
<event>
      5   9999  3.19816E-02  4.96335E+01 -1.00000E+00  1.39258E-01
      21    -1     0     0   512   501  0.000000000E+00  0.000000000E+00  9.134875950E+01  9.134875950E+01  0.000000000E+00  0.00000E+00  9.000E+00
      21    -1     0     0   501   502  0.000000000E+00  0.000000000E+00 -3.128340342E+03  3.128340342E+03  0.000000000E+00  0.00000E+00  9.000E+00
      25     1     1     2     0     0  3.850580603E+02  2.086589648E+02 -1.921577347E+03  1.974814618E+03  1.250000000E+02  0.00000E+00  9.000E+00
      25     1     1     2     0     0 -4.308946291E+02 -2.276980911E+02 -1.017660513E+03  1.135242055E+03  1.250000000E+02  0.00000E+00  9.000E+00
      21     1     1     2   512   502  4.583656874E+01  1.903912639E+01 -9.775372231E+01  1.096324295E+02  1.348699152E-06  0.00000E+00  9.000E+00
#rwgt            1           1   5.8441572523215600E-002          10       58526           0
</event>
<event>
      5   9999  3.19816E-02  9.90836E+02 -1.00000E+00  9.10873E-02
      21    -1     0     0   502   511  0.000000000E+00  0.000000000E+00  2.041547371E+03  2.041547371E+03  0.000000000E+00  0.00000E+00  9.000E+00
      21    -1     0     0   501   502  0.000000000E+00  0.000000000E+00 -7.461460525E+02  7.461460525E+02  0.000000000E+00  0.00000E+00  9.000E+00
      25     1     1     2     0     0  2.837877084E+02 -2.939906050E+01  4.465585942E+02  5.444624379E+02  1.250000000E+02  0.00000E+00  9.000E+00
      25     1     1     2     0     0  6.754940021E+02  2.774589496E+02 -2.325769000E+02  7.765260008E+02  1.250000000E+02  0.00000E+00  9.000E+00
      21     1     1     2   501   511 -9.592817105E+02 -2.480598891E+02  1.081419625E+03  1.466704985E+03  3.051757812E-05  0.00000E+00  9.000E+00
#rwgt            2          11   8.0949445143599222E-004          10       58699           0
</event>
<event>
      5   9999  3.19816E-02  1.07761E+01 -1.00000E+00  1.92078E-01
      21    -1     0     0   512   501  0.000000000E+00  0.000000000E+00  1.472362564E+02  1.472362564E+02  0.000000000E+00  0.00000E+00  9.000E+00
      21    -1     0     0   501   502  0.000000000E+00  0.000000000E+00 -4.854127360E+02  4.854127360E+02  0.000000000E+00  0.00000E+00  9.000E+00
      25     1     1     2     0     0  1.386705064E+01  4.995608553E+01 -1.470774227E+01  1.361220895E+02  1.250000000E+02  0.00000E+00  9.000E+00
      25     1     1     2     0     0 -2.374733678E+01 -5.425775773E+01 -3.979324966E+02  4.212874460E+02  1.250000000E+02  0.00000E+00  9.000E+00
      21     1     1     2   512   502  9.880286140E+00  4.301672206E+00  7.446375925E+01  7.523945693E+01  1.651812370E-06  0.00000E+00  9.000E+00
#rwgt            1           1   2.6990140360553562E-002          10       58719           0
</event>
<event>
      5   9999  3.19816E-02  5.98645E+01 -1.00000E+00  1.34756E-01
      21    -1     0     0   502   511  0.000000000E+00  0.000000000E+00  4.978103155E+02  4.978103155E+02  0.000000000E+00  0.00000E+00  9.000E+00
      21    -1     0     0   501   502  0.000000000E+00  0.000000000E+00 -2.615180636E+02  2.615180636E+02  0.000000000E+00  0.00000E+00  9.000E+00
      25     1     1     2     0     0  9.219238328E+01 -2.416113714E+02  4.463811693E+01  2.906768855E+02  1.250000000E+02  0.00000E+00  9.000E+00
      25     1     1     2     0     0 -1.007347630E+02  1.823594953E+02 -2.466233356E+01  2.442042356E+02  1.250000000E+02  0.00000E+00  9.000E+00
      21     1     1     2   501   511  8.542379693E+00  5.925187608E+01  2.163164684E+02  2.244472579E+02  0.000000000E+00  0.00000E+00  9.000E+00
#rwgt            1           1   3.3027045816609070E-002          10       58943           0
</event>
<event>
      5   9999  3.19816E-02  7.84993E+00 -1.00000E+00  2.08752E-01
      21    -1     0     0   512   501  0.000000000E+00  0.000000000E+00  8.530945847E+02  8.530945847E+02  0.000000000E+00  0.00000E+00  9.000E+00
      21    -1     0     0   501   502  0.000000000E+00  0.000000000E+00 -7.236675114E+02  7.236675114E+02  0.000000000E+00  0.00000E+00  9.000E+00
      25     1     1     2     0     0  9.185854567E+01  3.325714237E+02  4.770757991E+02  6.018870844E+02  1.250000000E+02  0.00000E+00  9.000E+00
      25     1     1     2     0     0 -8.541179010E+01 -3.370503511E+02 -6.095838610E+02  7.128222756E+02  1.250000000E+02  0.00000E+00  9.000E+00
      21     1     1     2   512   502 -6.446755569E+00  4.478927441E+00  2.619351352E+02  2.620527361E+02  3.814697266E-06  0.00000E+00  9.000E+00
#rwgt            1           1   2.4781366699057641E-002          10       59029           0
</event>
<event>
      5   9999  3.19816E-02  1.32436E+02 -1.00000E+00  1.18578E-01
      21    -1     0     0   502   501  0.000000000E+00  0.000000000E+00  1.460923335E+03  1.460923335E+03  0.000000000E+00  0.00000E+00  9.000E+00
      21    -1     0     0   511   502  0.000000000E+00  0.000000000E+00 -8.530553941E+02  8.530553941E+02  0.000000000E+00  0.00000E+00  9.000E+00
      25     1     1     2     0     0  2.744799348E+02  9.566933875E+02  3.142493802E+02  1.051179882E+03  1.250000000E+02  0.00000E+00  9.000E+00
      25     1     1     2     0     0 -3.983112619E+02 -1.003652883E+03  3.074146241E+02  1.129645840E+03  1.250000000E+02  0.00000E+00  9.000E+00
      21     1     1     2   511   501  1.238313271E+02  4.695949590E+01 -1.379606366E+01  1.331530068E+02  2.050954167E-06  0.00000E+00  9.000E+00
#rwgt            1           1   3.2142687671046249E-002          10       59297           0
</event>
<event>
      5   9999  3.19816E-02  1.01642E+01 -1.00000E+00  1.94943E-01
      21    -1     0     0   502   501  0.000000000E+00  0.000000000E+00  3.801562006E+02  3.801562006E+02  0.000000000E+00  0.00000E+00  9.000E+00
      21    -1     0     0   501   512  0.000000000E+00  0.000000000E+00 -2.946245780E+02  2.946245780E+02  0.000000000E+00  0.00000E+00  9.000E+00
      25     1     1     2     0     0  3.206714713E+01  1.098548653E+01  3.489182012E+02  3.721799215E+02  1.250000000E+02  0.00000E+00  9.000E+00
      25     1     1     2     0     0 -2.463824723E+01 -1.792256323E+01 -1.960210290E+02  2.344728242E+02  1.250000000E+02  0.00000E+00  9.000E+00
      21     1     1     2   502   512 -7.428899900E+00  6.937076694E+00 -6.736554962E+01  6.812803286E+01  9.536743164E-07  0.00000E+00  9.000E+00
#rwgt            1           1   2.5991976913479028E-002          10       59422           0
</event>
<event>
      5   9999  3.19816E-02  7.77026E+01 -1.00000E+00  1.28965E-01
      21    -1     0     0   502   501  0.000000000E+00  0.000000000E+00  6.253384502E+02  6.253384502E+02  0.000000000E+00  0.00000E+00  9.000E+00
      21    -1     0     0   511   502  0.000000000E+00  0.000000000E+00 -1.694017000E+02  1.694017000E+02  0.000000000E+00  0.00000E+00  9.000E+00
      25     1     1     2     0     0 -2.213072827E+02  1.414300935E+02  1.469021739E+02  3.258598370E+02  1.250000000E+02  0.00000E+00  9.000E+00
      25     1     1     2     0     0  1.828923110E+02 -7.388760348E+01  3.136537962E+02  3.910405084E+02  1.250000000E+02  0.00000E+00  9.000E+00
      21     1     1     2   511   501  3.841497169E+01 -6.754248997E+01 -4.619219868E+00  7.783980469E+01  8.920806376E-07  0.00000E+00  9.000E+00
#rwgt            1           1   2.7587241739024354E-002          10       59594           0
</event>
<event>
      5   9999  3.19816E-02  4.03655E+01 -1.00000E+00  1.44596E-01
      21    -1     0     0   502   512  0.000000000E+00  0.000000000E+00  1.685600498E+02  1.685600498E+02  0.000000000E+00  0.00000E+00  9.000E+00
      21    -1     0     0   501   502  0.000000000E+00  0.000000000E+00 -5.000188396E+02  5.000188396E+02  0.000000000E+00  0.00000E+00  9.000E+00
      25     1     1     2     0     0  2.844437824E+01 -9.347267672E+01 -3.953987795E+02  4.260415693E+02  1.250000000E+02  0.00000E+00  9.000E+00
      25     1     1     2     0     0 -5.245997909E+01  1.259168766E+02  2.544835864E+01  1.867611527E+02  1.250000000E+02  0.00000E+00  9.000E+00
      21     1     1     2   501   512  2.401560085E+01 -3.244419985E+01  3.849163107E+01  5.577616741E+01  1.581489940E-06  0.00000E+00  9.000E+00
#rwgt            1           1   2.9377947229545072E-002          10       59636           0
</event>
<event>
      5   9999  3.19816E-02  4.58968E+01 -1.00000E+00  1.41231E-01
       2    -1     0     0   502     0  0.000000000E+00  0.000000000E+00  4.452741524E+02  4.452741524E+02  0.000000000E+00  0.00000E+00  9.000E+00
      21    -1     0     0   501   502  0.000000000E+00  0.000000000E+00 -1.394982894E+02  1.394982894E+02  0.000000000E+00  0.00000E+00  9.000E+00
      25     1     1     2     0     0  3.853560460E+01  7.205134026E+01  1.860509301E+02  2.385714506E+02  1.250000000E+02  0.00000E+00  9.000E+00
      25     1     1     2     0     0 -4.387610084E+01 -2.646634473E+01 -6.919594929E+01  1.517849104E+02  1.250000000E+02  0.00000E+00  9.000E+00
       2     1     1     2   501     0  5.340496243E+00 -4.558499553E+01  1.889208822E+02  1.944160807E+02  0.000000000E+00  0.00000E+00  9.000E+00
#rwgt            1           1   2.9723022990530958E-002          10       59773           0
</event>
<event>
      5   9999  3.19816E-02  1.08503E+02 -1.00000E+00  1.22255E-01
      21    -1     0     0   502   511  0.000000000E+00  0.000000000E+00  1.360506129E+02  1.360506129E+02  0.000000000E+00  0.00000E+00  9.000E+00
      21    -1     0     0   501   502  0.000000000E+00  0.000000000E+00 -1.192152924E+03  1.192152924E+03  0.000000000E+00  0.00000E+00  9.000E+00
      25     1     1     2     0     0 -4.788587125E+01  1.690644690E+02 -2.275758454E+01  2.168380939E+02  1.250000000E+02  0.00000E+00  9.000E+00
      25     1     1     2     0     0  1.044706756E+02 -7.648479627E+01 -9.682513681E+02  9.848348887E+02  1.250000000E+02  0.00000E+00  9.000E+00
      21     1     1     2   501   511 -5.658480434E+01 -9.257967268E+01 -6.509335875E+01  1.265305545E+02  1.348699152E-06  0.00000E+00  9.000E+00
#rwgt            1           1   2.8436543325946674E-002          10       59826           0
</event>
<event>
      5   9999  3.19816E-02  2.11276E+01 -1.00000E+00  1.64427E-01
      21    -1     0     0   502   501  0.000000000E+00  0.000000000E+00  1.176749844E+02  1.176749844E+02  0.000000000E+00  0.00000E+00  9.000E+00
      21    -1     0     0   501   512  0.000000000E+00  0.000000000E+00 -5.966899928E+02  5.966899928E+02  0.000000000E+00  0.00000E+00  9.000E+00
      25     1     1     2     0     0  7.548641922E+01 -7.337447510E+01  3.672405633E+01  1.674982668E+02  1.250000000E+02  0.00000E+00  9.000E+00
      25     1     1     2     0     0 -5.615643184E+01  8.190244180E+01 -4.725151678E+02  4.987555900E+02  1.250000000E+02  0.00000E+00  9.000E+00
      21     1     1     2   502   512 -1.932998738E+01 -8.527966705E+00 -4.322389698E+01  4.811112032E+01  8.259061849E-07  0.00000E+00  9.000E+00
#rwgt            1           1   2.7311874788098194E-002          10       59872           0
</event>
<event>
      5   9999  3.19816E-02  5.07352E+01 -1.00000E+00  1.38715E-01
      21    -1     0     0   502   501  0.000000000E+00  0.000000000E+00  1.329649492E+03  1.329649492E+03  0.000000000E+00  0.00000E+00  9.000E+00
      21    -1     0     0   511   502  0.000000000E+00  0.000000000E+00 -2.305626605E+02  2.305626605E+02  0.000000000E+00  0.00000E+00  9.000E+00
      25     1     1     2     0     0 -1.378294830E+02 -2.404785937E+02  1.058275472E+02  3.219493596E+02  1.250000000E+02  0.00000E+00  9.000E+00
      25     1     1     2     0     0  1.190397792E+02  1.933510251E+02  1.094633667E+03  1.124901308E+03  1.250000000E+02  0.00000E+00  9.000E+00
      21     1     1     2   511   501  1.878970379E+01  4.712756864E+01 -1.013743829E+02  1.133614847E+02  1.907348633E-06  0.00000E+00  9.000E+00
#rwgt            1           1   2.6748524828399848E-002          10       59980           0
</event>
<event>
      5   9999  3.19816E-02  7.26497E+01 -1.00000E+00  1.30409E-01
      21    -1     0     0   512   501  0.000000000E+00  0.000000000E+00  1.555229019E+03  1.555229019E+03  0.000000000E+00  0.00000E+00  9.000E+00
      21    -1     0     0   501   502  0.000000000E+00  0.000000000E+00 -1.403547115E+02  1.403547115E+02  0.000000000E+00  0.00000E+00  9.000E+00
      25     1     1     2     0     0  2.599992830E+02  6.365099741E+00  1.701805388E+02  3.350023245E+02  1.250000000E+02  0.00000E+00  9.000E+00
      25     1     1     2     0     0 -3.271593952E+02  2.133867498E+01  4.915013328E+02  6.038933425E+02  1.250000000E+02  0.00000E+00  9.000E+00
      21     1     1     2   512   502  6.716011221E+01 -2.770377472E+01  7.531924356E+02  7.566880632E+02  1.078959322E-05  0.00000E+00  9.000E+00
#rwgt            1           1   2.7439315472365007E-002          10       60089           0
</event>
<event>
      5   9999  3.19816E-02  2.31545E+02 -1.00000E+00  1.09380E-01
      21    -1     0     0   502   511  0.000000000E+00  0.000000000E+00  1.296739993E+02  1.296739993E+02  0.000000000E+00  0.00000E+00  9.000E+00
      21    -1     0     0   501   502  0.000000000E+00  0.000000000E+00 -1.196794252E+03  1.196794252E+03  0.000000000E+00  0.00000E+00  9.000E+00
      25     1     1     2     0     0  6.424520602E+01  8.637861224E+01 -7.547864814E+02  7.726036136E+02  1.250000000E+02  0.00000E+00  9.000E+00
      25     1     1     2     0     0  1.671827023E+02 -7.900064753E+01 -1.831390709E+02  2.887145261E+02  1.250000000E+02  0.00000E+00  9.000E+00
      21     1     1     2   501   511 -2.314279084E+02 -7.377964711E+00 -1.291947004E+02  2.651501117E+02  3.814697266E-06  0.00000E+00  9.000E+00
#rwgt            1           1   3.4409659799900204E-002          10       60193           0
</event>
<event>
      5   9999  3.19816E-02  1.32327E+02 -1.00000E+00  1.18593E-01
      21    -1     0     0   502   501  0.000000000E+00  0.000000000E+00  4.706829065E+02  4.706829065E+02  0.000000000E+00  0.00000E+00  9.000E+00
       1    -1     0     0   501     0  0.000000000E+00  0.000000000E+00 -1.166453001E+03  1.166453001E+03  0.000000000E+00  0.00000E+00  9.000E+00
      25     1     1     2     0     0  4.472578236E+02 -2.845985286E+02 -8.822400928E+02  1.036826150E+03  1.250000000E+02  0.00000E+00  9.000E+00
      25     1     1     2     0     0 -3.269392631E+02  2.295182126E+02  7.070199977E+01  4.244898873E+02  1.250000000E+02  0.00000E+00  9.000E+00
       1     1     1     2   502     0 -1.203185605E+02  5.508031599E+01  1.157679988E+02  1.758198702E+02  2.697398305E-06  0.00000E+00  9.000E+00
#rwgt            1           1   3.1870845614514053E-002          10       60225           0
</event>
<event>
      5   9999  3.19816E-02  4.03311E+01 -1.00000E+00  1.44618E-01
       2    -1     0     0   502     0  0.000000000E+00  0.000000000E+00  1.876888822E+02  1.876888822E+02  0.000000000E+00  0.00000E+00  9.000E+00
      21    -1     0     0   501   502  0.000000000E+00  0.000000000E+00 -2.480765669E+03  2.480765669E+03  0.000000000E+00  0.00000E+00  9.000E+00
      25     1     1     2     0     0 -6.111932550E+01  2.157762598E+02 -2.352457097E+03  2.366426496E+03  1.250000000E+02  0.00000E+00  9.000E+00
      25     1     1     2     0     0  2.578771200E+01 -1.963270561E+02  4.867688879E+00  2.342178760E+02  1.250000000E+02  0.00000E+00  9.000E+00
       2     1     1     2   501     0  3.533161350E+01 -1.944920368E+01  5.451262186E+01  6.781017901E+01  1.168007728E-06  0.00000E+00  9.000E+00
#rwgt            1           1   2.4855934507081168E-002          10       60282           0
</event>
<event>
      5   9999  3.19816E-02  5.86083E+01 -1.00000E+00  1.35250E-01
      21    -1     0     0   502   511  0.000000000E+00  0.000000000E+00  7.781013053E+02  7.781013053E+02  0.000000000E+00  0.00000E+00  9.000E+00
      21    -1     0     0   501   502  0.000000000E+00  0.000000000E+00 -1.315520982E+02  1.315520982E+02  0.000000000E+00  0.00000E+00  9.000E+00
      25     1     1     2     0     0  5.179293339E+01 -1.562287085E+02  1.162181114E+02  2.371108743E+02  1.250000000E+02  0.00000E+00  9.000E+00
      25     1     1     2     0     0 -1.066941159E+02  1.767420008E+02  1.424258198E+02  2.802346934E+02  1.250000000E+02  0.00000E+00  9.000E+00
      21     1     1     2   501   511  5.490118250E+01 -2.051329228E+01  3.879052758E+02  3.923078358E+02  0.000000000E+00  0.00000E+00  9.000E+00
#rwgt            1           1   2.8418802056420195E-002          10       60386           0
</event>
<event>
      5   9999  3.19816E-02  3.73157E+00 -1.00000E+00  2.70787E-01
      21    -1     0     0   502   501  0.000000000E+00  0.000000000E+00  5.824382022E+01  5.824382022E+01  0.000000000E+00  0.00000E+00  9.000E+00
      21    -1     0     0   501   512  0.000000000E+00  0.000000000E+00 -4.257618710E+02  4.257618710E+02  0.000000000E+00  0.00000E+00  9.000E+00
      25     1     1     2     0     0 -5.240402688E+01  4.262044870E+01 -9.889349873E+01  1.731115501E+02  1.250000000E+02  0.00000E+00  9.000E+00
      25     1     1     2     0     0  5.398213200E+01 -4.600189904E+01 -2.241780893E+02  2.662913085E+02  1.250000000E+02  0.00000E+00  9.000E+00
      21     1     1     2   502   512 -1.578105120E+00  3.381450346E+00 -4.444646282E+01  4.460283264E+01  6.743495762E-07  0.00000E+00  9.000E+00
#rwgt            1           1   4.7355300812889793E-002          10       60469           0
</event>
<event>
      5   9999  3.19816E-02  2.64783E+01 -1.00000E+00  1.56904E-01
      21    -1     0     0   502   511  0.000000000E+00  0.000000000E+00  4.003917059E+02  4.003917059E+02  0.000000000E+00  0.00000E+00  9.000E+00
      21    -1     0     0   501   502  0.000000000E+00  0.000000000E+00 -7.683390675E+02  7.683390675E+02  0.000000000E+00  0.00000E+00  9.000E+00
      25     1     1     2     0     0  5.949524946E+00 -4.192363033E+02 -5.246814833E+02  6.831618649E+02  1.250000000E+02  0.00000E+00  9.000E+00
      25     1     1     2     0     0  1.954971197E+01  4.121024736E+02  1.362946045E+02  4.521192976E+02  1.250000000E+02  0.00000E+00  9.000E+00
      21     1     1     2   501   511 -2.549923692E+01  7.133829632E+00  2.043951716E+01  3.344961092E+01  2.384185791E-07  0.00000E+00  9.000E+00
#rwgt            1           1   3.2678727711444366E-002          10       60743           0
</event>
<event>
      5   9999  3.19816E-02  4.23207E+01 -1.00000E+00  1.43337E-01
       2    -1     0     0   502     0  0.000000000E+00  0.000000000E+00  2.556119981E+03  2.556119981E+03  0.000000000E+00  0.00000E+00  9.000E+00
      21    -1     0     0   501   502  0.000000000E+00  0.000000000E+00 -1.379168409E+02  1.379168409E+02  0.000000000E+00  0.00000E+00  9.000E+00
      25     1     1     2     0     0 -1.647176326E+01  3.660830000E+02  2.588446768E+02  4.657398937E+02  1.250000000E+02  0.00000E+00  9.000E+00
      25     1     1     2     0     0  5.862647998E+01 -3.698271027E+02  1.110364271E+03  1.178449390E+03  1.250000000E+02  0.00000E+00  9.000E+00
       2     1     1     2   501     0 -4.215471672E+01  3.744102777E+00  1.048994193E+03  1.049847539E+03  2.157918644E-05  0.00000E+00  9.000E+00
#rwgt            1           1   3.0476264291446644E-002          10       60912           0
</event>
<event>
      5   9999  3.19816E-02  1.66690E+01 -1.00000E+00  1.73173E-01
      21    -1     0     0   511   501  0.000000000E+00  0.000000000E+00  3.519773575E+03  3.519773575E+03  0.000000000E+00  0.00000E+00  9.000E+00
      21    -1     0     0   501   502  0.000000000E+00  0.000000000E+00 -1.140505846E+02  1.140505846E+02  0.000000000E+00  0.00000E+00  9.000E+00
      25     1     1     2     0     0 -2.178849445E+02  4.184604353E+02  6.025992622E+02  7.754571914E+02  1.250000000E+02  0.00000E+00  9.000E+00
      25     1     1     2     0     0  2.278047192E+02 -4.318564708E+02  2.282779413E+03  2.337755729E+03  1.250000000E+02  0.00000E+00  9.000E+00
      21     1     1     2   511   502 -9.919774640E+00  1.339603549E+01  5.203443147E+02  5.206112384E+02  0.000000000E+00  0.00000E+00  9.000E+00
#rwgt            1           1   5.4394851535505939E-002          10       61016           0
</event>
<event>
      5   9999  3.19816E-02  5.56379E+01 -1.00000E+00  1.36479E-01
      21    -1     0     0   502   501  0.000000000E+00  0.000000000E+00  4.850463582E+02  4.850463582E+02  0.000000000E+00  0.00000E+00  9.000E+00
      21    -1     0     0   501   512  0.000000000E+00  0.000000000E+00 -6.380991801E+02  6.380991801E+02  0.000000000E+00  0.00000E+00  9.000E+00
      25     1     1     2     0     0  1.892722226E+02 -3.969483027E+02 -2.069526291E+02  5.018429236E+02  1.250000000E+02  0.00000E+00  9.000E+00
      25     1     1     2     0     0 -1.342267210E+02  4.050458405E+02  1.829217785E+02  4.807955102E+02  1.250000000E+02  0.00000E+00  9.000E+00
      21     1     1     2   502   512 -5.504550164E+01 -8.097537855E+00 -1.290219713E+02  1.405071046E+02  0.000000000E+00  0.00000E+00  9.000E+00
#rwgt            1           1   2.8450676234895816E-002          10       61361           0
</event>
<event>
      5   9999  3.19816E-02  7.19774E+00 -1.00000E+00  2.13858E-01
      21    -1     0     0   511   501  0.000000000E+00  0.000000000E+00  2.439456346E+03  2.439456346E+03  0.000000000E+00  0.00000E+00  9.000E+00
      21    -1     0     0   501   502  0.000000000E+00  0.000000000E+00 -1.475216222E+03  1.475216222E+03  0.000000000E+00  0.00000E+00  9.000E+00
      25     1     1     2     0     0 -1.748566264E+02 -6.038130712E+02 -2.848493283E+01  6.415617322E+02  1.250000000E+02  0.00000E+00  9.000E+00
      25     1     1     2     0     0  1.818243810E+02  6.020081260E+02 -1.050048034E+03  1.230325064E+03  1.250000000E+02  0.00000E+00  9.000E+00
      21     1     1     2   511   502 -6.967754632E+00  1.804945219E+00  2.042773091E+03  2.042785771E+03  3.051757812E-05  0.00000E+00  9.000E+00
#rwgt            1           1   2.8101089065162517E-002          10       61500           0
</event>
<event>
      5   9999  3.19816E-02  3.95299E+01 -1.00000E+00  1.45159E-01
      21    -1     0     0   502   501  0.000000000E+00  0.000000000E+00  1.493447602E+03  1.493447602E+03  0.000000000E+00  0.00000E+00  9.000E+00
      21    -1     0     0   501   512  0.000000000E+00  0.000000000E+00 -1.261794109E+02  1.261794109E+02  0.000000000E+00  0.00000E+00  9.000E+00
      25     1     1     2     0     0 -5.735368084E+01 -1.606196750E+02  2.347693275E+01  2.127540625E+02  1.250000000E+02  0.00000E+00  9.000E+00
      25     1     1     2     0     0  4.726115668E+01  1.223998252E+02  1.353978033E+03  1.366051554E+03  1.250000000E+02  0.00000E+00  9.000E+00
      21     1     1     2   502   512  1.009252417E+01  3.821984984E+01 -1.018677535E+01  4.082139584E+01  8.172577143E-07  0.00000E+00  9.000E+00
#rwgt            1           1   2.9841211396015397E-002          10       61948           0
</event>
<event>
      5   9999  3.19816E-02  4.56945E+02 -1.00000E+00  9.99758E-02
      21    -1     0     0   511   501  0.000000000E+00  0.000000000E+00  6.600083777E+02  6.600083777E+02  0.000000000E+00  0.00000E+00  9.000E+00
      21    -1     0     0   501   502  0.000000000E+00  0.000000000E+00 -1.338127652E+03  1.338127652E+03  0.000000000E+00  0.00000E+00  9.000E+00
      25     1     1     2     0     0 -4.180264993E+02  5.512310394E+02 -1.940356046E+02  7.292987239E+02  1.250000000E+02  0.00000E+00  9.000E+00
      25     1     1     2     0     0  6.561374061E+02 -1.612288782E+02 -4.253823302E+02  8.081374721E+02  1.250000000E+02  0.00000E+00  9.000E+00
      21     1     1     2   511   502 -2.381109069E+02 -3.900021612E+02 -5.870133985E+01  4.606998340E+02  6.106495130E-06  0.00000E+00  9.000E+00
#rwgt            2          11   2.8402959306617162E-003          10       62140           0
</event>
<event>
      5   9999  3.19816E-02  9.74571E+01 -1.00000E+00  1.24333E-01
      21    -1     0     0   502   501  0.000000000E+00  0.000000000E+00  1.436841359E+03  1.436841359E+03  0.000000000E+00  0.00000E+00  9.000E+00
       1    -1     0     0   501     0  0.000000000E+00  0.000000000E+00 -4.116103994E+02  4.116103994E+02  0.000000000E+00  0.00000E+00  9.000E+00
      25     1     1     2     0     0 -8.787341888E+01  2.723019279E+02  1.128234153E+03  1.170644003E+03  1.250000000E+02  0.00000E+00  9.000E+00
      25     1     1     2     0     0  5.985135705E+01 -1.789603053E+02  2.348539592E+02  3.261753485E+02  1.250000000E+02  0.00000E+00  9.000E+00
       1     1     1     2   502     0  2.802206183E+01 -9.334162261E+01 -3.378571523E+02  3.516324073E+02  3.814697266E-06  0.00000E+00  9.000E+00
#rwgt            1           1   2.8620362502761437E-002          10       62160           0
</event>
<event>
      5   9999  3.19816E-02  2.48001E+01 -1.00000E+00  1.59012E-01
      21    -1     0     0   502   501  0.000000000E+00  0.000000000E+00  8.993351212E+02  8.993351212E+02  0.000000000E+00  0.00000E+00  9.000E+00
       2    -1     0     0   501     0  0.000000000E+00  0.000000000E+00 -1.779377922E+03  1.779377922E+03  0.000000000E+00  0.00000E+00  9.000E+00
      25     1     1     2     0     0 -3.907251252E+02  2.453649068E+02  3.871838280E+01  4.795770784E+02  1.250000000E+02  0.00000E+00  9.000E+00
      25     1     1     2     0     0  4.010493842E+02 -2.228159278E+02  5.517690531E+02  7.283966188E+02  1.250000000E+02  0.00000E+00  9.000E+00
       2     1     1     2   502     0 -1.032425897E+01 -2.254897893E+01 -1.470530237E+03  1.470739346E+03  0.000000000E+00  0.00000E+00  9.000E+00
#rwgt            1           1   3.1207137889362437E-002          10       62225           0
</event>
<event>
      5   9999  3.19816E-02  2.45660E+01 -1.00000E+00  1.59323E-01
      21    -1     0     0   502   501  0.000000000E+00  0.000000000E+00  3.947447063E+02  3.947447063E+02  0.000000000E+00  0.00000E+00  9.000E+00
      21    -1     0     0   511   502  0.000000000E+00  0.000000000E+00 -1.235808593E+03  1.235808593E+03  0.000000000E+00  0.00000E+00  9.000E+00
      25     1     1     2     0     0  1.249675394E+02  2.106675603E+02  1.908096699E+01  2.756570154E+02  1.250000000E+02  0.00000E+00  9.000E+00
      25     1     1     2     0     0 -1.494929987E+02 -2.120790680E+02  1.633476800E+02  3.311089734E+02  1.250000000E+02  0.00000E+00  9.000E+00
      21     1     1     2   511   501  2.452545933E+01  1.411507709E+00 -1.023492534E+03  1.023787311E+03  1.078959322E-05  0.00000E+00  9.000E+00
#rwgt            1           1   2.7582395026351340E-002          10       62381           0
</event>
<event>
      5   9999  3.19816E-02  4.71998E+02 -1.00000E+00  9.95683E-02
       2    -1     0     0   502     0  0.000000000E+00  0.000000000E+00  1.791799308E+03  1.791799308E+03  0.000000000E+00  0.00000E+00  9.000E+00
      21    -1     0     0   501   502  0.000000000E+00  0.000000000E+00 -4.982597799E+02  4.982597799E+02  0.000000000E+00  0.00000E+00  9.000E+00
      25     1     1     2     0     0  2.180107199E+02 -1.933687945E+02 -1.844654562E+02  3.668414769E+02  1.250000000E+02  0.00000E+00  9.000E+00
      25     1     1     2     0     0 -6.824670592E+02  2.774094565E+02  7.758498531E+02  1.077165395E+03  1.250000000E+02  0.00000E+00  9.000E+00
       2     1     1     2   501     0  4.644563393E+02 -8.404066193E+01  7.021551309E+02  8.460522158E+02  1.321449896E-05  0.00000E+00  9.000E+00
#rwgt            2          18   1.2306978948225242E-003          10       62552           0
</event>
<event>
      5   9999  3.19816E-02  4.75988E+02 -1.00000E+00  9.94630E-02
      21    -1     0     0   502   501  0.000000000E+00  0.000000000E+00  1.315218879E+03  1.315218879E+03  0.000000000E+00  0.00000E+00  9.000E+00
      -3    -1     0     0     0   502  0.000000000E+00  0.000000000E+00 -1.178339846E+03  1.178339846E+03  0.000000000E+00  0.00000E+00  9.000E+00
      25     1     1     2     0     0  5.788521919E+02  5.769101312E+02  2.838001770E+02  8.741068012E+02  1.250000000E+02  0.00000E+00  9.000E+00
      25     1     1     2     0     0 -1.034588497E+03 -4.395457728E+02 -4.066131873E+01  1.131747405E+03  1.250000000E+02  0.00000E+00  9.000E+00
      -3     1     1     2     0   501  4.557363054E+02 -1.373643583E+02 -1.062598256E+02  4.877045187E+02  4.264961200E-06  0.00000E+00  9.000E+00
#rwgt            2           8   2.7154327423495578E-005          10       62691           0
</event>
<event>
      5   9999  3.19816E-02  3.57745E+01 -1.00000E+00  1.47913E-01
      21    -1     0     0   511   501  0.000000000E+00  0.000000000E+00  7.554318810E+02  7.554318810E+02  0.000000000E+00  0.00000E+00  9.000E+00
      21    -1     0     0   501   502  0.000000000E+00  0.000000000E+00 -2.414890717E+02  2.414890717E+02  0.000000000E+00  0.00000E+00  9.000E+00
      25     1     1     2     0     0  2.475034214E+02  1.068370536E+02  7.125102460E+01  3.055712816E+02  1.250000000E+02  0.00000E+00  9.000E+00
      25     1     1     2     0     0 -2.554890231E+02 -1.417089087E+02  8.105757559E+01  3.279502802E+02  1.250000000E+02  0.00000E+00  9.000E+00
      21     1     1     2   511   502  7.985601731E+00  3.487185509E+01  3.616342092E+02  3.633993910E+02  5.394796609E-06  0.00000E+00  9.000E+00
#rwgt            1           1   2.8988906725642527E-002          10       62710           0
</event>
<event>
      5   9999  3.19816E-02  2.46221E+01 -1.00000E+00  1.59248E-01
      21    -1     0     0   502   501  0.000000000E+00  0.000000000E+00  1.951266880E+03  1.951266880E+03  0.000000000E+00  0.00000E+00  9.000E+00
      21    -1     0     0   501   512  0.000000000E+00  0.000000000E+00 -1.354942751E+02  1.354942751E+02  0.000000000E+00  0.00000E+00  9.000E+00
      25     1     1     2     0     0  8.610683382E+01 -2.688917729E+02  1.664233708E+03  1.692635816E+03  1.250000000E+02  0.00000E+00  9.000E+00
      25     1     1     2     0     0 -1.040893093E+02  2.857108045E+02  1.630080457E+02  3.669630377E+02  1.250000000E+02  0.00000E+00  9.000E+00
      21     1     1     2   502   512  1.798247545E+01 -1.681903159E+01 -1.146914842E+01  2.716230131E+01  5.331201500E-07  0.00000E+00  9.000E+00
#rwgt            1           1   3.0595263811909686E-002          10       62876           0
</event>
<event>
      5   9999  3.19816E-02  3.31898E+01 -1.00000E+00  1.50053E-01
      21    -1     0     0   502   501  0.000000000E+00  0.000000000E+00  3.971888109E+02  3.971888109E+02  0.000000000E+00  0.00000E+00  9.000E+00
      21    -1     0     0   501   511  0.000000000E+00  0.000000000E+00 -3.215366632E+02  3.215366632E+02  0.000000000E+00  0.00000E+00  9.000E+00
      25     1     1     2     0     0 -2.146101655E+01  2.351820346E+02  2.588983270E+02  3.720544427E+02  1.250000000E+02  0.00000E+00  9.000E+00
      25     1     1     2     0     0 -9.861472863E+00 -2.242064405E+02 -1.792461841E+02  3.132410751E+02  1.250000000E+02  0.00000E+00  9.000E+00
      21     1     1     2   502   511  3.132248942E+01 -1.097559412E+01 -3.999995197E+00  3.342995619E+01  7.127678837E-07  0.00000E+00  9.000E+00
#rwgt            1           1   2.5343601134570869E-002          10       63005           0
</event>
<event>
      5   9999  3.19816E-02  1.59878E+02 -1.00000E+00  1.15306E-01
      21    -1     0     0   502   501  0.000000000E+00  0.000000000E+00  1.252773260E+02  1.252773260E+02  0.000000000E+00  0.00000E+00  9.000E+00
      21    -1     0     0   512   502  0.000000000E+00  0.000000000E+00 -5.854484077E+02  5.854484077E+02  0.000000000E+00  0.00000E+00  9.000E+00
      25     1     1     2     0     0  9.561781159E+01 -8.563000564E+01 -1.683998838E+02  2.458836811E+02  1.250000000E+02  0.00000E+00  9.000E+00
      25     1     1     2     0     0 -1.414734386E+02 -6.753076255E+01 -1.412630049E+02  2.452659256E+02  1.250000000E+02  0.00000E+00  9.000E+00
      21     1     1     2   512   501  4.585562696E+01  1.531607682E+02 -1.505081930E+02  2.195761271E+02  1.907348633E-06  0.00000E+00  9.000E+00
#rwgt            1           1   2.4972611298132354E-002          10       63168           0
</event>
<event>
      5   9999  3.19816E-02  4.96064E+01 -1.00000E+00  1.39272E-01
      21    -1     0     0   502   511  0.000000000E+00  0.000000000E+00  3.785947358E+02  3.785947358E+02  0.000000000E+00  0.00000E+00  9.000E+00
      21    -1     0     0   501   502  0.000000000E+00  0.000000000E+00 -6.617942761E+02  6.617942761E+02  0.000000000E+00  0.00000E+00  9.000E+00
      25     1     1     2     0     0 -1.521723696E+02  1.157047522E+02  5.632544820E+01  2.352479030E+02  1.250000000E+02  0.00000E+00  9.000E+00
      25     1     1     2     0     0  2.004386300E+02 -1.271573755E+02 -5.376696268E+02  6.008812446E+02  1.250000000E+02  0.00000E+00  9.000E+00
      21     1     1     2   501   511 -4.826626033E+01  1.145262325E+01  1.981446383E+02  2.042598643E+02  2.697398305E-06  0.00000E+00  9.000E+00
#rwgt            1           1   2.8842039362236966E-002          10       63210           0
</event>
<event>
      5   9999  3.19816E-02  2.78411E+02 -1.00000E+00  1.06657E-01
      21    -1     0     0   502   501  0.000000000E+00  0.000000000E+00  1.572624255E+03  1.572624255E+03  0.000000000E+00  0.00000E+00  9.000E+00
      21    -1     0     0   501   512  0.000000000E+00  0.000000000E+00 -4.617647831E+02  4.617647831E+02  0.000000000E+00  0.00000E+00  9.000E+00
      25     1     1     2     0     0  2.056667383E+02 -3.892431674E+02  4.483684584E+02  6.406780198E+02  1.250000000E+02  0.00000E+00  9.000E+00
      25     1     1     2     0     0  5.178568689E+01  4.952187160E+02  8.944691177E+02  1.031321161E+03  1.250000000E+02  0.00000E+00  9.000E+00
      21     1     1     2   502   512 -2.574524251E+02 -1.059755487E+02 -2.319781042E+02  3.623898577E+02  8.092194914E-06  0.00000E+00  9.000E+00
#rwgt            2          11   4.9511633680478940E-003          10       63356           0
</event>
<event>
      5   9999  3.19816E-02  6.47092E+02 -1.00000E+00  9.57712E-02
      21    -1     0     0   502   501  0.000000000E+00  0.000000000E+00  1.765977280E+03  1.765977280E+03  0.000000000E+00  0.00000E+00  9.000E+00
      21    -1     0     0   511   502  0.000000000E+00  0.000000000E+00 -6.762303466E+02  6.762303466E+02  0.000000000E+00  0.00000E+00  9.000E+00
      25     1     1     2     0     0  2.993823641E+01  1.636819217E+02  1.054375571E+03  1.074718993E+03  1.250000000E+02  0.00000E+00  9.000E+00
      25     1     1     2     0     0  2.576690921E+02  4.159817796E+02  3.821601294E+02  6.333289560E+02  1.250000000E+02  0.00000E+00  9.000E+00
      21     1     1     2   511   501 -2.876073285E+02 -5.796637013E+02 -3.467887675E+02  7.341596770E+02  5.394796609E-06  0.00000E+00  9.000E+00
#rwgt            2          11   3.8160930251162992E-003          10       63376           0
</event>
<event>
      5   9999  3.19816E-02  1.56355E+01 -1.00000E+00  1.75702E-01
      21    -1     0     0   502   501  0.000000000E+00  0.000000000E+00  7.505581490E+02  7.505581490E+02  0.000000000E+00  0.00000E+00  9.000E+00
      21    -1     0     0   501   512  0.000000000E+00  0.000000000E+00 -1.279685787E+02  1.279685787E+02  0.000000000E+00  0.00000E+00  9.000E+00
      25     1     1     2     0     0 -2.235645217E+02  1.326281256E+02  4.141207156E+02  5.046704689E+02  1.250000000E+02  0.00000E+00  9.000E+00
      25     1     1     2     0     0  2.218859837E+02 -1.481732966E+02  1.963166970E+02  3.540536133E+02  1.250000000E+02  0.00000E+00  9.000E+00
      21     1     1     2   502   512  1.678538059E+00  1.554517104E+01  1.215215769E+01  1.980264551E+01  1.685873940E-07  0.00000E+00  9.000E+00
#rwgt            1           1   2.6086260796860914E-002          10       63396           0
</event>
<event>
      5   9999  3.19816E-02  4.65935E+01 -1.00000E+00  1.40847E-01
      21    -1     0     0   502   501  0.000000000E+00  0.000000000E+00  2.508223645E+02  2.508223645E+02  0.000000000E+00  0.00000E+00  9.000E+00
      21    -1     0     0   511   502  0.000000000E+00  0.000000000E+00 -1.456603985E+03  1.456603985E+03  0.000000000E+00  0.00000E+00  9.000E+00
      25     1     1     2     0     0 -1.775975281E+02 -2.829422857E+01  3.997107504E+01  2.226300344E+02  1.250000000E+02  0.00000E+00  9.000E+00
      25     1     1     2     0     0  2.240153970E+02  2.425268296E+01 -2.031588086E+01  2.584740330E+02  1.250000000E+02  0.00000E+00  9.000E+00
      21     1     1     2   511   501 -4.641786894E+01  4.041545611E+00 -1.225436814E+03  1.226322282E+03  0.000000000E+00  0.00000E+00  9.000E+00
#rwgt            1           1   2.6769199586435290E-002          10       63610           0
</event>
<event>
      5   9999  3.19816E-02  4.35508E+01 -1.00000E+00  1.42586E-01
      21    -1     0     0   502   512  0.000000000E+00  0.000000000E+00  2.443143791E+01  2.443143791E+01  0.000000000E+00  0.00000E+00  9.000E+00
      21    -1     0     0   501   502  0.000000000E+00  0.000000000E+00 -2.124072858E+03  2.124072858E+03  0.000000000E+00  0.00000E+00  9.000E+00
      25     1     1     2     0     0  8.509824334E+01 -1.395109776E+01 -3.838666378E+02  4.128134442E+02  1.250000000E+02  0.00000E+00  9.000E+00
      25     1     1     2     0     0 -8.626020914E+01  5.748640745E+01 -1.642075632E+03  1.650085723E+03  1.250000000E+02  0.00000E+00  9.000E+00
      21     1     1     2   501   512  1.161965804E+00 -4.353530969E+01 -7.369914985E+01  8.560512860E+01  2.132480600E-06  0.00000E+00  9.000E+00
#rwgt            1           1   7.6513825139796682E-002          10       63676           0
</event>
<event>
      5   9999  3.19816E-02  1.63752E+02 -1.00000E+00  1.14904E-01
       2    -1     0     0   502     0  0.000000000E+00  0.000000000E+00  3.790333555E+02  3.790333555E+02  0.000000000E+00  0.00000E+00  9.000E+00
      21    -1     0     0   501   502  0.000000000E+00  0.000000000E+00 -8.144595717E+02  8.144595717E+02  0.000000000E+00  0.00000E+00  9.000E+00
      25     1     1     2     0     0 -2.735293449E+02  2.520591472E+02 -6.278966222E+02  7.404264207E+02  1.250000000E+02  0.00000E+00  9.000E+00
      25     1     1     2     0     0  1.408109828E+02 -1.561392341E+02  9.437830617E+01  2.621821084E+02  1.250000000E+02  0.00000E+00  9.000E+00
       2     1     1     2   501     0  1.327183622E+02 -9.591991311E+01  9.809209988E+01  1.908843981E+02  4.672030912E-06  0.00000E+00  9.000E+00
#rwgt            1           1   2.8639179932481870E-002          10       63738           0
</event>
<event>
      5   9999  3.19816E-02  1.10312E+02 -1.00000E+00  1.21941E-01
      21    -1     0     0   502   501  0.000000000E+00  0.000000000E+00  2.767636793E+02  2.767636793E+02  0.000000000E+00  0.00000E+00  9.000E+00
      21    -1     0     0   501   511  0.000000000E+00  0.000000000E+00 -4.562038831E+02  4.562038831E+02  0.000000000E+00  0.00000E+00  9.000E+00
      25     1     1     2     0     0 -3.410908445E+01 -3.006489840E+02  1.375758118E+01  3.276698221E+02  1.250000000E+02  0.00000E+00  9.000E+00
      25     1     1     2     0     0 -2.811184279E+01  2.095600235E+02 -1.415920859E+02  2.835119008E+02  1.250000000E+02  0.00000E+00  9.000E+00
      21     1     1     2   502   511  6.222092724E+01  9.108896058E+01 -5.160569904E+01  1.217858395E+02  2.523185073E-06  0.00000E+00  9.000E+00
#rwgt            1           1   3.0148249432865797E-002          10       63806           0
</event>
<event>
      5   9999  3.19816E-02  8.36699E+00 -1.00000E+00  2.05156E-01
      21    -1     0     0   502   512  0.000000000E+00  0.000000000E+00  6.770550897E+02  6.770550897E+02  0.000000000E+00  0.00000E+00  9.000E+00
      21    -1     0     0   501   502  0.000000000E+00  0.000000000E+00 -2.047351397E+02  2.047351397E+02  0.000000000E+00  0.00000E+00  9.000E+00
      25     1     1     2     0     0 -2.243818792E+02  7.397887862E+00  5.483937362E+02  6.056093182E+02  1.250000000E+02  0.00000E+00  9.000E+00
      25     1     1     2     0     0  2.191938325E+02 -1.396224045E+01 -8.226821000E+01  2.657704625E+02  1.250000000E+02  0.00000E+00  9.000E+00
      21     1     1     2   501   512  5.188046715E+00  6.564352588E+00  6.194423832E+00  1.041044861E+01  8.429369702E-08  0.00000E+00  9.000E+00
#rwgt            1           1   2.6946994607185821E-002          10       63866           0
</event>
<event>
      5   9999  3.19816E-02  1.04748E+02 -1.00000E+00  1.22929E-01
      21    -1     0     0   511   501  0.000000000E+00  0.000000000E+00  7.544707196E+02  7.544707196E+02  0.000000000E+00  0.00000E+00  9.000E+00
      21    -1     0     0   501   502  0.000000000E+00  0.000000000E+00 -6.604651556E+02  6.604651556E+02  0.000000000E+00  0.00000E+00  9.000E+00
      25     1     1     2     0     0 -2.845214690E+02  5.334820311E+02  3.581108521E+02  7.137393966E+02  1.250000000E+02  0.00000E+00  9.000E+00
      25     1     1     2     0     0  2.424259073E+02 -4.375647219E+02 -2.923220758E+02  5.927144357E+02  1.250000000E+02  0.00000E+00  9.000E+00
      21     1     1     2   511   502  4.209556168E+01 -9.591730921E+01  2.821678771E+01  1.084820429E+02  1.066240300E-06  0.00000E+00  9.000E+00
#rwgt            1           1   2.4979301548982289E-002          10       64173           0
</event>
<event>
      5   9999  3.19816E-02  2.59486E+01 -1.00000E+00  1.57549E-01
      21    -1     0     0   502   501  0.000000000E+00  0.000000000E+00  6.044151946E+01  6.044151946E+01  0.000000000E+00  0.00000E+00  9.000E+00
      21    -1     0     0   501   512  0.000000000E+00  0.000000000E+00 -6.115375855E+02  6.115375855E+02  0.000000000E+00  0.00000E+00  9.000E+00
      25     1     1     2     0     0 -1.007789901E+02 -1.786183585E+01 -1.436097308E+02  2.161578238E+02  1.250000000E+02  0.00000E+00  9.000E+00
      25     1     1     2     0     0  1.261026089E+02  1.220108092E+01 -3.462257402E+02  3.892916613E+02  1.250000000E+02  0.00000E+00  9.000E+00
      21     1     1     2   502   512 -2.532361884E+01  5.660754929E+00 -6.126059500E+01  6.652961985E+01  1.348699152E-06  0.00000E+00  9.000E+00
#rwgt            1           1   2.7093558914707421E-002          10       64269           0
</event>
<event>
      5   9999  3.19816E-02  1.91694E+02 -1.00000E+00  1.12323E-01
      21    -1     0     0   502   501  0.000000000E+00  0.000000000E+00  1.215538542E+03  1.215538542E+03  0.000000000E+00  0.00000E+00  9.000E+00
      21    -1     0     0   511   502  0.000000000E+00  0.000000000E+00 -8.017705465E+02  8.017705465E+02  0.000000000E+00  0.00000E+00  9.000E+00
      25     1     1     2     0     0  4.286125585E+02  3.871471555E+02  3.090087776E+01  5.917529126E+02  1.250000000E+02  0.00000E+00  9.000E+00
      25     1     1     2     0     0 -2.688269417E+02 -2.812452391E+02  8.376556523E+02  9.320186698E+02  1.250000000E+02  0.00000E+00  9.000E+00
      21     1     1     2   511   501 -1.597856167E+02 -1.059019164E+02 -4.547885343E+02  4.935375063E+02  7.629394531E-06  0.00000E+00  9.000E+00
#rwgt            1           1   3.0104796619427606E-002          10       64370           0
</event>
<event>
      5   9999  3.19816E-02  5.25792E+01 -1.00000E+00  1.37841E-01
      21    -1     0     0   502   501  0.000000000E+00  0.000000000E+00  9.094773962E+01  9.094773962E+01  0.000000000E+00  0.00000E+00  9.000E+00
      21    -1     0     0   501   512  0.000000000E+00  0.000000000E+00 -1.658634076E+03  1.658634076E+03  0.000000000E+00  0.00000E+00  9.000E+00
      25     1     1     2     0     0 -1.476472221E+02  4.563548668E+01 -1.446567905E+02  2.458310128E+02  1.250000000E+02  0.00000E+00  9.000E+00
      25     1     1     2     0     0  1.877618269E+02 -1.164448114E+01 -2.810476445E+02  3.605591159E+02  1.250000000E+02  0.00000E+00  9.000E+00
      21     1     1     2   502   512 -4.011460478E+01 -3.399100554E+01 -1.141981901E+03  1.143191686E+03  2.157918644E-05  0.00000E+00  9.000E+00
#rwgt            1           1   2.6151204514609144E-002          10       64404           0
</event>
<event>
      5   9999  3.19816E-02  3.20948E+01 -1.00000E+00  1.51031E-01
      21    -1     0     0   502   511  0.000000000E+00  0.000000000E+00  6.445820173E+02  6.445820173E+02  0.000000000E+00  0.00000E+00  9.000E+00
      21    -1     0     0   501   502  0.000000000E+00  0.000000000E+00 -1.109930146E+02  1.109930146E+02  0.000000000E+00  0.00000E+00  9.000E+00
      25     1     1     2     0     0  5.940926663E+01  2.013490594E+02  1.399406175E+02  2.815657669E+02  1.250000000E+02  0.00000E+00  9.000E+00
      25     1     1     2     0     0 -2.864522429E+01 -1.922029602E+02  3.575038702E+02  4.256718736E+02  1.250000000E+02  0.00000E+00  9.000E+00
      21     1     1     2   501   511 -3.076404234E+01 -9.146099152E+00  3.614451504E+01  4.833739131E+01  8.259061849E-07  0.00000E+00  9.000E+00
#rwgt            1           1   2.7901167864246072E-002          10       64486           0
</event>
<event>
      5   9999  3.19816E-02  3.82229E+01 -1.00000E+00  1.46075E-01
      21    -1     0     0   502   512  0.000000000E+00  0.000000000E+00  3.882027232E+03  3.882027232E+03  0.000000000E+00  0.00000E+00  9.000E+00
      21    -1     0     0   501   502  0.000000000E+00  0.000000000E+00 -4.964249380E+02  4.964249380E+02  0.000000000E+00  0.00000E+00  9.000E+00
      25     1     1     2     0     0 -4.783760725E+02 -6.355291368E+02  5.347873885E+02  9.666247987E+02  1.250000000E+02  0.00000E+00  9.000E+00
      25     1     1     2     0     0  4.930141613E+02  6.708379866E+02  3.516053443E+02  9.123255371E+02  1.250000000E+02  0.00000E+00  9.000E+00
      21     1     1     2   501   512 -1.463808879E+01 -3.530884981E+01  2.499209561E+03  2.499501835E+03  4.315837288E-05  0.00000E+00  9.000E+00
#rwgt            1           1   3.1973904385027688E-002          10       64625           0
</event>
<event>
      5   9999  3.19816E-02  3.58716E+01 -1.00000E+00  1.47837E-01
      21    -1     0     0   502   501  0.000000000E+00  0.000000000E+00  2.233754309E+02  2.233754309E+02  0.000000000E+00  0.00000E+00  9.000E+00
      21    -1     0     0   511   502  0.000000000E+00  0.000000000E+00 -5.371984726E+02  5.371984726E+02  0.000000000E+00  0.00000E+00  9.000E+00
      25     1     1     2     0     0  1.181538927E+02 -2.394838517E+02 -2.418662929E+01  2.958426112E+02  1.250000000E+02  0.00000E+00  9.000E+00
      25     1     1     2     0     0 -1.022955631E+02  2.716596991E+02 -2.159668724E+02  3.827924560E+02  1.250000000E+02  0.00000E+00  9.000E+00
      21     1     1     2   511   501 -1.585832958E+01 -3.217584742E+01 -7.366953998E+01  8.193883630E+01  9.536743164E-07  0.00000E+00  9.000E+00
#rwgt            1           1   2.9299021788515501E-002          10       64785           0
</event>
<event>
      5   9999  3.19816E-02  3.97045E+01 -1.00000E+00  1.45040E-01
       1    -1     0     0   502     0  0.000000000E+00  0.000000000E+00  3.837467126E+03  3.837467126E+03  0.000000000E+00  0.00000E+00  9.000E+00
      21    -1     0     0   501   502  0.000000000E+00  0.000000000E+00 -1.265901883E+02  1.265901883E+02  0.000000000E+00  0.00000E+00  9.000E+00
      25     1     1     2     0     0  1.538176344E+02  4.086728857E+02  1.691366214E+03  1.751290399E+03  1.250000000E+02  0.00000E+00  9.000E+00
      25     1     1     2     0     0 -1.435283991E+02 -3.703247921E+02  3.532477912E+02  5.460310019E+02  1.250000000E+02  0.00000E+00  9.000E+00
       1     1     1     2   501     0 -1.028923533E+01 -3.834809353E+01  1.666262932E+03  1.666735913E+03  2.157918644E-05  0.00000E+00  9.000E+00
#rwgt            1           1   3.4030360663145125E-002          10       64871           0
</event>
<event>
      5   9999  3.19816E-02  1.62737E+02 -1.00000E+00  1.15008E-01
      21    -1     0     0   502   501  0.000000000E+00  0.000000000E+00  1.486141370E+02  1.486141370E+02  0.000000000E+00  0.00000E+00  9.000E+00
       2    -1     0     0   501     0  0.000000000E+00  0.000000000E+00 -1.452794711E+03  1.452794711E+03  0.000000000E+00  0.00000E+00  9.000E+00
      25     1     1     2     0     0 -1.730281424E+02  1.394282715E+02 -9.209245697E+01  2.710811716E+02  1.250000000E+02  0.00000E+00  9.000E+00
      25     1     1     2     0     0  3.073822686E+02 -4.760090917E+01 -5.149670294E+02  6.144637881E+02  1.250000000E+02  0.00000E+00  9.000E+00
       2     1     1     2   502     0 -1.343541261E+02 -9.182736237E+01 -6.971210873E+02  7.158638880E+02  7.629394531E-06  0.00000E+00  9.000E+00
#rwgt            1           1   3.3011104691743447E-002          10       64980           0
</event>
<event>
      5   9999  3.19816E-02  3.66765E+01 -1.00000E+00  1.47216E-01
      21    -1     0     0   502   511  0.000000000E+00  0.000000000E+00  6.330839974E+02  6.330839974E+02  0.000000000E+00  0.00000E+00  9.000E+00
      21    -1     0     0   501   502  0.000000000E+00  0.000000000E+00 -1.743808069E+02  1.743808069E+02  0.000000000E+00  0.00000E+00  9.000E+00
      25     1     1     2     0     0 -1.822011142E+02  1.135557638E+02  5.963090377E+01  2.554858160E+02  1.250000000E+02  0.00000E+00  9.000E+00
      25     1     1     2     0     0  1.940351362E+02 -7.884089386E+01  1.224180257E+02  2.729041840E+02  1.250000000E+02  0.00000E+00  9.000E+00
      21     1     1     2   501   511 -1.183402200E+01 -3.471486992E+01  2.766542610E+02  2.790748043E+02  5.394796609E-06  0.00000E+00  9.000E+00
#rwgt            1           1   3.1175717574590402E-002          10       65058           0
</event>
<event>
      5   9999  3.19816E-02  1.89415E+02 -1.00000E+00  1.12515E-01
      21    -1     0     0   502   501  0.000000000E+00  0.000000000E+00  3.642830511E+02  3.642830511E+02  0.000000000E+00  0.00000E+00  9.000E+00
      21    -1     0     0   501   512  0.000000000E+00  0.000000000E+00 -3.673682882E+03  3.673682882E+03  0.000000000E+00  0.00000E+00  9.000E+00
      25     1     1     2     0     0 -6.786473097E+02 -2.403845229E+02 -1.386548278E+02  7.437721769E+02  1.250000000E+02  0.00000E+00  9.000E+00
      25     1     1     2     0     0  5.178194177E+02  3.404458925E+02 -1.746294452E+03  1.857204800E+03  1.250000000E+02  0.00000E+00  9.000E+00
      21     1     1     2   502   512  1.608278920E+02 -1.000613697E+02 -1.424450551E+03  1.436988956E+03  1.525878906E-05  0.00000E+00  9.000E+00
#rwgt            1           1   3.1481625930680379E-002          10       65142           0
</event>
<event>
      5   9999  3.19816E-02  1.81933E+01 -1.00000E+00  1.69835E-01
      21    -1     0     0   511   501  0.000000000E+00  0.000000000E+00  1.841032940E+02  1.841032940E+02  0.000000000E+00  0.00000E+00  9.000E+00
      21    -1     0     0   501   502  0.000000000E+00  0.000000000E+00 -3.321958500E+02  3.321958500E+02  0.000000000E+00  0.00000E+00  9.000E+00
      25     1     1     2     0     0 -3.987045181E+01 -1.051016808E+02 -2.560045160E+02  3.062667602E+02  1.250000000E+02  0.00000E+00  9.000E+00
      25     1     1     2     0     0  3.811871870E+01  8.699286876E+01  7.868390816E+01  1.756045368E+02  1.250000000E+02  0.00000E+00  9.000E+00
      21     1     1     2   511   502  1.751733108E+00  1.810881199E+01  2.922805179E+01  3.442784704E+01  0.000000000E+00  0.00000E+00  9.000E+00
#rwgt            1           1   2.8918168541299260E-002          10       65231           0
</event>
<event>
      5   9999  3.19816E-02  6.25661E+00 -1.00000E+00  2.22684E-01
      21    -1     0     0   502   501  0.000000000E+00  0.000000000E+00  1.994281705E+02  1.994281705E+02  0.000000000E+00  0.00000E+00  9.000E+00
      21    -1     0     0   512   502  0.000000000E+00  0.000000000E+00 -3.260769942E+02  3.260769942E+02  0.000000000E+00  0.00000E+00  9.000E+00
      25     1     1     2     0     0  1.299083146E+02 -6.135247373E+01  1.044625014E+02  2.172043057E+02  1.250000000E+02  0.00000E+00  9.000E+00
      25     1     1     2     0     0 -1.239970474E+02  6.340238435E+01 -1.898820338E+02  2.665995440E+02  1.250000000E+02  0.00000E+00  9.000E+00
      21     1     1     2   512   501 -5.911267176E+00 -2.049910621E+00 -4.122929125E+01  4.170131497E+01  4.768371582E-07  0.00000E+00  9.000E+00
#rwgt            1           1   2.7622901543823034E-002          10       65358           0
</event>
<event>
      5   9999  3.19816E-02  1.95247E+01 -1.00000E+00  1.67236E-01
      21    -1     0     0   511   501  0.000000000E+00  0.000000000E+00  2.156313387E+02  2.156313387E+02  0.000000000E+00  0.00000E+00  9.000E+00
      21    -1     0     0   501   502  0.000000000E+00  0.000000000E+00 -1.380670614E+03  1.380670614E+03  0.000000000E+00  0.00000E+00  9.000E+00
      25     1     1     2     0     0  2.546188506E+02  1.746432988E+02 -1.150993945E+03  1.198224980E+03  1.250000000E+02  0.00000E+00  9.000E+00
      25     1     1     2     0     0 -2.601562844E+02 -1.933663148E+02 -5.590870793E+01  3.518843668E+02  1.250000000E+02  0.00000E+00  9.000E+00
      21     1     1     2   511   502  5.537433820E+00  1.872301597E+01  4.186337747E+01  4.619260626E+01  1.168007728E-06  0.00000E+00  9.000E+00
#rwgt            1           1   2.8645519270608242E-002          10       65620           0
</event>
<event>
      5   9999  3.19816E-02  5.06526E+01 -1.00000E+00  1.38755E-01
       2    -1     0     0   502     0  0.000000000E+00  0.000000000E+00  2.128795406E+03  2.128795406E+03  0.000000000E+00  0.00000E+00  9.000E+00
      21    -1     0     0   501   502  0.000000000E+00  0.000000000E+00 -2.571229852E+02  2.571229852E+02  0.000000000E+00  0.00000E+00  9.000E+00
      25     1     1     2     0     0 -2.398855395E+02 -7.674948366E+01 -7.061083860E+01  2.899076505E+02  1.250000000E+02  0.00000E+00  9.000E+00
      25     1     1     2     0     0  2.292459265E+02  2.722690471E+01  1.487043396E+02  3.017167210E+02  1.250000000E+02  0.00000E+00  9.000E+00
       2     1     1     2   501     0  1.063961297E+01  4.952257895E+01  1.793578920E+03  1.794294020E+03  2.157918644E-05  0.00000E+00  9.000E+00
#rwgt            1           1   2.6078494800309628E-002          10       65845           0
</event>
<event>
      5   9999  3.19816E-02  8.36238E+01 -1.00000E+00  1.27425E-01
      -4    -1     0     0     0   501  0.000000000E+00  0.000000000E+00  1.587623830E+03  1.587623830E+03  0.000000000E+00  0.00000E+00  9.000E+00
      21    -1     0     0   501   502  0.000000000E+00  0.000000000E+00 -1.152398545E+02  1.152398545E+02  0.000000000E+00  0.00000E+00  9.000E+00
      25     1     1     2     0     0  7.081424006E+01  1.615600192E+02  9.085701223E+01  2.345128847E+02  1.250000000E+02  0.00000E+00  9.000E+00
      25     1     1     2     0     0 -1.275280672E+02 -2.230130948E+02  4.496986529E+02  5.327777461E+02  1.250000000E+02  0.00000E+00  9.000E+00
      -4     1     1     2     0   502  5.671382719E+01  6.145307562E+01  9.318283100E+02  9.355730532E+02  0.000000000E+00  0.00000E+00  9.000E+00
#rwgt            1           1   2.9710350186946607E-002          10       65951           0
</event>
<event>
      5   9999  3.19816E-02  2.87438E+01 -1.00000E+00  1.54341E-01
      21    -1     0     0   502   511  0.000000000E+00  0.000000000E+00  1.717172281E+02  1.717172281E+02  0.000000000E+00  0.00000E+00  9.000E+00
      21    -1     0     0   501   502  0.000000000E+00  0.000000000E+00 -1.102760515E+03  1.102760515E+03  0.000000000E+00  0.00000E+00  9.000E+00
      25     1     1     2     0     0 -2.641991327E+02 -6.511973744E+01 -8.303165617E+02  8.826620840E+02  1.250000000E+02  0.00000E+00  9.000E+00
      25     1     1     2     0     0  2.376719602E+02  5.405118934E+01 -1.661369258E+02  3.203684907E+02  1.250000000E+02  0.00000E+00  9.000E+00
      21     1     1     2   501   511  2.652717245E+01  1.106854810E+01  6.541020019E+01  7.144716876E+01  1.348699152E-06  0.00000E+00  9.000E+00
#rwgt            1           1   2.7169391387810615E-002          10       66024           0
</event>
<event>
      5   9999  3.19816E-02  1.72726E+02 -1.00000E+00  1.14016E-01
      21    -1     0     0   502   501  0.000000000E+00  0.000000000E+00  9.322917291E+02  9.322917291E+02  0.000000000E+00  0.00000E+00  9.000E+00
      21    -1     0     0   501   512  0.000000000E+00  0.000000000E+00 -3.924933766E+02  3.924933766E+02  0.000000000E+00  0.00000E+00  9.000E+00
      25     1     1     2     0     0 -9.513694658E+01 -4.742298235E+01  2.699623814E+02  3.159187637E+02  1.250000000E+02  0.00000E+00  9.000E+00
      25     1     1     2     0     0  2.147095719E+02  1.720685360E+02  5.799081080E+02  6.539313382E+02  1.250000000E+02  0.00000E+00  9.000E+00
      21     1     1     2   502   512 -1.195726253E+02 -1.246455536E+02 -3.100721370E+02  3.549350037E+02  5.394796609E-06  0.00000E+00  9.000E+00
#rwgt            2          11   1.0364377781605660E-002          10       66188           0
</event>
<event>
      5   9999  3.19816E-02  2.50959E+01 -1.00000E+00  1.58626E-01
      21    -1     0     0   502   501  0.000000000E+00  0.000000000E+00  9.890673021E+02  9.890673021E+02  0.000000000E+00  0.00000E+00  9.000E+00
       1    -1     0     0   501     0  0.000000000E+00  0.000000000E+00 -6.828715612E+01  6.828715612E+01  0.000000000E+00  0.00000E+00  9.000E+00
      25     1     1     2     0     0 -1.092332955E+02  1.816142989E+01  3.481941760E+02  3.861682723E+02  1.250000000E+02  0.00000E+00  9.000E+00
      25     1     1     2     0     0  1.248055369E+02 -3.784155418E+01  6.043117941E+02  6.307346112E+02  1.250000000E+02  0.00000E+00  9.000E+00
       1     1     1     2   502     0 -1.557224137E+01  1.968012429E+01 -3.172582400E+01  4.045157478E+01  1.261592536E-06  0.00000E+00  9.000E+00
#rwgt            1           1   3.1035533771065740E-002          10       66208           0
</event>
<event>
      5   9999  3.19816E-02  1.05327E+02 -1.00000E+00  1.22823E-01
      -5    -1     0     0     0   501  0.000000000E+00  0.000000000E+00  1.292672819E+02  1.292672819E+02  0.000000000E+00  0.00000E+00  9.000E+00
      21    -1     0     0   501   502  0.000000000E+00  0.000000000E+00 -5.187654115E+02  5.187654115E+02  0.000000000E+00  0.00000E+00  9.000E+00
      25     1     1     2     0     0 -2.015307358E+02 -1.665418350E+01 -2.458951023E+02  3.420254386E+02  1.250000000E+02  0.00000E+00  9.000E+00
      25     1     1     2     0     0  9.843100400E+01 -4.890554314E+00 -5.513493615E+01  1.684560514E+02  1.250000000E+02  0.00000E+00  9.000E+00
      -5     1     1     2     0   502  1.030997318E+02  2.154473781E+01 -8.846809115E+01  1.375512035E+02  1.907348633E-06  0.00000E+00  9.000E+00
#rwgt            2           1   6.1185705629093635E-006          10       66321           0
</event>
<event>
      5   9999  3.19816E-02  1.38645E+02 -1.00000E+00  1.17765E-01
      21    -1     0     0   502   501  0.000000000E+00  0.000000000E+00  7.184130454E+02  7.184130454E+02  0.000000000E+00  0.00000E+00  9.000E+00
      21    -1     0     0   501   511  0.000000000E+00  0.000000000E+00 -3.346724793E+02  3.346724793E+02  0.000000000E+00  0.00000E+00  9.000E+00
      25     1     1     2     0     0 -1.127211855E+02 -2.673116232E+02  5.384076085E+02  6.242349897E+02  1.250000000E+02  0.00000E+00  9.000E+00
      25     1     1     2     0     0  1.729724273E+02  1.424422930E+02 -1.313835839E+02  2.882636182E+02  1.250000000E+02  0.00000E+00  9.000E+00
      21     1     1     2   502   511 -6.025124174E+01  1.248693302E+02 -2.328345846E+01  1.405869169E+02  2.407909617E-06  0.00000E+00  9.000E+00
#rwgt            1           1   2.6860313863022692E-002          10       66340           0
</event>
<event>
      5   9999  3.19816E-02  1.07226E+02 -1.00000E+00  1.22480E-01
      21    -1     0     0   502   512  0.000000000E+00  0.000000000E+00  8.574933264E+02  8.574933264E+02  0.000000000E+00  0.00000E+00  9.000E+00
      21    -1     0     0   501   502  0.000000000E+00  0.000000000E+00 -1.424563178E+03  1.424563178E+03  0.000000000E+00  0.00000E+00  9.000E+00
      25     1     1     2     0     0  7.495341143E+02  4.543664987E+02 -7.501480372E+02  1.160429826E+03  1.250000000E+02  0.00000E+00  9.000E+00
      25     1     1     2     0     0 -6.424857050E+02 -4.605362751E+02 -1.115871993E+02  8.080583178E+02  1.250000000E+02  0.00000E+00  9.000E+00
      21     1     1     2   501   512 -1.070484093E+02  6.169776451E+00  2.946653846E+02  3.135683609E+02  5.394796609E-06  0.00000E+00  9.000E+00
#rwgt            1           1   3.8579316019674473E-002          10       66390           0
</event>
<event>
      5   9999  3.19816E-02  5.71471E+01 -1.00000E+00  1.35844E-01
      21    -1     0     0   502   501  0.000000000E+00  0.000000000E+00  1.231655920E+03  1.231655920E+03  0.000000000E+00  0.00000E+00  9.000E+00
      21    -1     0     0   501   511  0.000000000E+00  0.000000000E+00 -2.150612999E+02  2.150612999E+02  0.000000000E+00  0.00000E+00  9.000E+00
      25     1     1     2     0     0  4.039958407E+02 -1.359144907E+02  1.975177000E+02  4.861312888E+02  1.250000000E+02  0.00000E+00  9.000E+00
      25     1     1     2     0     0 -3.854784874E+02  8.185065630E+01  7.996993924E+02  9.002429186E+02  1.250000000E+02  0.00000E+00  9.000E+00
      21     1     1     2   502   511 -1.851735329E+01  5.406383438E+01  1.937752722E+01  6.034301220E+01  1.039242493E-06  0.00000E+00  9.000E+00
#rwgt            1           1   2.9140974200412267E-002          10       66519           0
</event>
<event>
      5   9999  3.19816E-02  5.40248E+01 -1.00000E+00  1.37184E-01
      21    -1     0     0   512   501  0.000000000E+00  0.000000000E+00  5.937235115E+01  5.937235115E+01  0.000000000E+00  0.00000E+00  9.000E+00
      21    -1     0     0   501   502  0.000000000E+00  0.000000000E+00 -2.482077777E+03  2.482077777E+03  0.000000000E+00  0.00000E+00  9.000E+00
      25     1     1     2     0     0 -1.779905721E+00  2.607455720E+02 -5.152956203E+02  5.908857738E+02  1.250000000E+02  0.00000E+00  9.000E+00
      25     1     1     2     0     0 -2.500957293E+01 -3.076604297E+02 -1.797557742E+03  1.828146399E+03  1.250000000E+02  0.00000E+00  9.000E+00
      21     1     1     2   512   502  2.678947865E+01  4.691485772E+01 -1.098520638E+02  1.224179560E+02  1.907348633E-06  0.00000E+00  9.000E+00
#rwgt            1           1   8.0727736737939815E-002          10       66614           0
</event>
<event>
      5   9999  3.19816E-02  2.36106E+02 -1.00000E+00  1.09086E-01
      21    -1     0     0   502   511  0.000000000E+00  0.000000000E+00  6.642400472E+02  6.642400472E+02  0.000000000E+00  0.00000E+00  9.000E+00
      21    -1     0     0   501   502  0.000000000E+00  0.000000000E+00 -8.354750735E+02  8.354750735E+02  0.000000000E+00  0.00000E+00  9.000E+00
      25     1     1     2     0     0 -3.344132377E+00 -4.713770440E+02 -1.433088411E+02  5.083010179E+02  1.250000000E+02  0.00000E+00  9.000E+00
      25     1     1     2     0     0  2.255159796E+02  3.914677837E+02 -3.550110812E+02  5.880156040E+02  1.250000000E+02  0.00000E+00  9.000E+00
      21     1     1     2   501   511 -2.221718472E+02  7.990926028E+01  3.270848961E+02  4.033984988E+02  3.814697266E-06  0.00000E+00  9.000E+00
#rwgt            1           1   2.8131271371295844E-002          10       66678           0
</event>
<event>
      5   9999  3.19816E-02  1.76281E+02 -1.00000E+00  1.13681E-01
      21    -1     0     0   502   501  0.000000000E+00  0.000000000E+00  1.431304743E+03  1.431304743E+03  0.000000000E+00  0.00000E+00  9.000E+00
      21    -1     0     0   501   512  0.000000000E+00  0.000000000E+00 -7.628030913E+02  7.628030913E+02  0.000000000E+00  0.00000E+00  9.000E+00
      25     1     1     2     0     0  8.598810015E+02 -3.316230741E+01  1.431270360E+02  8.812521908E+02  1.250000000E+02  0.00000E+00  9.000E+00
      25     1     1     2     0     0 -9.689495958E+02  1.716504364E+02  5.510286408E+02  1.134717918E+03  1.250000000E+02  0.00000E+00  9.000E+00
      21     1     1     2   502   512  1.090685943E+02 -1.384881290E+02 -2.565402488E+01  1.781377252E+02  3.126830351E-06  0.00000E+00  9.000E+00
#rwgt            1           1   2.9783080156806339E-002          10       66733           0
</event>
<event>
      5   9999  3.19816E-02  2.69059E+01 -1.00000E+00  1.56397E-01
      21    -1     0     0   511   501  0.000000000E+00  0.000000000E+00  1.410911820E+02  1.410911820E+02  0.000000000E+00  0.00000E+00  9.000E+00
      21    -1     0     0   501   502  0.000000000E+00  0.000000000E+00 -1.035656658E+03  1.035656658E+03  0.000000000E+00  0.00000E+00  9.000E+00
      25     1     1     2     0     0  7.473404966E+01  2.359282547E+02 -7.261229664E+01  2.866092552E+02  1.250000000E+02  0.00000E+00  9.000E+00
      25     1     1     2     0     0 -7.440513332E+01 -2.090243483E+02 -8.246708425E+02  8.630957656E+02  1.250000000E+02  0.00000E+00  9.000E+00
      21     1     1     2   511   502 -3.289163338E-01 -2.690390637E+01  2.717663383E+00  2.704281897E+01  5.470979139E-07  0.00000E+00  9.000E+00
#rwgt            1           1   3.0348625844271108E-002          10       66814           0
</event>
<event>
      5   9999  3.19816E-02  3.01304E+01 -1.00000E+00  1.52909E-01
      21    -1     0     0   502   501  0.000000000E+00  0.000000000E+00  5.421268765E+02  5.421268765E+02  0.000000000E+00  0.00000E+00  9.000E+00
      21    -1     0     0   512   502  0.000000000E+00  0.000000000E+00 -1.409279489E+02  1.409279489E+02  0.000000000E+00  0.00000E+00  9.000E+00
      25     1     1     2     0     0 -1.552690628E+02  1.047583158E+01  3.520788147E+02  4.047254831E+02  1.250000000E+02  0.00000E+00  9.000E+00
      25     1     1     2     0     0  1.741823152E+02  1.297901489E+01  8.542496304E+01  2.311500769E+02  1.250000000E+02  0.00000E+00  9.000E+00
      21     1     1     2   512   501 -1.891325241E+01 -2.345484647E+01 -3.630485011E+01  4.717926537E+01  1.430511475E-06  0.00000E+00  9.000E+00
#rwgt            1           1   2.6483676855148460E-002          10       66928           0
</event>
<event>
      5   9999  3.19816E-02  1.74704E+02 -1.00000E+00  1.13829E-01
      21    -1     0     0   502   501  0.000000000E+00  0.000000000E+00  9.218997010E+02  9.218997010E+02  0.000000000E+00  0.00000E+00  9.000E+00
       2    -1     0     0   501     0  0.000000000E+00  0.000000000E+00 -6.541708695E+02  6.541708695E+02  0.000000000E+00  0.00000E+00  9.000E+00
      25     1     1     2     0     0 -1.286297811E+02  5.937335121E+02  5.973601556E+02  8.611209319E+02  1.250000000E+02  0.00000E+00  9.000E+00
      25     1     1     2     0     0  1.406139453E+02 -4.194412461E+02 -2.412292666E+02  5.191529636E+02  1.250000000E+02  0.00000E+00  9.000E+00
       2     1     1     2   502     0 -1.198416421E+01 -1.742922660E+02 -8.840205749E+01  1.957966750E+02  2.861022949E-06  0.00000E+00  9.000E+00
#rwgt            1           1   3.0068533837143377E-002          10       67055           0
</event>
<event>
      5   9999  3.19816E-02  1.13464E+02 -1.00000E+00  1.21410E-01
      21    -1     0     0   511   501  0.000000000E+00  0.000000000E+00  1.603086555E+03  1.603086555E+03  0.000000000E+00  0.00000E+00  9.000E+00
      21    -1     0     0   501   502  0.000000000E+00  0.000000000E+00 -3.765783606E+01  3.765783606E+01  0.000000000E+00  0.00000E+00  9.000E+00
      25     1     1     2     0     0 -8.743898719E+01 -9.257271130E+01  5.470453707E+02  5.754119576E+02  1.250000000E+02  0.00000E+00  9.000E+00
      25     1     1     2     0     0 -1.323220330E+01  1.449117356E+02  5.216225599E+02  5.557783706E+02  1.250000000E+02  0.00000E+00  9.000E+00
      21     1     1     2   511   502  1.006711905E+02 -5.233902430E+01  4.967607886E+02  5.095540630E+02  0.000000000E+00  0.00000E+00  9.000E+00
#rwgt            1           1   3.0614236036706294E-002          10       67170           0
</event>
<event>
      5   9999  3.19816E-02  3.09949E+01 -1.00000E+00  1.52062E-01
      21    -1     0     0   512   501  0.000000000E+00  0.000000000E+00  2.258043732E+02  2.258043732E+02  0.000000000E+00  0.00000E+00  9.000E+00
      21    -1     0     0   501   502  0.000000000E+00  0.000000000E+00 -4.249230167E+02  4.249230167E+02  0.000000000E+00  0.00000E+00  9.000E+00
      25     1     1     2     0     0 -2.550794525E+02  1.045803041E+02 -1.599223475E+02  3.423488342E+02  1.250000000E+02  0.00000E+00  9.000E+00
      25     1     1     2     0     0  2.260253128E+02 -9.378475642E+01 -3.289013275E+01  2.767485924E+02  1.250000000E+02  0.00000E+00  9.000E+00
      21     1     1     2   512   502  2.905413961E+01 -1.079554768E+01 -6.306163273E+00  3.162996322E+01  2.384185791E-07  0.00000E+00  9.000E+00
#rwgt            1           1   2.8321448338112527E-002          10       67225           0
</event>
<event>
      5   9999  3.19816E-02  1.25267E+01 -1.00000E+00  1.85088E-01
      21    -1     0     0   502   501  0.000000000E+00  0.000000000E+00  2.197881208E+02  2.197881208E+02  0.000000000E+00  0.00000E+00  9.000E+00
      21    -1     0     0   511   502  0.000000000E+00  0.000000000E+00 -3.590712307E+02  3.590712307E+02  0.000000000E+00  0.00000E+00  9.000E+00
      25     1     1     2     0     0 -3.590958463E+01 -2.227430733E+02  3.904974968E+01  2.608713436E+02  1.250000000E+02  0.00000E+00  9.000E+00
      25     1     1     2     0     0  2.544263419E+01  2.158610669E+02 -1.705062449E+02  3.032172611E+02  1.250000000E+02  0.00000E+00  9.000E+00
      21     1     1     2   511   501  1.046695044E+01  6.882006360E+00 -7.826614740E+00  1.477074681E+01  0.000000000E+00  0.00000E+00  9.000E+00
#rwgt            1           1   2.7646842596809173E-002          10       67353           0
</event>
<event>
      5   9999  3.19816E-02  3.20252E+01 -1.00000E+00  1.51095E-01
      21    -1     0     0   502   501  0.000000000E+00  0.000000000E+00  3.044458596E+03  3.044458596E+03  0.000000000E+00  0.00000E+00  9.000E+00
      21    -1     0     0   512   502  0.000000000E+00  0.000000000E+00 -1.571381833E+02  1.571381833E+02  0.000000000E+00  0.00000E+00  9.000E+00
      25     1     1     2     0     0 -1.291263700E+01  1.445890933E+02  2.492479869E+03  2.499830722E+03  1.250000000E+02  0.00000E+00  9.000E+00
      25     1     1     2     0     0 -1.598065510E+01 -1.307763218E+02  5.313607308E+02  5.615398952E+02  1.250000000E+02  0.00000E+00  9.000E+00
      21     1     1     2   512   501  2.889329209E+01 -1.381277153E+01 -1.365201872E+02  1.402261619E+02  6.877043296E-06  0.00000E+00  9.000E+00
#rwgt            1           1   2.3762450587550141E-002          10       67593           0
</event>
<event>
      5   9999  3.19816E-02  2.42185E+02 -1.00000E+00  1.08704E-01
      21    -1     0     0   511   501  0.000000000E+00  0.000000000E+00  3.082571622E+02  3.082571622E+02  0.000000000E+00  0.00000E+00  9.000E+00
      21    -1     0     0   501   502  0.000000000E+00  0.000000000E+00 -6.993006563E+02  6.993006563E+02  0.000000000E+00  0.00000E+00  9.000E+00
      25     1     1     2     0     0 -3.611595709E+02  6.882299548E+01 -2.918519048E+02  4.857729662E+02  1.250000000E+02  0.00000E+00  9.000E+00
      25     1     1     2     0     0  1.467314193E+02 -1.814030058E+02 -1.403464972E+01  2.650643909E+02  1.250000000E+02  0.00000E+00  9.000E+00
      21     1     1     2   511   502  2.144281516E+02  1.125800103E+02 -8.515693949E+01  2.567204614E+02  4.768371582E-06  0.00000E+00  9.000E+00
#rwgt            1           1   2.6213778262444715E-002          10       67770           0
</event>
<event>
      5   9999  3.19816E-02  1.06873E+03 -1.00000E+00  9.03035E-02
      21    -1     0     0   502   501  0.000000000E+00  0.000000000E+00  1.700511861E+03  1.700511861E+03  0.000000000E+00  0.00000E+00  9.000E+00
      21    -1     0     0   512   502  0.000000000E+00  0.000000000E+00 -9.889234328E+02  9.889234328E+02  0.000000000E+00  0.00000E+00  9.000E+00
      25     1     1     2     0     0  3.138035361E+02  1.367089333E+02  5.344471655E+02  6.468545156E+02  1.250000000E+02  0.00000E+00  9.000E+00
      25     1     1     2     0     0  7.395659819E+02  4.386507455E+01  5.273435915E+02  9.179315061E+02  1.250000000E+02  0.00000E+00  9.000E+00
      21     1     1     2   512   501 -1.053369518E+03 -1.805740079E+02 -3.502023288E+02  1.124649272E+03  1.982174844E-05  0.00000E+00  9.000E+00
#rwgt            2          11   8.9598195799368927E-003          10       67828           0
</event>
<event>
      5   9999  3.19816E-02  1.66279E+01 -1.00000E+00  1.73269E-01
      21    -1     0     0   502   501  0.000000000E+00  0.000000000E+00  1.967535795E+02  1.967535795E+02  0.000000000E+00  0.00000E+00  9.000E+00
      21    -1     0     0   511   502  0.000000000E+00  0.000000000E+00 -6.308178334E+02  6.308178334E+02  0.000000000E+00  0.00000E+00  9.000E+00
      25     1     1     2     0     0 -8.008075187E+01 -2.027814937E+02 -2.818037808E+02  3.775865886E+02  1.250000000E+02  0.00000E+00  9.000E+00
      25     1     1     2     0     0  8.433645653E+01  2.188555668E+02  2.955419828E+01  2.674113828E+02  1.250000000E+02  0.00000E+00  9.000E+00
      21     1     1     2   511   501 -4.255704662E+00 -1.607407307E+01 -1.818146713E+02  1.825734415E+02  0.000000000E+00  0.00000E+00  9.000E+00
#rwgt            1           1   2.9285492171194270E-002          10       67848           0
</event>
<event>
      5   9999  3.19816E-02  3.12063E+01 -1.00000E+00  1.51860E-01
      21    -1     0     0   512   501  0.000000000E+00  0.000000000E+00  1.060158985E+03  1.060158985E+03  0.000000000E+00  0.00000E+00  9.000E+00
      21    -1     0     0   501   502  0.000000000E+00  0.000000000E+00 -5.514343829E+02  5.514343829E+02  0.000000000E+00  0.00000E+00  9.000E+00
      25     1     1     2     0     0 -1.723273257E+02 -1.189308292E+02 -5.035437859E+02  5.594842211E+02  1.250000000E+02  0.00000E+00  9.000E+00
      25     1     1     2     0     0  1.978964651E+02  1.010408713E+02  9.220035023E+02  9.566021779E+02  1.250000000E+02  0.00000E+00  9.000E+00
      21     1     1     2   512   502 -2.556913940E+01  1.788995788E+01  9.026488551E+01  9.550696854E+01  9.536743164E-07  0.00000E+00  9.000E+00
#rwgt            1           1   3.0359593904771724E-002          10       68014           0
</event>
<event>
      5   9999  3.19816E-02  3.48454E+01 -1.00000E+00  1.48657E-01
      21    -1     0     0   511   501  0.000000000E+00  0.000000000E+00  1.423962958E+03  1.423962958E+03  0.000000000E+00  0.00000E+00  9.000E+00
      21    -1     0     0   501   502  0.000000000E+00  0.000000000E+00 -2.260136335E+02  2.260136335E+02  0.000000000E+00  0.00000E+00  9.000E+00
      25     1     1     2     0     0 -2.314141759E+02  3.716172474E+02  4.071594759E+02  6.107828896E+02  1.250000000E+02  0.00000E+00  9.000E+00
      25     1     1     2     0     0  2.522734309E+02 -3.437050055E+02  2.756152751E+02  5.228420360E+02  1.250000000E+02  0.00000E+00  9.000E+00
      21     1     1     2   511   502 -2.085925499E+01 -2.791224193E+01  5.151745731E+02  5.163516655E+02  7.629394531E-06  0.00000E+00  9.000E+00
#rwgt            1           1   2.6604066626859543E-002          10       68193           0
</event>
<event>
      5   9999  3.19816E-02  7.85835E+01 -1.00000E+00  1.28726E-01
      21    -1     0     0   502   501  0.000000000E+00  0.000000000E+00  6.955593756E+02  6.955593756E+02  0.000000000E+00  0.00000E+00  9.000E+00
      21    -1     0     0   501   512  0.000000000E+00  0.000000000E+00 -3.029707735E+02  3.029707735E+02  0.000000000E+00  0.00000E+00  9.000E+00
      25     1     1     2     0     0  1.061207609E+02  3.329761606E+02  3.126086546E+02  4.852668445E+02  1.250000000E+02  0.00000E+00  9.000E+00
      25     1     1     2     0     0 -6.876358947E+01 -4.021122767E+02  5.190834652E+01  4.298164617E+02  1.250000000E+02  0.00000E+00  9.000E+00
      21     1     1     2   502   512 -3.735717140E+01  6.913611609E+01  2.807160091E+01  8.344684284E+01  1.118282261E-06  0.00000E+00  9.000E+00
#rwgt            1           1   3.3223754049146292E-002          10       68333           0
</event>
<event>
      5   9999  3.19816E-02  3.75864E+01 -1.00000E+00  1.46537E-01
      21    -1     0     0   502   511  0.000000000E+00  0.000000000E+00  8.044138068E+02  8.044138068E+02  0.000000000E+00  0.00000E+00  9.000E+00
      21    -1     0     0   501   502  0.000000000E+00  0.000000000E+00 -7.931554336E+02  7.931554336E+02  0.000000000E+00  0.00000E+00  9.000E+00
      25     1     1     2     0     0  2.450730695E+02 -4.630441912E+02  3.678657443E+02  6.522430055E+02  1.250000000E+02  0.00000E+00  9.000E+00
      25     1     1     2     0     0 -2.702234905E+02  4.909761881E+02 -5.218235058E+02  7.758886024E+02  1.250000000E+02  0.00000E+00  9.000E+00
      21     1     1     2   501   511  2.515042106E+01 -2.793199694E+01  1.652161348E+02  1.694376325E+02  2.697398305E-06  0.00000E+00  9.000E+00
#rwgt            1           1   2.9140259050251874E-002          10       68405           0
</event>
<event>
      5   9999  3.19816E-02  7.76788E+01 -1.00000E+00  1.28971E-01
      21    -1     0     0   512   501  0.000000000E+00  0.000000000E+00  7.945639330E+02  7.945639330E+02  0.000000000E+00  0.00000E+00  9.000E+00
      21    -1     0     0   501   502  0.000000000E+00  0.000000000E+00 -1.047081732E+03  1.047081732E+03  0.000000000E+00  0.00000E+00  9.000E+00
      25     1     1     2     0     0 -7.309335385E+02 -4.914323204E+02 -1.733050292E+02  9.063273119E+02  1.250000000E+02  0.00000E+00  9.000E+00
      25     1     1     2     0     0  7.351595731E+02  4.138686033E+02 -8.681668740E+01  8.572683104E+02  1.250000000E+02  0.00000E+00  9.000E+00
      21     1     1     2   512   502 -4.226034661E+00  7.756371710E+01  7.603917704E+00  7.805004257E+01  1.614834927E-06  0.00000E+00  9.000E+00
#rwgt            1           1   3.9452771474936664E-002          10       68611           0
</event>
<event>
      5   9999  3.19816E-02  8.63742E+01 -1.00000E+00  1.26758E-01
      21    -1     0     0   502   501  0.000000000E+00  0.000000000E+00  1.639485143E+03  1.639485143E+03  0.000000000E+00  0.00000E+00  9.000E+00
      21    -1     0     0   511   502  0.000000000E+00  0.000000000E+00 -1.495161085E+02  1.495161085E+02  0.000000000E+00  0.00000E+00  9.000E+00
      25     1     1     2     0     0  1.224270272E+02 -2.839894622E+02  1.199760186E+03  1.245266194E+03  1.250000000E+02  0.00000E+00  9.000E+00
      25     1     1     2     0     0 -2.083692536E+02  2.753623121E+02  1.973306993E+02  4.169011318E+02  1.250000000E+02  0.00000E+00  9.000E+00
      21     1     1     2   511   501  8.594222637E+01  8.627150070E+00  9.287814980E+01  1.268339257E+02  1.348699152E-06  0.00000E+00  9.000E+00
#rwgt            1           1   2.9109792166112602E-002          10       68748           0
</event>
<event>
      5   9999  3.19816E-02  5.97864E+01 -1.00000E+00  1.34786E-01
      21    -1     0     0   512   501  0.000000000E+00  0.000000000E+00  5.854559786E+02  5.854559786E+02  0.000000000E+00  0.00000E+00  9.000E+00
      21    -1     0     0   501   502  0.000000000E+00  0.000000000E+00 -2.955258294E+02  2.955258294E+02  0.000000000E+00  0.00000E+00  9.000E+00
      25     1     1     2     0     0 -2.247615076E+02  1.863568794E+02  4.201450268E+01  3.203698491E+02  1.250000000E+02  0.00000E+00  9.000E+00
      25     1     1     2     0     0  2.841656018E+02 -1.931071945E+02  6.911219830E+01  3.720779136E+02  1.250000000E+02  0.00000E+00  9.000E+00
      21     1     1     2   512   502 -5.940409426E+01  6.750315117E+00  1.788034482E+02  1.885340453E+02  1.907348633E-06  0.00000E+00  9.000E+00
#rwgt            1           1   2.7018062059083667E-002          10       68846           0
</event>
<event>
      5   9999  3.19816E-02  1.35536E+01 -1.00000E+00  1.81635E-01
      21    -1     0     0   511   501  0.000000000E+00  0.000000000E+00  1.843153771E+03  1.843153771E+03  0.000000000E+00  0.00000E+00  9.000E+00
      21    -1     0     0   501   502  0.000000000E+00  0.000000000E+00 -3.017826514E+01  3.017826514E+01  0.000000000E+00  0.00000E+00  9.000E+00
      25     1     1     2     0     0 -1.867969250E+02  1.936772038E+01  8.548705863E+02  8.841362559E+02  1.250000000E+02  0.00000E+00  9.000E+00
      25     1     1     2     0     0  1.928337632E+02 -3.150269054E+01  8.881089472E+02  9.178996578E+02  1.250000000E+02  0.00000E+00  9.000E+00
      21     1     1     2   511   502 -6.036838200E+00  1.213497015E+01  6.999597278E+01  7.129612276E+01  0.000000000E+00  0.00000E+00  9.000E+00
#rwgt            1           1   3.0397723369730623E-002          10       68904           0
</event>
<event>
      5   9999  3.19816E-02  8.36980E+01 -1.00000E+00  1.27407E-01
      21    -1     0     0   502   501  0.000000000E+00  0.000000000E+00  3.016987428E+01  3.016987428E+01  0.000000000E+00  0.00000E+00  9.000E+00
      21    -1     0     0   512   502  0.000000000E+00  0.000000000E+00 -3.008526499E+03  3.008526499E+03  0.000000000E+00  0.00000E+00  9.000E+00
      25     1     1     2     0     0  9.678873309E+00  6.167220697E+01 -1.879049469E+02  2.341589434E+02  1.250000000E+02  0.00000E+00  9.000E+00
      25     1     1     2     0     0  6.087770966E+01 -1.066958701E+02 -2.326861788E+03  2.333452568E+03  1.250000000E+02  0.00000E+00  9.000E+00
      21     1     1     2   512   501 -7.055658297E+01  4.502366314E+01 -4.635898898E+02  4.710848624E+02  5.394796609E-06  0.00000E+00  9.000E+00
#rwgt            1           1   5.0445045301367390E-002          10       69054           0
</event>
<event>
      5   9999  3.19816E-02  6.75151E+02 -1.00000E+00  9.52826E-02
      21    -1     0     0   511   501  0.000000000E+00  0.000000000E+00  1.869315615E+03  1.869315615E+03  0.000000000E+00  0.00000E+00  9.000E+00
      21    -1     0     0   501   502  0.000000000E+00  0.000000000E+00 -8.302079719E+02  8.302079719E+02  0.000000000E+00  0.00000E+00  9.000E+00
      25     1     1     2     0     0  7.942431735E+02  1.805730684E+02 -4.299302641E+02  9.294589199E+02  1.250000000E+02  0.00000E+00  9.000E+00
      25     1     1     2     0     0 -2.036516106E+02  1.465830639E+02  2.456008120E+02  3.727000563E+02  1.250000000E+02  0.00000E+00  9.000E+00
      21     1     1     2   511   502 -5.905915630E+02 -3.271561323E+02  1.223437095E+03  1.397364611E+03  2.157918644E-05  0.00000E+00  9.000E+00
#rwgt            2          11   1.0662526557168354E-003          10       69223           0
</event>
<event>
      5   9999  3.19816E-02  7.56124E+01 -1.00000E+00  1.29546E-01
      21    -1     0     0   502   501  0.000000000E+00  0.000000000E+00  3.786260764E+02  3.786260764E+02  0.000000000E+00  0.00000E+00  9.000E+00
      21    -1     0     0   501   512  0.000000000E+00  0.000000000E+00 -2.910812855E+02  2.910812855E+02  0.000000000E+00  0.00000E+00  9.000E+00
      25     1     1     2     0     0  7.012573493E+01  1.850847810E+02  2.066194310E+02  3.122348221E+02  1.250000000E+02  0.00000E+00  9.000E+00
      25     1     1     2     0     0 -5.410730280E+00 -2.241899005E+02 -1.161833782E+02  2.818048347E+02  1.250000000E+02  0.00000E+00  9.000E+00
      21     1     1     2   502   512 -6.471500465E+01  3.910511948E+01 -2.891261870E+00  7.566770507E+01  2.421152116E-07  0.00000E+00  9.000E+00
#rwgt            1           1   2.7019433810032606E-002          10       69243           0
</event>
<event>
      5   9999  3.19816E-02  3.51805E+01 -1.00000E+00  1.48385E-01
      21    -1     0     0   502   501  0.000000000E+00  0.000000000E+00  8.164453871E+02  8.164453871E+02  0.000000000E+00  0.00000E+00  9.000E+00
      21    -1     0     0   511   502  0.000000000E+00  0.000000000E+00 -2.444553568E+02  2.444553568E+02  0.000000000E+00  0.00000E+00  9.000E+00
      25     1     1     2     0     0  6.952358526E-01 -8.124047457E+01 -2.002069542E+02  2.496163508E+02  1.250000000E+02  0.00000E+00  9.000E+00
      25     1     1     2     0     0 -2.055852591E+01  5.220404211E+01  7.626106631E+02  7.748212300E+02  1.250000000E+02  0.00000E+00  9.000E+00
      21     1     1     2   511   501  1.986329005E+01  2.903643246E+01  9.586321385E+00  3.646316304E+01  6.637292341E-07  0.00000E+00  9.000E+00
#rwgt            1           1   2.6212894207076141E-002          10       69355           0
</event>
<event>
      5   9999  3.19816E-02  2.13553E+02 -1.00000E+00  1.10621E-01
       2    -1     0     0   502     0  0.000000000E+00  0.000000000E+00  1.893895473E+03  1.893895473E+03  0.000000000E+00  0.00000E+00  9.000E+00
      21    -1     0     0   501   502  0.000000000E+00  0.000000000E+00 -6.024432775E+02  6.024432775E+02  0.000000000E+00  0.00000E+00  9.000E+00
      25     1     1     2     0     0 -7.460306931E+01  1.468438395E+02 -4.670624738E+02  5.107847742E+02  1.250000000E+02  0.00000E+00  9.000E+00
      25     1     1     2     0     0  1.183548240E+02  6.217882668E+01 -2.901505828E+01  1.853130985E+02  1.250000000E+02  0.00000E+00  9.000E+00
       2     1     1     2   501     0 -4.375175472E+01 -2.090226661E+02  1.787529728E+03  1.800240878E+03  2.157918644E-05  0.00000E+00  9.000E+00
#rwgt            2          18   6.2913361357213246E-002          10       69498           0
</event>
<event>
      5   9999  3.19816E-02  1.73838E+02 -1.00000E+00  1.13910E-01
      21    -1     0     0   502   501  0.000000000E+00  0.000000000E+00  3.163255275E+02  3.163255275E+02  0.000000000E+00  0.00000E+00  9.000E+00
      21    -1     0     0   511   502  0.000000000E+00  0.000000000E+00 -1.589027837E+03  1.589027837E+03  0.000000000E+00  0.00000E+00  9.000E+00
      25     1     1     2     0     0  1.433041310E+02  1.542289598E+02 -3.173269428E+02  4.008042348E+02  1.250000000E+02  0.00000E+00  9.000E+00
      25     1     1     2     0     0  2.631277013E+01 -1.923046577E+02  2.185016917E+02  3.178701504E+02  1.250000000E+02  0.00000E+00  9.000E+00
      21     1     1     2   511   501 -1.696169011E+02  3.807569788E+01 -1.173877059E+03  1.186678980E+03  2.157918644E-05  0.00000E+00  9.000E+00
#rwgt            1           1   2.8797951526195666E-002          10       69517           0
</event>
<event>
      5   9999  3.19816E-02  3.29775E+01 -1.00000E+00  1.50239E-01
      21    -1     0     0   502   501  0.000000000E+00  0.000000000E+00  4.432548786E+02  4.432548786E+02  0.000000000E+00  0.00000E+00  9.000E+00
      21    -1     0     0   501   512  0.000000000E+00  0.000000000E+00 -5.866859263E+02  5.866859263E+02  0.000000000E+00  0.00000E+00  9.000E+00
      25     1     1     2     0     0  4.179868236E+02  1.324936142E+02 -2.786169117E+02  5.343406460E+02  1.250000000E+02  0.00000E+00  9.000E+00
      25     1     1     2     0     0 -3.872476129E+02 -1.205515027E+02  1.607990181E+02  4.538443596E+02  1.250000000E+02  0.00000E+00  9.000E+00
      21     1     1     2   502   512 -3.073921070E+01 -1.194211148E+01 -2.561315425E+01  4.175579926E+01  0.000000000E+00  0.00000E+00  9.000E+00
#rwgt            1           1   2.6849935692371554E-002          10       69570           0
</event>
<event>
      5   9999  3.19816E-02  2.89377E+01 -1.00000E+00  1.54135E-01
      21    -1     0     0   502   511  0.000000000E+00  0.000000000E+00  3.954441220E+02  3.954441220E+02  0.000000000E+00  0.00000E+00  9.000E+00
      21    -1     0     0   501   502  0.000000000E+00  0.000000000E+00 -2.167503464E+02  2.167503464E+02  0.000000000E+00  0.00000E+00  9.000E+00
      25     1     1     2     0     0 -1.730927640E+02  1.330527304E+02  1.865436579E+02  3.131895118E+02  1.250000000E+02  0.00000E+00  9.000E+00
      25     1     1     2     0     0  1.736354252E+02 -1.041201507E+02 -5.450656217E+01  2.441029127E+02  1.250000000E+02  0.00000E+00  9.000E+00
      21     1     1     2   501   511 -5.426612029E-01 -2.893257974E+01  4.665667986E+01  5.490204393E+01  6.743495762E-07  0.00000E+00  9.000E+00
#rwgt            1           1   2.7054845347263698E-002          10       69720           0
</event>
<event>
      5   9999  3.19816E-02  1.60954E+02 -1.00000E+00  1.15193E-01
       1    -1     0     0   502     0  0.000000000E+00  0.000000000E+00  1.538081818E+03  1.538081818E+03  0.000000000E+00  0.00000E+00  9.000E+00
      21    -1     0     0   501   502  0.000000000E+00  0.000000000E+00 -1.109298355E+02  1.109298355E+02  0.000000000E+00  0.00000E+00  9.000E+00
      25     1     1     2     0     0  2.255298444E+01 -5.042652152E+01  1.976736893E+02  2.403151235E+02  1.250000000E+02  0.00000E+00  9.000E+00
      25     1     1     2     0     0  1.327828732E+02  9.257885819E+01  4.001729855E+01  2.083951069E+02  1.250000000E+02  0.00000E+00  9.000E+00
       1     1     1     2   501     0 -1.553358577E+02 -4.215233668E+01  1.189460994E+03  1.200301423E+03  2.157918644E-05  0.00000E+00  9.000E+00
#rwgt            1           1   2.3775670358783856E-002          10       69864           0
</event>
<event>
      5   9999  3.19816E-02  4.89494E+01 -1.00000E+00  1.39604E-01
      21    -1     0     0   511   501  0.000000000E+00  0.000000000E+00  6.540621410E+02  6.540621410E+02  0.000000000E+00  0.00000E+00  9.000E+00
      21    -1     0     0   501   502  0.000000000E+00  0.000000000E+00 -1.442502183E+02  1.442502183E+02  0.000000000E+00  0.00000E+00  9.000E+00
      25     1     1     2     0     0  8.729948192E+01  2.122110471E+02  3.719988126E+02  4.546018529E+02  1.250000000E+02  0.00000E+00  9.000E+00
      25     1     1     2     0     0 -5.262137538E+01 -1.776643884E+02  3.027417557E+01  2.255552477E+02  1.250000000E+02  0.00000E+00  9.000E+00
      21     1     1     2   511   502 -3.467810654E+01 -3.454665871E+01  1.075389345E+02  1.181552586E+02  1.348699152E-06  0.00000E+00  9.000E+00
#rwgt            2          11   2.0917621316083575E-003          10       69980           0
</event>
<event>
      5   9999  3.19816E-02  1.29044E+02 -1.00000E+00  1.19044E-01
      21    -1     0     0   502   501  0.000000000E+00  0.000000000E+00  8.888632256E+01  8.888632256E+01  0.000000000E+00  0.00000E+00  9.000E+00
       1    -1     0     0   501     0  0.000000000E+00  0.000000000E+00 -4.138265702E+03  4.138265702E+03  0.000000000E+00  0.00000E+00  9.000E+00
      25     1     1     2     0     0 -8.272456538E+01 -1.007413542E+02 -6.727506986E+02  6.965706544E+02  1.250000000E+02  0.00000E+00  9.000E+00
      25     1     1     2     0     0 -3.364515086E+01  1.565116581E+02 -6.047810749E+01  2.119209683E+02  1.250000000E+02  0.00000E+00  9.000E+00
       1     1     1     2   502     0  1.163697162E+02 -5.577030390E+01 -3.316150573E+03  3.318660402E+03  0.000000000E+00  0.00000E+00  9.000E+00
#rwgt            2          12   1.8103309542747255E-004          10       70045           0
</event>
<event>
      5   9999  3.19816E-02  1.04382E+02 -1.00000E+00  1.22996E-01
      21    -1     0     0   502   501  0.000000000E+00  0.000000000E+00  4.649499451E+02  4.649499451E+02  0.000000000E+00  0.00000E+00  9.000E+00
      21    -1     0     0   511   502  0.000000000E+00  0.000000000E+00 -1.115588080E+03  1.115588080E+03  0.000000000E+00  0.00000E+00  9.000E+00
      25     1     1     2     0     0  4.806676616E+01  1.454788072E+02 -4.858488573E+02  5.245460985E+02  1.250000000E+02  0.00000E+00  9.000E+00
      25     1     1     2     0     0 -1.104456122E+02 -6.178613203E+01  4.230668841E+02  4.589404621E+02  1.250000000E+02  0.00000E+00  9.000E+00
      21     1     1     2   511   501  6.237884602E+01 -8.369267513E+01 -5.878561619E+02  5.970514646E+02  0.000000000E+00  0.00000E+00  9.000E+00
#rwgt            1           1   2.9921671347466500E-002          10       70079           0
</event>
<event>
      5   9999  3.19816E-02  2.38009E+02 -1.00000E+00  1.08965E-01
      21    -1     0     0   502   501  0.000000000E+00  0.000000000E+00  3.199892827E+02  3.199892827E+02  0.000000000E+00  0.00000E+00  9.000E+00
      21    -1     0     0   512   502  0.000000000E+00  0.000000000E+00 -1.373107886E+03  1.373107886E+03  0.000000000E+00  0.00000E+00  9.000E+00
      25     1     1     2     0     0  1.610086705E+02  1.486792806E+02  1.232813951E+02  2.808070918E+02  1.250000000E+02  0.00000E+00  9.000E+00
      25     1     1     2     0     0 -3.852066408E+02 -6.878179413E+01 -3.123123739E+02  5.160223932E+02  1.250000000E+02  0.00000E+00  9.000E+00
      21     1     1     2   512   501  2.241979704E+02 -7.989748648E+01 -8.640876245E+02  8.962676838E+02  0.000000000E+00  0.00000E+00  9.000E+00
#rwgt            2          11   2.0232466909463616E-003          10       70123           0
</event>
<event>
      5   9999  3.19816E-02  1.46651E+02 -1.00000E+00  1.16784E-01
      21    -1     0     0   502   501  0.000000000E+00  0.000000000E+00  1.711464238E+02  1.711464238E+02  0.000000000E+00  0.00000E+00  9.000E+00
       2    -1     0     0   501     0  0.000000000E+00  0.000000000E+00 -9.020939314E+02  9.020939314E+02  0.000000000E+00  0.00000E+00  9.000E+00
      25     1     1     2     0     0 -1.645344478E+02 -1.305026575E+02 -8.630906515E+00  2.445445168E+02  1.250000000E+02  0.00000E+00  9.000E+00
      25     1     1     2     0     0  1.789674465E+01  1.285154684E+02 -6.303503398E+02  6.555936775E+02  1.250000000E+02  0.00000E+00  9.000E+00
       2     1     1     2   502     0  1.466377032E+02  1.987189097E+00 -9.196626125E+01  1.731021609E+02  1.348699152E-06  0.00000E+00  9.000E+00
#rwgt            1           1   2.6882381766404759E-002          10       70188           0
</event>
<event>
      5   9999  3.19816E-02  8.27523E+01 -1.00000E+00  1.27642E-01
      21    -1     0     0   502   511  0.000000000E+00  0.000000000E+00  6.318537885E+02  6.318537885E+02  0.000000000E+00  0.00000E+00  9.000E+00
      21    -1     0     0   501   502  0.000000000E+00  0.000000000E+00 -5.749595672E+02  5.749595672E+02  0.000000000E+00  0.00000E+00  9.000E+00
      25     1     1     2     0     0  5.497854204E+02  1.386240876E+02  7.367897911E+01  5.852642464E+02  1.250000000E+02  0.00000E+00  9.000E+00
      25     1     1     2     0     0 -4.868231432E+02 -1.923240579E+02 -2.227113627E+01  5.386151869E+02  1.250000000E+02  0.00000E+00  9.000E+00
      21     1     1     2   501   511 -6.296227711E+01  5.369997022E+01  5.486378424E+00  8.293392242E+01  1.842930893E-06  0.00000E+00  9.000E+00
#rwgt            1           1   2.9806845527773684E-002          10       70231           0
</event>
<event>
      5   9999  3.19816E-02  3.62038E+01 -1.00000E+00  1.47578E-01
      21    -1     0     0   502   512  0.000000000E+00  0.000000000E+00  1.676920355E+02  1.676920355E+02  0.000000000E+00  0.00000E+00  9.000E+00
      21    -1     0     0   501   502  0.000000000E+00  0.000000000E+00 -1.497657125E+03  1.497657125E+03  0.000000000E+00  0.00000E+00  9.000E+00
      25     1     1     2     0     0 -1.340606157E+02 -3.428686698E+02 -7.149328563E+02  8.138090454E+02  1.250000000E+02  0.00000E+00  9.000E+00
      25     1     1     2     0     0  1.661062969E+02  3.597146832E+02 -6.684302805E+02  7.870260447E+02  1.250000000E+02  0.00000E+00  9.000E+00
      21     1     1     2   501   512 -3.204568114E+01 -1.684601337E+01  5.339804713E+01  6.451407043E+01  0.000000000E+00  0.00000E+00  9.000E+00
#rwgt            1           1   3.0270074581471955E-002          10       70337           0
</event>
<event>
      5   9999  3.19816E-02  3.52434E+02 -1.00000E+00  1.03368E-01
      21    -1     0     0   511   501  0.000000000E+00  0.000000000E+00  1.678217916E+03  1.678217916E+03  0.000000000E+00  0.00000E+00  9.000E+00
      21    -1     0     0   501   502  0.000000000E+00  0.000000000E+00 -7.087721006E+02  7.087721006E+02  0.000000000E+00  0.00000E+00  9.000E+00
      25     1     1     2     0     0  2.866032689E+02 -6.515216723E+02  3.841627222E+02  8.184301560E+02  1.250000000E+02  0.00000E+00  9.000E+00
      25     1     1     2     0     0 -4.163334300E+02  9.792098219E+02  2.930152108E+02  1.110706223E+03  1.250000000E+02  0.00000E+00  9.000E+00
      21     1     1     2   511   502  1.297301611E+02 -3.276881496E+02  2.922678821E+02  4.578536372E+02  3.814697266E-06  0.00000E+00  9.000E+00
#rwgt            2          11   4.1117456925685962E-003          10       70504           0
</event>
<event>
      5   9999  3.19816E-02  6.17895E+01 -1.00000E+00  1.34025E-01
      21    -1     0     0   502   501  0.000000000E+00  0.000000000E+00  8.082557122E+02  8.082557122E+02  0.000000000E+00  0.00000E+00  9.000E+00
       1    -1     0     0   501     0  0.000000000E+00  0.000000000E+00 -6.817629530E+02  6.817629530E+02  0.000000000E+00  0.00000E+00  9.000E+00
      25     1     1     2     0     0  1.653122174E+02 -4.620477214E+02  3.639017494E+02  6.235909791E+02  1.250000000E+02  0.00000E+00  9.000E+00
      25     1     1     2     0     0 -1.438573790E+02  4.041026281E+02  1.521616118E+02  4.719873257E+02  1.250000000E+02  0.00000E+00  9.000E+00
       1     1     1     2   502     0 -2.145483839E+01  5.794509329E+01 -3.895706019E+02  3.944403603E+02  7.629394531E-06  0.00000E+00  9.000E+00
#rwgt            1           1   2.9652175904239374E-002          10       70539           0
</event>
<event>
      5   9999  3.19816E-02  1.73772E+02 -1.00000E+00  1.13917E-01
      21    -1     0     0   502   501  0.000000000E+00  0.000000000E+00  5.801550976E+02  5.801550976E+02  0.000000000E+00  0.00000E+00  9.000E+00
      21    -1     0     0   501   511  0.000000000E+00  0.000000000E+00 -3.068696983E+02  3.068696983E+02  0.000000000E+00  0.00000E+00  9.000E+00
      25     1     1     2     0     0  1.635690346E+02  2.631801685E+01  2.798044417E+02  3.483719172E+02  1.250000000E+02  0.00000E+00  9.000E+00
      25     1     1     2     0     0 -3.269534207E+02 -8.549731796E+01 -3.703410954E+01  3.622221086E+02  1.250000000E+02  0.00000E+00  9.000E+00
      21     1     1     2   502   511  1.633843861E+02  5.917930112E+01  3.051506721E+01  1.764307701E+02  2.477718555E-06  0.00000E+00  9.000E+00
#rwgt            2          11   3.5579154524397745E-003          10       70632           0
</event>
<event>
      5   9999  3.19816E-02  3.11582E+02 -1.00000E+00  1.05060E-01
       2    -1     0     0   502     0  0.000000000E+00  0.000000000E+00  2.910785987E+03  2.910785987E+03  0.000000000E+00  0.00000E+00  9.000E+00
      21    -1     0     0   501   502  0.000000000E+00  0.000000000E+00 -1.266688507E+02  1.266688507E+02  0.000000000E+00  0.00000E+00  9.000E+00
      25     1     1     2     0     0  6.162679191E+01 -1.459164450E+02  8.398865353E+01  2.185602075E+02  1.250000000E+02  0.00000E+00  9.000E+00
      25     1     1     2     0     0 -2.512372381E+02  3.931639810E+02  1.366785041E+03  1.449629061E+03  1.250000000E+02  0.00000E+00  9.000E+00
       2     1     1     2   501     0  1.896104462E+02 -2.472475360E+02  1.333343441E+03  1.369265569E+03  2.157918644E-05  0.00000E+00  9.000E+00
#rwgt            1           1   3.0588438128789634E-002          10       70652           0
</event>
<event>
      5   9999  3.19816E-02  4.13694E+01 -1.00000E+00  1.43939E-01
      21    -1     0     0   502   501  0.000000000E+00  0.000000000E+00  2.847059916E+03  2.847059916E+03  0.000000000E+00  0.00000E+00  9.000E+00
      21    -1     0     0   511   502  0.000000000E+00  0.000000000E+00 -3.593992025E+02  3.593992025E+02  0.000000000E+00  0.00000E+00  9.000E+00
      25     1     1     2     0     0  3.875413970E+02 -6.643498280E+02  2.264117433E+03  2.394452292E+03  1.250000000E+02  0.00000E+00  9.000E+00
      25     1     1     2     0     0 -3.610427438E+02  6.325811435E+02  2.162458825E+02  7.699987322E+02  1.250000000E+02  0.00000E+00  9.000E+00
      21     1     1     2   511   501 -2.649865324E+01  3.176868447E+01  7.297397518E+00  4.200809383E+01  5.591411304E-07  0.00000E+00  9.000E+00
#rwgt            1           1   3.4723155077619569E-002          10       70704           0
</event>
<event>
      5   9999  3.19816E-02  2.76699E+01 -1.00000E+00  1.55519E-01
       2    -1     0     0   502     0  0.000000000E+00  0.000000000E+00  3.344770037E+02  3.344770037E+02  0.000000000E+00  0.00000E+00  9.000E+00
      21    -1     0     0   501   502  0.000000000E+00  0.000000000E+00 -1.583071311E+02  1.583071311E+02  0.000000000E+00  0.00000E+00  9.000E+00
      25     1     1     2     0     0 -1.250830735E+02 -6.269216507E+01  5.495796489E+00  1.876999910E+02  1.250000000E+02  0.00000E+00  9.000E+00
      25     1     1     2     0     0  1.511875723E+02  7.186693804E+01  1.050052699E+02  2.338239627E+02  1.250000000E+02  0.00000E+00  9.000E+00
       2     1     1     2   501     0 -2.610449876E+01 -9.174772967E+00  6.566880620E+01  7.126018118E+01  1.651812370E-06  0.00000E+00  9.000E+00
#rwgt            1           1   2.4802295131792895E-002          10       70921           0
</event>
<event>
      5   9999  3.19816E-02  1.05358E+01 -1.00000E+00  1.93173E-01
      21    -1     0     0   502   501  0.000000000E+00  0.000000000E+00  2.341644499E+02  2.341644499E+02  0.000000000E+00  0.00000E+00  9.000E+00
      21    -1     0     0   501   511  0.000000000E+00  0.000000000E+00 -2.382921599E+02  2.382921599E+02  0.000000000E+00  0.00000E+00  9.000E+00
      25     1     1     2     0     0 -1.819972933E+02  7.341800793E+00 -3.174292098E+01  2.231804871E+02  1.250000000E+02  0.00000E+00  9.000E+00
      25     1     1     2     0     0  1.849714095E+02 -1.744914606E+01  4.551374416E+01  2.285068837E+02  1.250000000E+02  0.00000E+00  9.000E+00
      21     1     1     2   502   511 -2.974116199E+00  1.010734527E+01 -1.789853321E+01  2.076923895E+01  2.384185791E-07  0.00000E+00  9.000E+00
#rwgt            1           1   3.3588733679578653E-002          10       70981           0
</event>
<event>
      5   9999  3.19816E-02  3.78824E+02 -1.00000E+00  1.02401E-01
      21    -1     0     0   502   512  0.000000000E+00  0.000000000E+00  1.515627699E+03  1.515627699E+03  0.000000000E+00  0.00000E+00  9.000E+00
      21    -1     0     0   501   502  0.000000000E+00  0.000000000E+00 -1.260506612E+03  1.260506612E+03  0.000000000E+00  0.00000E+00  9.000E+00
      25     1     1     2     0     0 -2.692298641E+02 -8.380596580E+02  6.510169344E+02  1.101942267E+03  1.250000000E+02  0.00000E+00  9.000E+00
      25     1     1     2     0     0  6.479792774E+02  8.455756691E+02 -6.151525777E+02  1.236492236E+03  1.250000000E+02  0.00000E+00  9.000E+00
      21     1     1     2   501   512 -3.787494133E+02 -7.516011081E+00  2.192567300E+02  4.376998083E+02  5.394796609E-06  0.00000E+00  9.000E+00
#rwgt            2          11   5.2836352325769760E-003          10       71195           0
</event>
<event>
      5   9999  3.19816E-02  6.23806E+01 -1.00000E+00  1.33807E-01
      21    -1     0     0   502   511  0.000000000E+00  0.000000000E+00  8.817660566E+02  8.817660566E+02  0.000000000E+00  0.00000E+00  9.000E+00
      21    -1     0     0   501   502  0.000000000E+00  0.000000000E+00 -3.682705945E+02  3.682705945E+02  0.000000000E+00  0.00000E+00  9.000E+00
      25     1     1     2     0     0 -4.874360900E+02 -3.975002480E+01  4.047553231E+02  6.470130431E+02  1.250000000E+02  0.00000E+00  9.000E+00
      25     1     1     2     0     0  4.482138636E+02  8.825725312E+01 -4.616586003E+00  4.736362773E+02  1.250000000E+02  0.00000E+00  9.000E+00
      21     1     1     2   501   511  3.922222641E+01 -4.850722831E+01  1.133567250E+02  1.293873307E+02  1.907348633E-06  0.00000E+00  9.000E+00
#rwgt            1           1   3.3355502317854537E-002          10       71215           0
</event>
<event>
      5   9999  3.19816E-02  7.85061E+01 -1.00000E+00  1.28747E-01
      21    -1     0     0   502   501  0.000000000E+00  0.000000000E+00  9.905761005E+01  9.905761005E+01  0.000000000E+00  0.00000E+00  9.000E+00
      21    -1     0     0   501   512  0.000000000E+00  0.000000000E+00 -1.106973270E+03  1.106973270E+03  0.000000000E+00  0.00000E+00  9.000E+00
      25     1     1     2     0     0  6.566225308E+01  2.353297305E+02 -2.097804176E+02  3.454336943E+02  1.250000000E+02  0.00000E+00  9.000E+00
      25     1     1     2     0     0  7.062849058E+00 -2.057616450E+02 -6.451516171E+02  6.886460248E+02  1.250000000E+02  0.00000E+00  9.000E+00
      21     1     1     2   502   512 -7.272510214E+01 -2.956808551E+01 -1.529836253E+02  1.719511610E+02  2.697398305E-06  0.00000E+00  9.000E+00
#rwgt            1           1   2.8553540981453171E-002          10       71340           0
</event>
<event>
      5   9999  3.19816E-02  3.97015E+01 -1.00000E+00  1.45042E-01
      21    -1     0     0   502   501  0.000000000E+00  0.000000000E+00  1.453082092E+02  1.453082092E+02  0.000000000E+00  0.00000E+00  9.000E+00
      21    -1     0     0   511   502  0.000000000E+00  0.000000000E+00 -1.155283869E+03  1.155283869E+03  0.000000000E+00  0.00000E+00  9.000E+00
      25     1     1     2     0     0  2.912194199E+02 -4.018873965E+01 -8.095961200E+02  8.703417506E+02  1.250000000E+02  0.00000E+00  9.000E+00
      25     1     1     2     0     0 -2.532540970E+02  5.180108082E+01 -7.221295900E+01  2.960754990E+02  1.250000000E+02  0.00000E+00  9.000E+00
      21     1     1     2   511   501 -3.796532286E+01 -1.161234118E+01 -1.281665809E+02  1.341748287E+02  0.000000000E+00  0.00000E+00  9.000E+00
#rwgt            1           1   2.8193079315269778E-002          10       71430           0
</event>
<event>
      5   9999  3.19816E-02  3.99593E+02 -1.00000E+00  1.01699E-01
      21    -1     0     0   502   501  0.000000000E+00  0.000000000E+00  1.219734663E+03  1.219734663E+03  0.000000000E+00  0.00000E+00  9.000E+00
       3    -1     0     0   501     0  0.000000000E+00  0.000000000E+00 -3.687451125E+03  3.687451125E+03  0.000000000E+00  0.00000E+00  9.000E+00
      25     1     1     2     0     0 -6.309501953E+02 -1.351443801E+03 -2.682192418E+02  1.520547618E+03  1.250000000E+02  0.00000E+00  9.000E+00
      25     1     1     2     0     0  2.929992100E+02  1.564665277E+03 -5.490737162E+02  1.688529808E+03  1.250000000E+02  0.00000E+00  9.000E+00
       3     1     1     2   502     0  3.379509852E+02 -2.132214756E+02 -1.650423505E+03  1.698108362E+03  3.737624730E-05  0.00000E+00  9.000E+00
#rwgt            2          14   6.7376122661547044E-005          10       71544           0
</event>
<event>
      5   9999  3.19816E-02  4.50614E+01 -1.00000E+00  1.41702E-01
      21    -1     0     0   502   511  0.000000000E+00  0.000000000E+00  4.123084335E+02  4.123084335E+02  0.000000000E+00  0.00000E+00  9.000E+00
      21    -1     0     0   501   502  0.000000000E+00  0.000000000E+00 -6.187941506E+02  6.187941506E+02  0.000000000E+00  0.00000E+00  9.000E+00
      25     1     1     2     0     0 -1.268871967E+02 -2.272964244E+02 -9.000196243E+01  3.024721118E+02  1.250000000E+02  0.00000E+00  9.000E+00
      25     1     1     2     0     0  9.462932771E+01  1.958327664E+02 -3.832687300E+02  4.580666998E+02  1.250000000E+02  0.00000E+00  9.000E+00
      21     1     1     2   501   511  3.225786895E+01  3.146365791E+01  2.667849754E+02  2.705637725E+02  3.814697266E-06  0.00000E+00  9.000E+00
#rwgt            1           1   2.8489966424171634E-002          10       71563           0
</event>
<event>
      5   9999  3.19816E-02  1.46043E+02 -1.00000E+00  1.16856E-01
      21    -1     0     0   502   512  0.000000000E+00  0.000000000E+00  4.774225262E+01  4.774225262E+01  0.000000000E+00  0.00000E+00  9.000E+00
      21    -1     0     0   501   502  0.000000000E+00  0.000000000E+00 -1.235151819E+03  1.235151819E+03  0.000000000E+00  0.00000E+00  9.000E+00
      25     1     1     2     0     0 -4.284673582E+01  4.198187742E+01 -3.620132030E+02  3.876556203E+02  1.250000000E+02  0.00000E+00  9.000E+00
      25     1     1     2     0     0  1.417097187E+02  6.551102169E+01 -5.032545201E+02  5.415380414E+02  1.250000000E+02  0.00000E+00  9.000E+00
      21     1     1     2   501   512 -9.886298286E+01 -1.074928991E+02 -3.221418431E+02  3.537004097E+02  3.814697266E-06  0.00000E+00  9.000E+00
#rwgt            1           1   6.4196368493442027E-002          10       71610           0
</event>
<event>
      5   9999  3.19816E-02  5.03226E+01 -1.00000E+00  1.38916E-01
      21    -1     0     0   502   511  0.000000000E+00  0.000000000E+00  1.546483092E+02  1.546483092E+02  0.000000000E+00  0.00000E+00  9.000E+00
      21    -1     0     0   501   502  0.000000000E+00  0.000000000E+00 -9.369857540E+02  9.369857540E+02  0.000000000E+00  0.00000E+00  9.000E+00
      25     1     1     2     0     0  4.379565136E+01  1.676256199E+02 -6.175661343E+02  6.534748180E+02  1.250000000E+02  0.00000E+00  9.000E+00
      25     1     1     2     0     0 -9.204529195E+01 -1.533310054E+02 -2.545333187E+02  3.352535508E+02  1.250000000E+02  0.00000E+00  9.000E+00
      21     1     1     2   501   511  4.824964059E+01 -1.429461451E+01  8.976200819E+01  1.029056944E+02  1.348699152E-06  0.00000E+00  9.000E+00
#rwgt            1           1   3.6094405727004834E-002          10       71652           0
</event>
<event>
      5   9999  3.19816E-02  1.07159E+02 -1.00000E+00  1.22492E-01
      21    -1     0     0   502   501  0.000000000E+00  0.000000000E+00  3.241028801E+02  3.241028801E+02  0.000000000E+00  0.00000E+00  9.000E+00
      21    -1     0     0   501   512  0.000000000E+00  0.000000000E+00 -1.186957662E+03  1.186957662E+03  0.000000000E+00  0.00000E+00  9.000E+00
      25     1     1     2     0     0  6.456726264E+01 -1.591863768E+02 -9.024050215E+01  2.308193713E+02  1.250000000E+02  0.00000E+00  9.000E+00
      25     1     1     2     0     0 -1.712188461E+02  1.487744062E+02  1.839667946E+02  3.176767204E+02  1.250000000E+02  0.00000E+00  9.000E+00
      21     1     1     2   502   512  1.066515835E+02  1.041197061E+01 -9.565810740E+02  9.625644501E+02  0.000000000E+00  0.00000E+00  9.000E+00
#rwgt            1           1   2.7035379273092366E-002          10       71725           0
</event>
<event>
      5   9999  3.19816E-02  9.85682E+01 -1.00000E+00  1.24110E-01
      21    -1     0     0   502   501  0.000000000E+00  0.000000000E+00  5.399532925E+02  5.399532925E+02  0.000000000E+00  0.00000E+00  9.000E+00
      21    -1     0     0   511   502  0.000000000E+00  0.000000000E+00 -1.548561715E+02  1.548561715E+02  0.000000000E+00  0.00000E+00  9.000E+00
      25     1     1     2     0     0 -1.461018220E+02 -1.550408291E+02  1.209439718E+02  2.750197182E+02  1.250000000E+02  0.00000E+00  9.000E+00
      25     1     1     2     0     0  5.057702087E+01  1.793451460E+02  2.100090689E+02  3.073296690E+02  1.250000000E+02  0.00000E+00  9.000E+00
      21     1     1     2   511   501  9.552480113E+01 -2.430431691E+01  5.414408027E+01  1.124600768E+02  1.651812370E-06  0.00000E+00  9.000E+00
#rwgt            1           1   2.9652045595405397E-002          10       71773           0
</event>
<event>
      5   9999  3.19816E-02  5.94595E+01 -1.00000E+00  1.34914E-01
      21    -1     0     0   502   501  0.000000000E+00  0.000000000E+00  7.076797705E+02  7.076797705E+02  0.000000000E+00  0.00000E+00  9.000E+00
      21    -1     0     0   501   512  0.000000000E+00  0.000000000E+00 -2.468704089E+02  2.468704089E+02  0.000000000E+00  0.00000E+00  9.000E+00
      25     1     1     2     0     0 -4.587282945E+01  1.821600340E+02  5.374183532E+02  5.828636898E+02  1.250000000E+02  0.00000E+00  9.000E+00
      25     1     1     2     0     0  1.019884066E+02 -2.018190712E+02  1.902594308E+01  2.590744277E+02  1.250000000E+02  0.00000E+00  9.000E+00
      21     1     1     2   502   512 -5.611557716E+01  1.965903720E+01 -9.563493476E+01  1.126120619E+02  1.348699152E-06  0.00000E+00  9.000E+00
#rwgt            1           1   2.9562680574848389E-002          10       71827           0
</event>
<event>
      5   9999  3.19816E-02  3.71225E+01 -1.00000E+00  1.46880E-01
      21    -1     0     0   502   501  0.000000000E+00  0.000000000E+00  2.420025766E+02  2.420025766E+02  0.000000000E+00  0.00000E+00  9.000E+00
      21    -1     0     0   501   511  0.000000000E+00  0.000000000E+00 -7.637478071E+02  7.637478071E+02  0.000000000E+00  0.00000E+00  9.000E+00
      25     1     1     2     0     0  8.298414808E+01 -6.536227070E+01  8.657826302E+01  1.851469441E+02  1.250000000E+02  0.00000E+00  9.000E+00
      25     1     1     2     0     0 -1.163957702E+02  8.154069668E+01  2.078150283E+01  1.904041265E+02  1.250000000E+02  0.00000E+00  9.000E+00
      21     1     1     2   502   511  3.341162207E+01 -1.617842598E+01 -6.291049963E+02  6.301993132E+02  0.000000000E+00  0.00000E+00  9.000E+00
#rwgt            1           1   2.8928364181275656E-002          10       71909           0
</event>
<event>
      5   9999  3.19816E-02  2.98845E+02 -1.00000E+00  1.05646E-01
      21    -1     0     0   502   501  0.000000000E+00  0.000000000E+00  7.619218285E+02  7.619218285E+02  0.000000000E+00  0.00000E+00  9.000E+00
      -4    -1     0     0     0   502  0.000000000E+00  0.000000000E+00 -6.714578703E+02  6.714578703E+02  0.000000000E+00  0.00000E+00  9.000E+00
      25     1     1     2     0     0 -4.404417825E+02  1.091225902E+02 -3.720187761E+02  5.999330573E+02  1.250000000E+02  0.00000E+00  9.000E+00
      25     1     1     2     0     0  1.921760826E+02  5.722858537E+01  4.790376263E+02  5.341430568E+02  1.250000000E+02  0.00000E+00  9.000E+00
      -4     1     1     2     0   501  2.482656999E+02 -1.663511756E+02 -1.655489207E+01  2.993035847E+02  1.215700987E-06  0.00000E+00  9.000E+00
#rwgt            1           1   2.4904816800636907E-002          10       72012           0
</event>
<event>
      5   9999  3.19816E-02  1.64146E+02 -1.00000E+00  1.14863E-01
      21    -1     0     0   502   501  0.000000000E+00  0.000000000E+00  3.322914670E+02  3.322914670E+02  0.000000000E+00  0.00000E+00  9.000E+00
      21    -1     0     0   511   502  0.000000000E+00  0.000000000E+00 -1.215168634E+03  1.215168634E+03  0.000000000E+00  0.00000E+00  9.000E+00
      25     1     1     2     0     0 -3.328898073E+02 -2.472988667E+01  7.701964410E+01  3.646700107E+02  1.250000000E+02  0.00000E+00  9.000E+00
      25     1     1     2     0     0  2.011649256E+02  1.226713985E+02 -6.710501029E+01  2.750339646E+02  1.250000000E+02  0.00000E+00  9.000E+00
      21     1     1     2   511   501  1.317248817E+02 -9.794151181E+01 -8.927918013E+02  9.077561262E+02  1.525878906E-05  0.00000E+00  9.000E+00
#rwgt            1           1   2.7432180284494904E-002          10       72071           0
</event>
<event>
      5   9999  3.19816E-02  2.04934E+02 -1.00000E+00  1.11264E-01
      21    -1     0     0   502   501  0.000000000E+00  0.000000000E+00  1.859329273E+03  1.859329273E+03  0.000000000E+00  0.00000E+00  9.000E+00
      21    -1     0     0   501   512  0.000000000E+00  0.000000000E+00 -3.130909543E+02  3.130909543E+02  0.000000000E+00  0.00000E+00  9.000E+00
      25     1     1     2     0     0 -2.346923293E+02 -2.355454382E+02  1.399568221E+03  1.443945411E+03  1.250000000E+02  0.00000E+00  9.000E+00
      25     1     1     2     0     0  5.215981207E+01  3.287099639E+02  3.058541851E+02  4.689804569E+02  1.250000000E+02  0.00000E+00  9.000E+00
      21     1     1     2   502   512  1.825325173E+02 -9.316452565E+01 -1.591840880E+02  2.594943594E+02  6.607249480E-06  0.00000E+00  9.000E+00
#rwgt            1           1   2.7982350077179769E-002          10       72121           0
</event>
<event>
      5   9999  3.19816E-02  3.01882E+01 -1.00000E+00  1.52851E-01
      21    -1     0     0   511   501  0.000000000E+00  0.000000000E+00  5.057430685E+02  5.057430685E+02  0.000000000E+00  0.00000E+00  9.000E+00
      21    -1     0     0   501   502  0.000000000E+00  0.000000000E+00 -1.254721974E+02  1.254721974E+02  0.000000000E+00  0.00000E+00  9.000E+00
      25     1     1     2     0     0  7.971248033E+01 -8.852943462E+01 -3.470279108E+01  1.761272949E+02  1.250000000E+02  0.00000E+00  9.000E+00
      25     1     1     2     0     0 -5.103778015E+01  7.909060815E+01  3.408029117E+02  3.750090718E+02  1.250000000E+02  0.00000E+00  9.000E+00
      21     1     1     2   511   502 -2.867470018E+01  9.438826467E+00  7.417075045E+01  8.007889920E+01  9.536743164E-07  0.00000E+00  9.000E+00
#rwgt            1           1   2.5944864455399820E-002          10       72171           0
</event>
<event>
      5   9999  4.00333E-02  8.31013E+01 -1.00000E+00  1.27555E-01
      21    -1     0     0   512   501  0.000000000E+00  0.000000000E+00  4.512336354E+02  4.512336354E+02  0.000000000E+00  0.00000E+00  9.000E+00
      21    -1     0     0   501   502  0.000000000E+00  0.000000000E+00 -2.711092599E+03  2.711092599E+03  0.000000000E+00  0.00000E+00  9.000E+00
      25     1     1     2     0     0 -3.365973431E+02  6.157122057E+02 -4.837629885E+02  8.614237753E+02  1.250000000E+02  0.00000E+00  9.000E+00
      25     1     1     2     0     0  2.893080109E+02 -5.473781928E+02 -1.981282882E+03  2.079526117E+03  1.250000000E+02  0.00000E+00  9.000E+00
      21     1     1     2   512   502  4.728933215E+01 -6.833401282E+01  2.051869069E+02  2.213763425E+02  6.031565972E-06  0.00000E+00  9.000E+00
#rwgt            1           1   3.3877841467686097E-002          10       72271           0
</event>
<event>
      5   9999  3.19816E-02  1.44822E+02 -1.00000E+00  1.17001E-01
       2    -1     0     0   502     0  0.000000000E+00  0.000000000E+00  9.693518015E+02  9.693518015E+02  0.000000000E+00  0.00000E+00  9.000E+00
      21    -1     0     0   501   502  0.000000000E+00  0.000000000E+00 -3.728278966E+02  3.728278966E+02  0.000000000E+00  0.00000E+00  9.000E+00
      25     1     1     2     0     0  1.537811617E+02  2.395756106E+02 -1.155750558E+02  3.317042544E+02  1.250000000E+02  0.00000E+00  9.000E+00
      25     1     1     2     0     0 -2.984399247E+02 -2.464527373E+02  7.565782682E+02  8.589767262E+02  1.250000000E+02  0.00000E+00  9.000E+00
       2     1     1     2   501     0  1.446587631E+02  6.877126676E+00 -4.447930745E+01  1.514987175E+02  6.743495762E-07  0.00000E+00  9.000E+00
#rwgt            1           1   2.8813616260860438E-002          10       72347           0
</event>
<event>
      5   9999  3.19816E-02  5.10043E+02 -1.00000E+00  9.86073E-02
      21    -1     0     0   502   501  0.000000000E+00  0.000000000E+00  5.042099649E+02  5.042099649E+02  0.000000000E+00  0.00000E+00  9.000E+00
      21    -1     0     0   511   502  0.000000000E+00  0.000000000E+00 -1.239265608E+03  1.239265608E+03  0.000000000E+00  0.00000E+00  9.000E+00
      25     1     1     2     0     0  2.261771979E+02 -5.118874286E+02 -1.326972976E+02  5.885732216E+02  1.250000000E+02  0.00000E+00  9.000E+00
      25     1     1     2     0     0 -1.005571848E+02  1.755607636E+01  1.667401292E+02  2.320500677E+02  1.250000000E+02  0.00000E+00  9.000E+00
      21     1     1     2   511   501 -1.256200131E+02  4.943313522E+02 -7.690984751E+02  9.228522839E+02  1.078959322E-05  0.00000E+00  9.000E+00
#rwgt            1           1   2.7922762410431672E-002          10       72410           0
</event>
<event>
      5   9999  3.19816E-02  8.91308E+01 -1.00000E+00  1.26118E-01
       2    -1     0     0   502     0  0.000000000E+00  0.000000000E+00  1.075464638E+03  1.075464638E+03  0.000000000E+00  0.00000E+00  9.000E+00
      21    -1     0     0   501   502  0.000000000E+00  0.000000000E+00 -2.803894785E+02  2.803894785E+02  0.000000000E+00  0.00000E+00  9.000E+00
      25     1     1     2     0     0  1.271364900E+02  2.038445923E+02  4.161268932E+02  4.964905802E+02  1.250000000E+02  0.00000E+00  9.000E+00
      25     1     1     2     0     0 -2.082587649E+02 -2.407698273E+02 -1.123966920E+02  3.599997768E+02  1.250000000E+02  0.00000E+00  9.000E+00
       2     1     1     2   501     0  8.112227490E+01  3.692523496E+01  4.913449584E+02  4.993637598E+02  0.000000000E+00  0.00000E+00  9.000E+00
#rwgt            1           1   2.7990697251968375E-002          10       72442           0
</event>
<event>
      5   9999  3.19816E-02  2.25062E+01 -1.00000E+00  1.62247E-01
      21    -1     0     0   502   501  0.000000000E+00  0.000000000E+00  3.194459987E+02  3.194459987E+02  0.000000000E+00  0.00000E+00  9.000E+00
      21    -1     0     0   501   511  0.000000000E+00  0.000000000E+00 -2.843992618E+03  2.843992618E+03  0.000000000E+00  0.00000E+00  9.000E+00
      25     1     1     2     0     0 -7.021307048E+02 -5.812469473E+02 -9.775253344E+02  1.342392014E+03  1.250000000E+02  0.00000E+00  9.000E+00
      25     1     1     2     0     0  7.077542351E+02  6.030393076E+02 -1.511149668E+03  1.778699183E+03  1.250000000E+02  0.00000E+00  9.000E+00
      21     1     1     2   502   511 -5.623530232E+00 -2.179236032E+01 -3.587161698E+01  4.234741981E+01  0.000000000E+00  0.00000E+00  9.000E+00
#rwgt            1           1   2.8408489038111127E-002          10       72504           0
</event>
<event>
      5   9999  3.19816E-02  1.01339E+02 -1.00000E+00  1.23569E-01
      21    -1     0     0   502   501  0.000000000E+00  0.000000000E+00  2.251696589E+02  2.251696589E+02  0.000000000E+00  0.00000E+00  9.000E+00
      21    -1     0     0   501   512  0.000000000E+00  0.000000000E+00 -4.377044279E+02  4.377044279E+02  0.000000000E+00  0.00000E+00  9.000E+00
      25     1     1     2     0     0  1.354819252E+02  1.435442832E+02 -1.845486298E+02  2.977305998E+02  1.250000000E+02  0.00000E+00  9.000E+00
      25     1     1     2     0     0 -1.580131924E+02 -4.474162997E+01  7.600987135E+01  2.199374524E+02  1.250000000E+02  0.00000E+00  9.000E+00
      21     1     1     2   502   512  2.253126720E+01 -9.880265319E+01 -1.039960105E+02  1.452060346E+02  0.000000000E+00  0.00000E+00  9.000E+00
#rwgt            2          11   2.4981849305982743E-003          10       72786           0
</event>
<event>
      5   9999  3.19816E-02  1.23395E+02 -1.00000E+00  1.19856E-01
      21    -1     0     0   502   501  0.000000000E+00  0.000000000E+00  2.391786841E+02  2.391786841E+02  0.000000000E+00  0.00000E+00  9.000E+00
      21    -1     0     0   501   511  0.000000000E+00  0.000000000E+00 -6.754846389E+02  6.754846389E+02  0.000000000E+00  0.00000E+00  9.000E+00
      25     1     1     2     0     0  7.323025804E+01 -6.443744445E+01 -2.432532390E+01  1.604106490E+02  1.250000000E+02  0.00000E+00  9.000E+00
      25     1     1     2     0     0  4.017698083E+01  1.580579363E+01  1.376838329E+02  1.909079641E+02  1.250000000E+02  0.00000E+00  9.000E+00
      21     1     1     2   502   511 -1.134072389E+02  4.863165082E+01 -5.496644638E+02  5.633447098E+02  0.000000000E+00  0.00000E+00  9.000E+00
#rwgt            1           1   6.5648529274128342E-002          10       72806           0
</event>
<event>
      5   9999  3.19816E-02  2.89860E+02 -1.00000E+00  1.06079E-01
      21    -1     0     0   512   501  0.000000000E+00  0.000000000E+00  1.350614634E+03  1.350614634E+03  0.000000000E+00  0.00000E+00  9.000E+00
      21    -1     0     0   501   502  0.000000000E+00  0.000000000E+00 -3.615696105E+02  3.615696105E+02  0.000000000E+00  0.00000E+00  9.000E+00
      25     1     1     2     0     0 -2.341163722E+01 -1.587336627E+02 -2.594149193E+02  3.296446280E+02  1.250000000E+02  0.00000E+00  9.000E+00
      25     1     1     2     0     0 -8.758804855E+01 -1.090305769E+02  9.428669220E+02  9.613440412E+02  1.250000000E+02  0.00000E+00  9.000E+00
      21     1     1     2   512   502  1.109996858E+02  2.677642396E+02  3.055930210E+02  4.211955754E+02  1.078959322E-05  0.00000E+00  9.000E+00
#rwgt            1           1   2.6947004499893634E-002          10       72868           0
</event>
<event>
      5   9999  3.19816E-02  2.13912E+01 -1.00000E+00  1.63995E-01
      21    -1     0     0   502   501  0.000000000E+00  0.000000000E+00  1.113996381E+03  1.113996381E+03  0.000000000E+00  0.00000E+00  9.000E+00
      21    -1     0     0   511   502  0.000000000E+00  0.000000000E+00 -1.068185678E+03  1.068185678E+03  0.000000000E+00  0.00000E+00  9.000E+00
      25     1     1     2     0     0  1.056029499E+02 -7.237656929E+02 -5.260688009E+02  9.095944946E+02  1.250000000E+02  0.00000E+00  9.000E+00
      25     1     1     2     0     0 -9.225553155E+01  7.404818572E+02  7.663681976E+02  1.076926032E+03  1.250000000E+02  0.00000E+00  9.000E+00
      21     1     1     2   511   501 -1.334741837E+01 -1.671616434E+01 -1.944886934E+02  1.956615332E+02  2.697398305E-06  0.00000E+00  9.000E+00
#rwgt            1           1   2.0952119248852295E-002          10       72926           0
</event>
<event>
      5   9999  3.19816E-02  8.47186E+01 -1.00000E+00  1.27156E-01
      21    -1     0     0   502   501  0.000000000E+00  0.000000000E+00  9.567975223E+02  9.567975223E+02  0.000000000E+00  0.00000E+00  9.000E+00
      21    -1     0     0   512   502  0.000000000E+00  0.000000000E+00 -8.480988269E+01  8.480988269E+01  0.000000000E+00  0.00000E+00  9.000E+00
      25     1     1     2     0     0 -1.019747164E+02 -2.766421737E+01  1.177533719E+02  2.016308714E+02  1.250000000E+02  0.00000E+00  9.000E+00
      25     1     1     2     0     0  1.323321957E+02 -5.142857553E+01  7.266695230E+02  7.508863456E+02  1.250000000E+02  0.00000E+00  9.000E+00
      21     1     1     2   512   501 -3.035747928E+01  7.909279290E+01  2.756474469E+01  8.909018793E+01  2.880822652E-06  0.00000E+00  9.000E+00
#rwgt            1           1   3.2794290836905139E-002          10       73170           0
</event>
<event>
      5   9999  3.19816E-02  8.38213E+01 -1.00000E+00  1.27376E-01
      21    -1     0     0   502   501  0.000000000E+00  0.000000000E+00  5.222200100E+01  5.222200100E+01  0.000000000E+00  0.00000E+00  9.000E+00
       2    -1     0     0   501     0  0.000000000E+00  0.000000000E+00 -2.426701613E+03  2.426701613E+03  0.000000000E+00  0.00000E+00  9.000E+00
      25     1     1     2     0     0  1.755899805E+02  1.795492802E+02 -5.647024342E+02  6.305423256E+02  1.250000000E+02  0.00000E+00  9.000E+00
      25     1     1     2     0     0 -9.289270868E+01 -1.658680991E+02 -7.133629378E+02  7.487676293E+02  1.250000000E+02  0.00000E+00  9.000E+00
       2     1     1     2   502     0 -8.269727179E+01 -1.368118107E+01 -1.096414240E+03  1.099613659E+03  2.157918644E-05  0.00000E+00  9.000E+00
#rwgt            1           1   3.5872621682030086E-002          10       73215           0
</event>
<event>
      5   9999  3.19816E-02  7.33107E+01 -1.00000E+00  1.30212E-01
      21    -1     0     0   502   511  0.000000000E+00  0.000000000E+00  2.158500305E+02  2.158500305E+02  0.000000000E+00  0.00000E+00  9.000E+00
      21    -1     0     0   501   502  0.000000000E+00  0.000000000E+00 -1.050485646E+03  1.050485646E+03  0.000000000E+00  0.00000E+00  9.000E+00
      25     1     1     2     0     0 -1.634829598E+02  9.715764398E+01 -3.418091746E+01  2.301295744E+02  1.250000000E+02  0.00000E+00  9.000E+00
      25     1     1     2     0     0  2.321430556E+02 -1.228528370E+02 -8.807138387E+02  9.275047620E+02  1.250000000E+02  0.00000E+00  9.000E+00
      21     1     1     2   501   511 -6.866009585E+01  2.569519299E+01  8.025914061E+01  1.087013402E+02  2.697398305E-06  0.00000E+00  9.000E+00
#rwgt            1           1   2.9344079316196519E-002          10       73319           0
</event>
<event>
      5   9999  3.19816E-02  4.68608E+01 -1.00000E+00  1.40702E-01
      21    -1     0     0   502   512  0.000000000E+00  0.000000000E+00  1.215222776E+02  1.215222776E+02  0.000000000E+00  0.00000E+00  9.000E+00
      21    -1     0     0   501   502  0.000000000E+00  0.000000000E+00 -1.550914952E+03  1.550914952E+03  0.000000000E+00  0.00000E+00  9.000E+00
      25     1     1     2     0     0  4.035932704E+02 -1.401137727E+01 -7.813769908E+02  8.884024135E+02  1.250000000E+02  0.00000E+00  9.000E+00
      25     1     1     2     0     0 -3.632951911E+02  3.792785586E+01 -6.170336979E+02  7.278581610E+02  1.250000000E+02  0.00000E+00  9.000E+00
      21     1     1     2   501   512 -4.029807925E+01 -2.391647859E+01 -3.098198566E+01  5.617665507E+01  1.011524364E-06  0.00000E+00  9.000E+00
#rwgt            1           1   2.9112355320832041E-002          10       73411           0
</event>
<event>
      5   9999  3.19816E-02  4.13910E+02 -1.00000E+00  1.01241E-01
      21    -1     0     0   502   501  0.000000000E+00  0.000000000E+00  2.925143332E+03  2.925143332E+03  0.000000000E+00  0.00000E+00  9.000E+00
       2    -1     0     0   501     0  0.000000000E+00  0.000000000E+00 -9.918361716E+02  9.918361716E+02  0.000000000E+00  0.00000E+00  9.000E+00
      25     1     1     2     0     0 -2.726146251E+02 -2.541054241E+02  1.231122210E+03  1.292352582E+03  1.250000000E+02  0.00000E+00  9.000E+00
      25     1     1     2     0     0  3.592882408E+02  6.588385158E+02  1.524629871E+03  1.703900665E+03  1.250000000E+02  0.00000E+00  9.000E+00
       2     1     1     2   502     0 -8.667361570E+01 -4.047330916E+02 -8.224449213E+02  9.207262567E+02  1.078959322E-05  0.00000E+00  9.000E+00
#rwgt            2          13   1.0822884149196020E-002          10       73557           0
</event>
<event>
      5   9999  3.19816E-02  6.32630E+01 -1.00000E+00  1.33486E-01
      21    -1     0     0   502   501  0.000000000E+00  0.000000000E+00  6.846849343E+02  6.846849343E+02  0.000000000E+00  0.00000E+00  9.000E+00
      21    -1     0     0   511   502  0.000000000E+00  0.000000000E+00 -5.822981335E+02  5.822981335E+02  0.000000000E+00  0.00000E+00  9.000E+00
      25     1     1     2     0     0 -8.718396631E+01  5.030770236E+02 -2.635271883E+02  5.880128525E+02  1.250000000E+02  0.00000E+00  9.000E+00
      25     1     1     2     0     0  5.896331405E+01 -4.464571804E+02  3.925338355E+02  6.103347429E+02  1.250000000E+02  0.00000E+00  9.000E+00
      21     1     1     2   511   501  2.822065226E+01 -5.661984320E+01 -2.661984642E+01  6.863547247E+01  3.371747881E-07  0.00000E+00  9.000E+00
#rwgt            1           1   2.5760963495128499E-002          10       73576           0
</event>
<event>
      5   9999  3.19816E-02  9.43490E+01 -1.00000E+00  1.24975E-01
      21    -1     0     0   502   512  0.000000000E+00  0.000000000E+00  5.290310209E+02  5.290310209E+02  0.000000000E+00  0.00000E+00  9.000E+00
      21    -1     0     0   501   502  0.000000000E+00  0.000000000E+00 -9.559733629E+02  9.559733629E+02  0.000000000E+00  0.00000E+00  9.000E+00
      25     1     1     2     0     0  5.722341045E+02  2.873028169E+02  8.425589510E+00  6.524498215E+02  1.250000000E+02  0.00000E+00  9.000E+00
      25     1     1     2     0     0 -5.425255004E+02 -1.977531835E+02 -4.421764494E+02  7.379601972E+02  1.250000000E+02  0.00000E+00  9.000E+00
      21     1     1     2   501   512 -2.970860413E+01 -8.954963346E+01  6.808517902E+00  9.459436520E+01  2.665600750E-07  0.00000E+00  9.000E+00
#rwgt            1           1   2.9613929730204634E-002          10       73692           0
</event>
<event>
      5   9999  3.19816E-02  2.27689E+02 -1.00000E+00  1.09636E-01
       4    -1     0     0   502     0  0.000000000E+00  0.000000000E+00  8.673617798E+01  8.673617798E+01  0.000000000E+00  0.00000E+00  9.000E+00
      21    -1     0     0   501   502  0.000000000E+00  0.000000000E+00 -2.218892371E+03  2.218892371E+03  0.000000000E+00  0.00000E+00  9.000E+00
      25     1     1     2     0     0  1.637043791E+01 -2.408933830E+02 -1.238640822E+03  1.268130001E+03  1.250000000E+02  0.00000E+00  9.000E+00
      25     1     1     2     0     0 -1.903708564E+02  9.403994912E+01 -2.340628164E+02  3.398455194E+02  1.250000000E+02  0.00000E+00  9.000E+00
       4     1     1     2   501     0  1.740004185E+02  1.468534339E+02 -6.594525543E+02  6.976530285E+02  7.629394531E-06  0.00000E+00  9.000E+00
#rwgt            1           1   2.9486075321003811E-002          10       73811           0
</event>
<event>
      5   9999  3.19816E-02  2.71451E+01 -1.00000E+00  1.56119E-01
      21    -1     0     0   511   501  0.000000000E+00  0.000000000E+00  2.239431769E+03  2.239431769E+03  0.000000000E+00  0.00000E+00  9.000E+00
      21    -1     0     0   501   502  0.000000000E+00  0.000000000E+00 -3.022372973E+02  3.022372973E+02  0.000000000E+00  0.00000E+00  9.000E+00
      25     1     1     2     0     0 -2.442483979E+02  7.123691173E+02  5.219379017E+02  9.247546769E+02  1.250000000E+02  0.00000E+00  9.000E+00
      25     1     1     2     0     0  2.630409957E+02 -6.927810341E+02  1.332373829E+03  1.529699692E+03  1.250000000E+02  0.00000E+00  9.000E+00
      21     1     1     2   511   502 -1.879259781E+01 -1.958808321E+01  8.288274089E+01  8.721469758E+01  1.348699152E-06  0.00000E+00  9.000E+00
#rwgt            1           1   2.3663572705962928E-002          10       73874           0
</event>
<event>
      5   9999  3.19816E-02  1.29066E+02 -1.00000E+00  1.19041E-01
      21    -1     0     0   502   512  0.000000000E+00  0.000000000E+00  5.204185208E+02  5.204185208E+02  0.000000000E+00  0.00000E+00  9.000E+00
      21    -1     0     0   501   502  0.000000000E+00  0.000000000E+00 -3.530520018E+02  3.530520018E+02  0.000000000E+00  0.00000E+00  9.000E+00
      25     1     1     2     0     0  9.721721097E+01  2.363103155E+02  8.777071478E+01  2.976952296E+02  1.250000000E+02  0.00000E+00  9.000E+00
      25     1     1     2     0     0  3.063358630E+01 -2.539802370E+02 -1.428848333E+02  3.185678154E+02  1.250000000E+02  0.00000E+00  9.000E+00
      21     1     1     2   501   512 -1.278507973E+02  1.766992147E+01  2.224806375E+02  2.572074776E+02  3.814697266E-06  0.00000E+00  9.000E+00
#rwgt            1           1   2.6634628620119623E-002          10       74086           0
</event>
<event>
      5   9999  3.19816E-02  2.64571E+01 -1.00000E+00  1.56930E-01
       2    -1     0     0   502     0  0.000000000E+00  0.000000000E+00  1.132990675E+03  1.132990675E+03  0.000000000E+00  0.00000E+00  9.000E+00
      21    -1     0     0   501   502  0.000000000E+00  0.000000000E+00 -5.935184770E+02  5.935184770E+02  0.000000000E+00  0.00000E+00  9.000E+00
      25     1     1     2     0     0  5.836926145E+02  2.744979414E+02  1.357255463E+02  6.708894186E+02  1.250000000E+02  0.00000E+00  9.000E+00
      25     1     1     2     0     0 -5.780680957E+02 -2.486455738E+02 -9.387891515E+00  6.416388994E+02  1.250000000E+02  0.00000E+00  9.000E+00
       2     1     1     2   501     0 -5.624518758E+00 -2.585236762E+01  4.131345435E+02  4.139808343E+02  0.000000000E+00  0.00000E+00  9.000E+00
#rwgt            1           1   3.0776358754804757E-002          10       74126           0
</event>
<event>
      5   9999  3.19816E-02  3.79195E+01 -1.00000E+00  1.46294E-01
      21    -1     0     0   511   501  0.000000000E+00  0.000000000E+00  1.921967235E+02  1.921967235E+02  0.000000000E+00  0.00000E+00  9.000E+00
      21    -1     0     0   501   502  0.000000000E+00  0.000000000E+00 -5.059225982E+02  5.059225982E+02  0.000000000E+00  0.00000E+00  9.000E+00
      25     1     1     2     0     0 -2.119586785E+02  4.161926114E+01 -3.442990899E+02  4.252358259E+02  1.250000000E+02  0.00000E+00  9.000E+00
      25     1     1     2     0     0  1.801460770E+02 -2.098318574E+01 -5.793154836E+00  2.203439670E+02  1.250000000E+02  0.00000E+00  9.000E+00
      21     1     1     2   511   502  3.181260151E+01 -2.063607540E+01  3.636637009E+01  5.253952889E+01  1.168007728E-06  0.00000E+00  9.000E+00
#rwgt            1           1   2.8354604845654288E-002          10       74397           0
</event>
<event>
      5   9999  3.19816E-02  1.58554E+02 -1.00000E+00  1.15447E-01
      21    -1     0     0   502   501  0.000000000E+00  0.000000000E+00  1.690444466E+02  1.690444466E+02  0.000000000E+00  0.00000E+00  9.000E+00
       2    -1     0     0   501     0  0.000000000E+00  0.000000000E+00 -1.651978798E+03  1.651978798E+03  0.000000000E+00  0.00000E+00  9.000E+00
      25     1     1     2     0     0 -1.911245234E+02  1.499113088E+00  1.586215437E+01  2.289267104E+02  1.250000000E+02  0.00000E+00  9.000E+00
      25     1     1     2     0     0  9.145168680E+01  1.218076651E+02 -1.379947492E+03  1.393944259E+03  1.250000000E+02  0.00000E+00  9.000E+00
       2     1     1     2   502     0  9.967283664E+01 -1.233067782E+02 -1.188490142E+02  1.981522750E+02  2.697398305E-06  0.00000E+00  9.000E+00
#rwgt            2          13   4.2465945262278195E-004          10       74521           0
</event>
<event>
      5   9999  3.19816E-02  1.49378E+02 -1.00000E+00  1.16465E-01
      21    -1     0     0   511   501  0.000000000E+00  0.000000000E+00  2.256973524E+02  2.256973524E+02  0.000000000E+00  0.00000E+00  9.000E+00
      21    -1     0     0   501   502  0.000000000E+00  0.000000000E+00 -8.424452600E+02  8.424452600E+02  0.000000000E+00  0.00000E+00  9.000E+00
      25     1     1     2     0     0  1.762635823E+02  1.954790973E+02 -3.784856965E+02  4.776581941E+02  1.250000000E+02  0.00000E+00  9.000E+00
      25     1     1     2     0     0 -6.797765963E+01 -2.983774054E+02 -2.823483278E+02  4.347362608E+02  1.250000000E+02  0.00000E+00  9.000E+00
      21     1     1     2   511   502 -1.082859227E+02  1.028983081E+02  4.408611679E+01  1.557481575E+02  2.861022949E-06  0.00000E+00  9.000E+00
#rwgt            1           1   2.9312776465899776E-002          10       74555           0
</event>
<event>
      5   9999  3.19816E-02  1.05871E+02 -1.00000E+00  1.22724E-01
      21    -1     0     0   502   501  0.000000000E+00  0.000000000E+00  4.266886097E+02  4.266886097E+02  0.000000000E+00  0.00000E+00  9.000E+00
      21    -1     0     0   501   512  0.000000000E+00  0.000000000E+00 -7.618958243E+02  7.618958243E+02  0.000000000E+00  0.00000E+00  9.000E+00
      25     1     1     2     0     0  2.492582570E+01  1.286464353E+02  2.854265506E+02  3.380303505E+02  1.250000000E+02  0.00000E+00  9.000E+00
      25     1     1     2     0     0 -1.296506114E+02 -1.441801520E+02 -1.011207539E+01  2.309208768E+02  1.250000000E+02  0.00000E+00  9.000E+00
      21     1     1     2   502   512  1.047247857E+02  1.553371678E+01 -6.105216898E+02  6.196332067E+02  7.629394531E-06  0.00000E+00  9.000E+00
#rwgt            1           1   1.9969745991746619E-002          10       74599           0
</event>
<event>
      5   9999  3.19816E-02  1.68174E+01 -1.00000E+00  1.72829E-01
      21    -1     0     0   502   501  0.000000000E+00  0.000000000E+00  6.510389308E+02  6.510389308E+02  0.000000000E+00  0.00000E+00  9.000E+00
      21    -1     0     0   511   502  0.000000000E+00  0.000000000E+00 -2.510386145E+02  2.510386145E+02  0.000000000E+00  0.00000E+00  9.000E+00
      25     1     1     2     0     0  8.070817170E+01 -1.289891221E+01  3.483542259E+01  1.533580698E+02  1.250000000E+02  0.00000E+00  9.000E+00
      25     1     1     2     0     0 -8.810654142E+01  2.800148345E+01  5.456935022E+02  5.674092386E+02  1.250000000E+02  0.00000E+00  9.000E+00
      21     1     1     2   511   501  7.398369716E+00 -1.510257124E+01 -1.805286084E+02  1.813102369E+02  4.264961200E-06  0.00000E+00  9.000E+00
#rwgt            1           1   3.1968760160875957E-002          10       74687           0
</event>
<event>
      5   9999  3.19816E-02  1.52862E+02 -1.00000E+00  1.16069E-01
      21    -1     0     0   502   501  0.000000000E+00  0.000000000E+00  3.097853455E+02  3.097853455E+02  0.000000000E+00  0.00000E+00  9.000E+00
      21    -1     0     0   512   502  0.000000000E+00  0.000000000E+00 -5.339711810E+02  5.339711810E+02  0.000000000E+00  0.00000E+00  9.000E+00
      25     1     1     2     0     0 -3.004453797E+01 -8.058982209E+01  1.849308616E+02  2.392108218E+02  1.250000000E+02  0.00000E+00  9.000E+00
      25     1     1     2     0     0  1.315984394E+02  1.948422291E+02 -3.519727113E+02  4.413518245E+02  1.250000000E+02  0.00000E+00  9.000E+00
      21     1     1     2   512   501 -1.015539014E+02 -1.142524070E+02 -5.714398580E+01  1.631938802E+02  3.015782986E-06  0.00000E+00  9.000E+00
#rwgt            1           1   2.8162521312924672E-002          10       74791           0
</event>
<event>
      5   9999  3.19816E-02  1.68831E+01 -1.00000E+00  1.72678E-01
      21    -1     0     0   511   501  0.000000000E+00  0.000000000E+00  4.002956399E+02  4.002956399E+02  0.000000000E+00  0.00000E+00  9.000E+00
      21    -1     0     0   501   502  0.000000000E+00  0.000000000E+00 -2.303020978E+02  2.303020978E+02  0.000000000E+00  0.00000E+00  9.000E+00
      25     1     1     2     0     0  2.401974748E+02 -5.146994421E+01  1.840245868E+02  3.314121763E+02  1.250000000E+02  0.00000E+00  9.000E+00
      25     1     1     2     0     0 -2.264801563E+02  6.131244131E+01 -3.935519587E+01  2.687495267E+02  1.250000000E+02  0.00000E+00  9.000E+00
      21     1     1     2   511   502 -1.371731847E+01 -9.842497105E+00  2.532415114E+01  3.043603467E+01  3.371747881E-07  0.00000E+00  9.000E+00
#rwgt            1           1   2.7503892157251231E-002          10       74852           0
</event>
<event>
      5   9999  3.19816E-02  1.65416E+02 -1.00000E+00  1.14734E-01
      21    -1     0     0   502   501  0.000000000E+00  0.000000000E+00  1.482786298E+02  1.482786298E+02  0.000000000E+00  0.00000E+00  9.000E+00
      21    -1     0     0   501   512  0.000000000E+00  0.000000000E+00 -2.132652447E+03  2.132652447E+03  0.000000000E+00  0.00000E+00  9.000E+00
      25     1     1     2     0     0  9.034166243E+01 -6.271058821E+01  8.075525944E+01  1.850422810E+02  1.250000000E+02  0.00000E+00  9.000E+00
      25     1     1     2     0     0  4.118677737E+01 -3.760270216E+01 -4.042835585E+02  4.268260882E+02  1.250000000E+02  0.00000E+00  9.000E+00
      21     1     1     2   502   512 -1.315284398E+02  1.003132904E+02 -1.660845518E+03  1.669062707E+03  2.157918644E-05  0.00000E+00  9.000E+00
#rwgt            1           1   2.7108807186388171E-002          10       74996           0
</event>
<event>
      5   9999  3.19816E-02  4.85797E+01 -1.00000E+00  1.39793E-01
      21    -1     0     0   502   501  0.000000000E+00  0.000000000E+00  2.820235248E+02  2.820235248E+02  0.000000000E+00  0.00000E+00  9.000E+00
       1    -1     0     0   501     0  0.000000000E+00  0.000000000E+00 -1.890546310E+02  1.890546310E+02  0.000000000E+00  0.00000E+00  9.000E+00
      25     1     1     2     0     0  3.154553707E+01 -9.570076287E+01 -1.802443978E+01  1.615662011E+02  1.250000000E+02  0.00000E+00  9.000E+00
      25     1     1     2     0     0 -4.810656622E+01  1.413703996E+02  1.511226385E+02  2.465012849E+02  1.250000000E+02  0.00000E+00  9.000E+00
       1     1     1     2   502     0  1.656102915E+01 -4.566963668E+01 -4.012930481E+01  6.301066977E+01  9.536743164E-07  0.00000E+00  9.000E+00
#rwgt            1           1   3.1790925615298254E-002          10       75031           0
</event>
<event>
      5   9999  3.19816E-02  2.44273E+02 -1.00000E+00  1.08575E-01
      21    -1     0     0   511   501  0.000000000E+00  0.000000000E+00  7.520078854E+02  7.520078854E+02  0.000000000E+00  0.00000E+00  9.000E+00
      21    -1     0     0   501   502  0.000000000E+00  0.000000000E+00 -3.598975400E+02  3.598975400E+02  0.000000000E+00  0.00000E+00  9.000E+00
      25     1     1     2     0     0  2.641635155E+02 -4.073211106E+01 -1.716164581E+02  3.413483213E+02  1.250000000E+02  0.00000E+00  9.000E+00
      25     1     1     2     0     0 -8.861825651E+01 -1.291301169E+02  5.748728430E+01  2.084647940E+02  1.250000000E+02  0.00000E+00  9.000E+00
      21     1     1     2   511   502 -1.755452590E+02  1.698622279E+02  5.062395191E+02  5.620923101E+02  5.394796609E-06  0.00000E+00  9.000E+00
#rwgt            2          11   3.3450496596674219E-003          10       75273           0
</event>
<event>
      5   9999  3.19816E-02  1.32079E+02 -1.00000E+00  1.18626E-01
      21    -1     0     0   502   501  0.000000000E+00  0.000000000E+00  7.964782706E+01  7.964782706E+01  0.000000000E+00  0.00000E+00  9.000E+00
       1    -1     0     0   501     0  0.000000000E+00  0.000000000E+00 -2.591835351E+03  2.591835351E+03  0.000000000E+00  0.00000E+00  9.000E+00
      25     1     1     2     0     0  4.333618492E+01 -1.097079799E+02 -1.280237083E+03  1.291722050E+03  1.250000000E+02  0.00000E+00  9.000E+00
      25     1     1     2     0     0 -3.565792262E+01  2.415639191E+02 -2.002278619E+02  3.396186261E+02  1.250000000E+02  0.00000E+00  9.000E+00
       1     1     1     2   502     0 -7.678262297E+00 -1.318559392E+02 -1.031722579E+03  1.040142502E+03  1.525878906E-05  0.00000E+00  9.000E+00
#rwgt            1           1   2.9843178132777048E-002          10       75308           0
</event>
<event>
      5   9999  3.19816E-02  5.37468E+01 -1.00000E+00  1.37308E-01
      21    -1     0     0   502   511  0.000000000E+00  0.000000000E+00  2.026729797E+02  2.026729797E+02  0.000000000E+00  0.00000E+00  9.000E+00
      21    -1     0     0   501   502  0.000000000E+00  0.000000000E+00 -3.604305172E+02  3.604305172E+02  0.000000000E+00  0.00000E+00  9.000E+00
      25     1     1     2     0     0 -1.766822249E+02 -1.899230493E+01 -2.208335388E+02  3.097898773E+02  1.250000000E+02  0.00000E+00  9.000E+00
      25     1     1     2     0     0  1.375696849E+02 -1.787131881E+01  2.722926461E+01  1.887093932E+02  1.250000000E+02  0.00000E+00  9.000E+00
      21     1     1     2   501   511  3.911253993E+01  3.686362374E+01  3.584673671E+01  6.460422639E+01  9.536743164E-07  0.00000E+00  9.000E+00
#rwgt            1           1   3.0991596658310867E-002          10       75366           0
</event>
<event>
      5   9999  3.19816E-02  1.04904E+02 -1.00000E+00  1.22900E-01
      -3    -1     0     0     0   501  0.000000000E+00  0.000000000E+00  1.157761995E+03  1.157761995E+03  0.000000000E+00  0.00000E+00  9.000E+00
      21    -1     0     0   501   502  0.000000000E+00  0.000000000E+00 -3.636218098E+02  3.636218098E+02  0.000000000E+00  0.00000E+00  9.000E+00
      25     1     1     2     0     0  4.447170854E+01 -3.703325825E+02 -1.864432495E+02  4.353275086E+02  1.250000000E+02  0.00000E+00  9.000E+00
      25     1     1     2     0     0  3.738903475E+01  3.047301595E+02  5.439429230E+02  6.369908269E+02  1.250000000E+02  0.00000E+00  9.000E+00
      -3     1     1     2     0   502 -8.186074329E+01  6.560242296E+01  4.366405114E+02  4.490654689E+02  7.629394531E-06  0.00000E+00  9.000E+00
#rwgt            2           3   2.4711172982114992E-005          10       75534           0
</event>
<event>
      5   9999  3.19816E-02  2.80312E+01 -1.00000E+00  1.55116E-01
       2    -1     0     0   502     0  0.000000000E+00  0.000000000E+00  6.795465051E+02  6.795465051E+02  0.000000000E+00  0.00000E+00  9.000E+00
      21    -1     0     0   501   502  0.000000000E+00  0.000000000E+00 -1.476982012E+02  1.476982012E+02  0.000000000E+00  0.00000E+00  9.000E+00
      25     1     1     2     0     0 -4.866292281E+01  1.377772865E+02  4.353040435E+02  4.758836739E+02  1.250000000E+02  0.00000E+00  9.000E+00
      25     1     1     2     0     0  6.767133674E+01 -1.583789717E+02 -3.604462672E+01  2.158414316E+02  1.250000000E+02  0.00000E+00  9.000E+00
       2     1     1     2   501     0 -1.900841393E+01  2.060168512E+01  1.325888870E+02  1.355196008E+02  1.907348633E-06  0.00000E+00  9.000E+00
#rwgt            1           1   2.7403210882728884E-002          10       75553           0
</event>
<event>
      5   9999  3.19816E-02  2.76755E+01 -1.00000E+00  1.55513E-01
      21    -1     0     0   502   511  0.000000000E+00  0.000000000E+00  1.276066387E+03  1.276066387E+03  0.000000000E+00  0.00000E+00  9.000E+00
      21    -1     0     0   501   502  0.000000000E+00  0.000000000E+00 -1.262759147E+02  1.262759147E+02  0.000000000E+00  0.00000E+00  9.000E+00
      25     1     1     2     0     0  1.740149938E+02 -5.096776508E+00  8.442815407E+02  8.710588472E+02  1.250000000E+02  0.00000E+00  9.000E+00
      25     1     1     2     0     0 -1.465407433E+02  8.428521168E+00 -2.958154952E+01  1.950520379E+02  1.250000000E+02  0.00000E+00  9.000E+00
      21     1     1     2   501   511 -2.747425049E+01 -3.331744660E+00  3.350904815E+02  3.362314170E+02  3.814697266E-06  0.00000E+00  9.000E+00
#rwgt            1           1   2.9617936255039355E-002          10       75667           0
</event>
<event>
      5   9999  3.19816E-02  1.36241E+02 -1.00000E+00  1.18074E-01
      21    -1     0     0   502   501  0.000000000E+00  0.000000000E+00  4.185431241E+02  4.185431241E+02  0.000000000E+00  0.00000E+00  9.000E+00
      21    -1     0     0   501   512  0.000000000E+00  0.000000000E+00 -1.171938426E+03  1.171938426E+03  0.000000000E+00  0.00000E+00  9.000E+00
      25     1     1     2     0     0 -9.178883829E+01 -5.370432413E+00 -1.163750899E+01  1.556099740E+02  1.250000000E+02  0.00000E+00  9.000E+00
      25     1     1     2     0     0 -3.840444685E+01  4.551295940E+01  3.282330346E+02  3.562418505E+02  1.250000000E+02  0.00000E+00  9.000E+00
      21     1     1     2   502   512  1.301932851E+02 -4.014252699E+01 -1.069990828E+03  1.078629726E+03  1.525878906E-05  0.00000E+00  9.000E+00
#rwgt            1           1   2.5104978355435646E-002          10       75841           0
</event>
<event>
      5   9999  3.19816E-02  2.71893E+01 -1.00000E+00  1.56068E-01
      21    -1     0     0   502   501  0.000000000E+00  0.000000000E+00  4.282586111E+02  4.282586111E+02  0.000000000E+00  0.00000E+00  9.000E+00
      21    -1     0     0   511   502  0.000000000E+00  0.000000000E+00 -1.374829077E+02  1.374829077E+02  0.000000000E+00  0.00000E+00  9.000E+00
      25     1     1     2     0     0 -1.184687564E+02  1.443899407E+02  2.246699777E+02  3.177812142E+02  1.250000000E+02  0.00000E+00  9.000E+00
      25     1     1     2     0     0  9.138530772E+01 -1.419935108E+02  6.768455984E+01  2.207252392E+02  1.250000000E+02  0.00000E+00  9.000E+00
      21     1     1     2   511   501  2.708344863E+01 -2.396429903E+00 -1.578834181E+00  2.723506533E+01  2.430305843E-07  0.00000E+00  9.000E+00
#rwgt            1           1   2.7676376083335744E-002          10       75897           0
</event>
<event>
      5   9999  3.19816E-02  7.59032E+01 -1.00000E+00  1.29464E-01
      21    -1     0     0   512   501  0.000000000E+00  0.000000000E+00  9.807817218E+02  9.807817218E+02  0.000000000E+00  0.00000E+00  9.000E+00
      21    -1     0     0   501   502  0.000000000E+00  0.000000000E+00 -1.838475978E+03  1.838475978E+03  0.000000000E+00  0.00000E+00  9.000E+00
      25     1     1     2     0     0  9.481428661E+02 -9.214102256E+02 -5.327055466E+02  1.430864039E+03  1.250000000E+02  0.00000E+00  9.000E+00
      25     1     1     2     0     0 -8.728812659E+02  9.115620216E+02 -3.351859747E+02  1.311808546E+03  1.250000000E+02  0.00000E+00  9.000E+00
      21     1     1     2   512   502 -7.526160022E+01  9.848203966E+00  1.019726525E+01  7.658511479E+01  1.118282261E-06  0.00000E+00  9.000E+00
#rwgt            1           1   5.6217176470404834E-002          10       75973           0
</event>
<event>
      5   9999  3.19816E-02  3.47596E+02 -1.00000E+00  1.03555E-01
      21    -1     0     0   502   501  0.000000000E+00  0.000000000E+00  3.064912542E+02  3.064912542E+02  0.000000000E+00  0.00000E+00  9.000E+00
       2    -1     0     0   501     0  0.000000000E+00  0.000000000E+00 -7.269394473E+02  7.269394473E+02  0.000000000E+00  0.00000E+00  9.000E+00
      25     1     1     2     0     0  2.733405068E+02 -2.590355972E+02 -2.708239862E+02  4.804009833E+02  1.250000000E+02  0.00000E+00  9.000E+00
      25     1     1     2     0     0 -2.189976392E+01  1.903492885E+01  6.567938589E+01  1.441551591E+02  1.250000000E+02  0.00000E+00  9.000E+00
       2     1     1     2   502     0 -2.514407429E+02  2.400006684E+02 -2.153035928E+02  4.088745591E+02  8.529922400E-06  0.00000E+00  9.000E+00
#rwgt            1           1   2.7346023240474079E-002          10       76159           0
</event>
<event>
      5   9999  3.19816E-02  2.98852E+01 -1.00000E+00  1.53156E-01
      21    -1     0     0   502   501  0.000000000E+00  0.000000000E+00  2.853400845E+01  2.853400845E+01  0.000000000E+00  0.00000E+00  9.000E+00
      21    -1     0     0   511   502  0.000000000E+00  0.000000000E+00 -1.347504059E+03  1.347504059E+03  0.000000000E+00  0.00000E+00  9.000E+00
      25     1     1     2     0     0  1.178843097E+01  6.898550798E+01 -4.090561996E+02  4.334165915E+02  1.250000000E+02  0.00000E+00  9.000E+00
      25     1     1     2     0     0  1.629956970E+01 -5.877818443E+01 -2.863549731E+02  3.183468573E+02  1.250000000E+02  0.00000E+00  9.000E+00
      21     1     1     2   511   501 -2.808800067E+01 -1.020732355E+01 -6.235588777E+02  6.242746184E+02  0.000000000E+00  0.00000E+00  9.000E+00
#rwgt            1           1   2.3034163173532532E-002          10       76188           0
</event>
<event>
      5   9999  3.19816E-02  9.32342E+01 -1.00000E+00  1.25212E-01
      21    -1     0     0   512   501  0.000000000E+00  0.000000000E+00  3.285679317E+02  3.285679317E+02  0.000000000E+00  0.00000E+00  9.000E+00
      21    -1     0     0   501   502  0.000000000E+00  0.000000000E+00 -1.424555616E+03  1.424555616E+03  0.000000000E+00  0.00000E+00  9.000E+00
      25     1     1     2     0     0  5.545824297E+01  3.632621665E+01 -1.090431620E+03  1.099573249E+03  1.250000000E+02  0.00000E+00  9.000E+00
      25     1     1     2     0     0  3.121085297E+01 -7.069308683E+01 -3.057377769E+02  3.392229622E+02  1.250000000E+02  0.00000E+00  9.000E+00
      21     1     1     2   512   502 -8.666909593E+01  3.436687018E+01  3.001817128E+02  3.143273368E+02  8.529922400E-06  0.00000E+00  9.000E+00
#rwgt            1           1   3.5979528390412817E-002          10       76294           0
</event>
<event>
      5   9999  3.19816E-02  5.31301E+01 -1.00000E+00  1.37587E-01
      21    -1     0     0   511   501  0.000000000E+00  0.000000000E+00  1.415448076E+02  1.415448076E+02  0.000000000E+00  0.00000E+00  9.000E+00
      21    -1     0     0   501   502  0.000000000E+00  0.000000000E+00 -1.318903564E+03  1.318903564E+03  0.000000000E+00  0.00000E+00  9.000E+00
      25     1     1     2     0     0  1.838562898E+01  2.632087863E+02 -9.194573729E+02  9.646987909E+02  1.250000000E+02  0.00000E+00  9.000E+00
      25     1     1     2     0     0  2.163081268E+01 -2.282589972E+02 -3.206459995E+02  4.135322464E+02  1.250000000E+02  0.00000E+00  9.000E+00
      21     1     1     2   511   502 -4.001644166E+01 -3.494978915E+01  6.274461556E+01  8.221733483E+01  2.780414531E-06  0.00000E+00  9.000E+00
#rwgt            1           1   2.5128634731328359E-002          10       76338           0
</event>
<event>
      5   9999  3.19816E-02  5.79951E+01 -1.00000E+00  1.35497E-01
       2    -1     0     0   502     0  0.000000000E+00  0.000000000E+00  4.759715401E+02  4.759715401E+02  0.000000000E+00  0.00000E+00  9.000E+00
      21    -1     0     0   501   502  0.000000000E+00  0.000000000E+00 -4.136533875E+02  4.136533875E+02  0.000000000E+00  0.00000E+00  9.000E+00
      25     1     1     2     0     0 -5.199699739E+01 -2.110879161E+02  4.566649184E+01  2.548964977E+02  1.250000000E+02  0.00000E+00  9.000E+00
      25     1     1     2     0     0  7.368278962E+01  2.648759587E+02 -2.310931652E+02  3.802860476E+02  1.250000000E+02  0.00000E+00  9.000E+00
       2     1     1     2   501     0 -2.168579224E+01 -5.378804256E+01  2.477448259E+02  2.544423823E+02  2.697398305E-06  0.00000E+00  9.000E+00
#rwgt            1           1   2.7803873439141043E-002          10       76428           0
</event>
<event>
      5   9999  3.19816E-02  3.95160E+01 -1.00000E+00  1.45169E-01
      21    -1     0     0   502   501  0.000000000E+00  0.000000000E+00  5.368830493E+02  5.368830493E+02  0.000000000E+00  0.00000E+00  9.000E+00
      21    -1     0     0   501   511  0.000000000E+00  0.000000000E+00 -2.787169082E+02  2.787169082E+02  0.000000000E+00  0.00000E+00  9.000E+00
      25     1     1     2     0     0  1.464126511E+02 -3.102069360E+02  1.071939666E+02  3.805003995E+02  1.250000000E+02  0.00000E+00  9.000E+00
      25     1     1     2     0     0 -1.814152155E+02  2.918674746E+02  1.508745901E+02  3.955834236E+02  1.250000000E+02  0.00000E+00  9.000E+00
      21     1     1     2   502   511  3.500256440E+01  1.833946138E+01  9.758441319E-02  3.951613444E+01  1.620982927E-07  0.00000E+00  9.000E+00
#rwgt            2          11   3.1936863545209888E-003          10       76502           0
</event>
<event>
      5   9999  3.19816E-02  1.16811E+02 -1.00000E+00  1.20867E-01
      21    -1     0     0   502   501  0.000000000E+00  0.000000000E+00  2.744933288E+02  2.744933288E+02  0.000000000E+00  0.00000E+00  9.000E+00
       2    -1     0     0   501     0  0.000000000E+00  0.000000000E+00 -4.203184813E+02  4.203184813E+02  0.000000000E+00  0.00000E+00  9.000E+00
      25     1     1     2     0     0  2.078551251E+01 -1.761355446E+02  6.248755736E+01  2.257996068E+02  1.250000000E+02  0.00000E+00  9.000E+00
      25     1     1     2     0     0  1.486808504E+01  6.489845423E+01  7.664973720E+01  1.610374228E+02  1.250000000E+02  0.00000E+00  9.000E+00
       2     1     1     2   502     0 -3.565359756E+01  1.112370903E+02 -2.849624470E+02  3.079747806E+02  3.814697266E-06  0.00000E+00  9.000E+00
#rwgt            1           1   2.9050274456700151E-002          10       76522           0
</event>
<event>
      5   9999  3.19816E-02  2.75769E+01 -1.00000E+00  1.55624E-01
      21    -1     0     0   502   501  0.000000000E+00  0.000000000E+00  7.729890387E+02  7.729890387E+02  0.000000000E+00  0.00000E+00  9.000E+00
       2    -1     0     0   501     0  0.000000000E+00  0.000000000E+00 -1.234706287E+03  1.234706287E+03  0.000000000E+00  0.00000E+00  9.000E+00
      25     1     1     2     0     0  3.511080540E+02  8.031716106E+02 -4.348741451E+02  9.864593371E+02  1.250000000E+02  0.00000E+00  9.000E+00
      25     1     1     2     0     0 -3.636460889E+02 -8.277334060E+02  7.495921667E+01  9.157646824E+02  1.250000000E+02  0.00000E+00  9.000E+00
       2     1     1     2   502     0  1.253803481E+01  2.456179545E+01 -1.018023200E+02  1.054713064E+02  1.348699152E-06  0.00000E+00  9.000E+00
#rwgt            1           1   2.5422425239975420E-002          10       76567           0
</event>
<event>
      5   9999  3.19816E-02  2.87613E+01 -1.00000E+00  1.54323E-01
      21    -1     0     0   502   501  0.000000000E+00  0.000000000E+00  6.391846415E+01  6.391846415E+01  0.000000000E+00  0.00000E+00  9.000E+00
      21    -1     0     0   511   502  0.000000000E+00  0.000000000E+00 -7.386279360E+02  7.386279360E+02  0.000000000E+00  0.00000E+00  9.000E+00
      25     1     1     2     0     0 -1.540552614E+02  7.469777511E+01 -3.583565410E+02  4.163618518E+02  1.250000000E+02  0.00000E+00  9.000E+00
      25     1     1     2     0     0  1.255879828E+02 -7.059551645E+01 -2.551772244E+02  3.185851286E+02  1.250000000E+02  0.00000E+00  9.000E+00
      21     1     1     2   511   501  2.846727863E+01 -4.102258665E+00 -6.117570645E+01  6.759941966E+01  1.168007728E-06  0.00000E+00  9.000E+00
#rwgt            2          11   1.6876330151524516E-003          10       76891           0
</event>
<event>
      5   9999  3.19816E-02  3.32118E+02 -1.00000E+00  1.04176E-01
      21    -1     0     0   502   512  0.000000000E+00  0.000000000E+00  1.209612657E+03  1.209612657E+03  0.000000000E+00  0.00000E+00  9.000E+00
      21    -1     0     0   501   502  0.000000000E+00  0.000000000E+00 -5.962094480E+02  5.962094480E+02  0.000000000E+00  0.00000E+00  9.000E+00
      25     1     1     2     0     0  2.226109208E+02  4.044814653E+02 -2.904326547E+02  5.595864587E+02  1.250000000E+02  0.00000E+00  9.000E+00
      25     1     1     2     0     0  8.753050210E+01 -2.856763633E+02  4.698260245E+01  3.272689082E+02  1.250000000E+02  0.00000E+00  9.000E+00
      21     1     1     2   501   512 -3.101414229E+02 -1.188051020E+02  8.568532615E+02  9.189667383E+02  1.078959322E-05  0.00000E+00  9.000E+00
#rwgt            1           1   2.4917269601003052E-002          10       76941           0
</event>
<event>
      5   9999  3.19816E-02  1.19211E+02 -1.00000E+00  1.20490E-01
      21    -1     0     0   502   501  0.000000000E+00  0.000000000E+00  3.971247138E+02  3.971247138E+02  0.000000000E+00  0.00000E+00  9.000E+00
      21    -1     0     0   501   511  0.000000000E+00  0.000000000E+00 -7.496317914E+02  7.496317914E+02  0.000000000E+00  0.00000E+00  9.000E+00
      25     1     1     2     0     0 -3.866393935E+02  2.347997949E+02  8.475657861E+01  4.768958397E+02  1.250000000E+02  0.00000E+00  9.000E+00
      25     1     1     2     0     0  2.685161788E+02 -2.508699135E+02 -3.399826880E+02  5.159940696E+02  1.250000000E+02  0.00000E+00  9.000E+00
      21     1     1     2   502   511  1.181232148E+02  1.607011861E+01 -9.728096822E+01  1.538665960E+02  1.348699152E-06  0.00000E+00  9.000E+00
#rwgt            1           1   2.9487451275918081E-002          10       76988           0
</event>
<event>
      5   9999  3.19816E-02  1.43478E+02 -1.00000E+00  1.17164E-01
      21    -1     0     0   502   501  0.000000000E+00  0.000000000E+00  8.502863693E+02  8.502863693E+02  0.000000000E+00  0.00000E+00  9.000E+00
      21    -1     0     0   512   502  0.000000000E+00  0.000000000E+00 -3.487584629E+02  3.487584629E+02  0.000000000E+00  0.00000E+00  9.000E+00
      25     1     1     2     0     0  1.124387219E+02  2.532414514E+02  4.342956086E+02  5.301050599E+02  1.250000000E+02  0.00000E+00  9.000E+00
      25     1     1     2     0     0 -5.860862560E+00 -1.571837858E+02  3.202596492E+02  3.780639299E+02  1.250000000E+02  0.00000E+00  9.000E+00
      21     1     1     2   512   501 -1.065778593E+02 -9.605766564E+01 -2.530273513E+02  2.908758425E+02  6.031565972E-06  0.00000E+00  9.000E+00
#rwgt            1           1   2.8164107143163516E-002          10       77066           0
</event>
<event>
      5   9999  3.19816E-02  1.04107E+02 -1.00000E+00  1.23047E-01
      21    -1     0     0   502   501  0.000000000E+00  0.000000000E+00  1.506376663E+03  1.506376663E+03  0.000000000E+00  0.00000E+00  9.000E+00
      21    -1     0     0   511   502  0.000000000E+00  0.000000000E+00 -3.207532363E+02  3.207532363E+02  0.000000000E+00  0.00000E+00  9.000E+00
      25     1     1     2     0     0  5.002560702E+02  4.314699147E+01  1.543120254E+02  5.399583316E+02  1.250000000E+02  0.00000E+00  9.000E+00
      25     1     1     2     0     0 -6.026535237E+02 -6.193862757E+01  1.004458807E+03  1.179656797E+03  1.250000000E+02  0.00000E+00  9.000E+00
      21     1     1     2   511   501  1.023974535E+02  1.879163610E+01  2.685259368E+01  1.075147704E+02  5.840038640E-07  0.00000E+00  9.000E+00
#rwgt            1           1   2.8480517632175056E-002          10       77120           0
</event>
<event>
      5   9999  3.19816E-02  2.97777E+02 -1.00000E+00  1.05697E-01
      21    -1     0     0   502   512  0.000000000E+00  0.000000000E+00  1.102039326E+03  1.102039326E+03  0.000000000E+00  0.00000E+00  9.000E+00
      21    -1     0     0   501   502  0.000000000E+00  0.000000000E+00 -7.116856436E+02  7.116856436E+02  0.000000000E+00  0.00000E+00  9.000E+00
      25     1     1     2     0     0 -3.271146376E+02  2.131363755E+02  8.176684703E+02  9.146790847E+02  1.250000000E+02  0.00000E+00  9.000E+00
      25     1     1     2     0     0  2.934306737E+02  8.272929410E+01 -4.940823115E+02  5.938754304E+02  1.250000000E+02  0.00000E+00  9.000E+00
      21     1     1     2   501   512  3.368396389E+01 -2.958656696E+02  6.676752307E+01  3.051704540E+02  8.313939941E-06  0.00000E+00  9.000E+00
#rwgt            1           1   2.3377795296496216E-002          10       77222           0
</event>
<event>
      5   9999  3.34407E-02  1.79572E+02 -1.00000E+00  1.13378E-01
      21    -1     0     0   502   501  0.000000000E+00  0.000000000E+00  1.839347834E+03  1.839347834E+03  0.000000000E+00  0.00000E+00  9.000E+00
       1    -1     0     0   501     0  0.000000000E+00  0.000000000E+00 -1.216324228E+03  1.216324228E+03  0.000000000E+00  0.00000E+00  9.000E+00
      25     1     1     2     0     0  8.138803942E+02 -3.567895638E+02  1.293953837E+03  1.574687785E+03  1.250000000E+02  0.00000E+00  9.000E+00
      25     1     1     2     0     0 -7.833298036E+02  5.337435409E+02 -1.997368571E+02  9.767331062E+02  1.250000000E+02  0.00000E+00  9.000E+00
       1     1     1     2   502     0 -3.055059059E+01 -1.769539771E+02 -4.711933735E+02  5.042511713E+02  5.394796609E-06  0.00000E+00  9.000E+00
#rwgt            1           1   7.6488750215848972E-002          10       77270           0
</event>
<event>
      5   9999  3.19816E-02  1.01461E+02 -1.00000E+00  1.23545E-01
       2    -1     0     0   502     0  0.000000000E+00  0.000000000E+00  2.373280548E+03  2.373280548E+03  0.000000000E+00  0.00000E+00  9.000E+00
      21    -1     0     0   501   502  0.000000000E+00  0.000000000E+00 -5.424564103E+02  5.424564103E+02  0.000000000E+00  0.00000E+00  9.000E+00
      25     1     1     2     0     0 -1.457574588E+02 -8.144380766E+02  6.992247286E+02  1.090456252E+03  1.250000000E+02  0.00000E+00  9.000E+00
      25     1     1     2     0     0  2.225264810E+02  8.807772993E+02  2.674816242E+02  9.552267297E+02  1.250000000E+02  0.00000E+00  9.000E+00
       2     1     1     2   501     0 -7.676902228E+01 -6.633922274E+01  8.641177846E+02  8.700539759E+02  1.078959322E-05  0.00000E+00  9.000E+00
#rwgt            2          18   1.5701722480060589E-003          10       77680           0
</event>
<event>
      5   9999  3.19816E-02  1.39926E+02 -1.00000E+00  1.17603E-01
      21    -1     0     0   502   501  0.000000000E+00  0.000000000E+00  6.121748305E+02  6.121748305E+02  0.000000000E+00  0.00000E+00  9.000E+00
      -2    -1     0     0     0   502  0.000000000E+00  0.000000000E+00 -6.087955105E+02  6.087955105E+02  0.000000000E+00  0.00000E+00  9.000E+00
      25     1     1     2     0     0 -1.127214395E+02  4.454096284E+01  5.460817041E+02  5.731668586E+02  1.250000000E+02  0.00000E+00  9.000E+00
      25     1     1     2     0     0  7.736314654E+01  9.084433158E+01 -1.429559143E+02  2.242747031E+02  1.250000000E+02  0.00000E+00  9.000E+00
      -2     1     1     2     0   501  3.535829300E+01 -1.353852944E+02 -3.997464697E+02  4.235287793E+02  7.629394531E-06  0.00000E+00  9.000E+00
#rwgt            1           1   2.7521442460379866E-002          10       77714           0
</event>
<event>
      5   9999  3.19816E-02  7.36563E+01 -1.00000E+00  1.30111E-01
      21    -1     0     0   502   511  0.000000000E+00  0.000000000E+00  1.422253219E+03  1.422253219E+03  0.000000000E+00  0.00000E+00  9.000E+00
      21    -1     0     0   501   502  0.000000000E+00  0.000000000E+00 -3.978679521E+02  3.978679521E+02  0.000000000E+00  0.00000E+00  9.000E+00
      25     1     1     2     0     0 -1.734991424E+02 -5.636023789E+02  3.045577801E+02  6.753739966E+02  1.250000000E+02  0.00000E+00  9.000E+00
      25     1     1     2     0     0  1.092403761E+02  5.996032907E+02  2.521643272E+02  6.713191595E+02  1.250000000E+02  0.00000E+00  9.000E+00
      21     1     1     2   501   511  6.425876630E+01 -3.600091179E+01  4.676631591E+02  4.734280146E+02  7.629394531E-06  0.00000E+00  9.000E+00
#rwgt            1           1   2.8167465799849769E-002          10       77761           0
</event>
<event>
      5   9999  3.19816E-02  1.83473E+02 -1.00000E+00  1.13029E-01
      21    -1     0     0   502   512  0.000000000E+00  0.000000000E+00  6.254134066E+02  6.254134066E+02  0.000000000E+00  0.00000E+00  9.000E+00
      21    -1     0     0   501   502  0.000000000E+00  0.000000000E+00 -1.710583472E+02  1.710583472E+02  0.000000000E+00  0.00000E+00  9.000E+00
      25     1     1     2     0     0 -7.661700106E+01  7.565121688E+01 -6.144257201E+01  1.760495985E+02  1.250000000E+02  0.00000E+00  9.000E+00
      25     1     1     2     0     0 -8.431505474E+01  1.245708235E+01  1.606076589E+02  2.206445727E+02  1.250000000E+02  0.00000E+00  9.000E+00
      21     1     1     2   501   512  1.609320558E+02 -8.810829923E+01  3.551899725E+02  3.997775826E+02  8.529922400E-06  0.00000E+00  9.000E+00
#rwgt            1           1   3.4455526288806201E-002          10       77853           0
</event>
<event>
      5   9999  3.19816E-02  4.40530E+02 -1.00000E+00  1.00440E-01
      21    -1     0     0   502   511  0.000000000E+00  0.000000000E+00  3.048585304E+02  3.048585304E+02  0.000000000E+00  0.00000E+00  9.000E+00
      21    -1     0     0   501   502  0.000000000E+00  0.000000000E+00 -1.289213770E+03  1.289213770E+03  0.000000000E+00  0.00000E+00  9.000E+00
      25     1     1     2     0     0 -4.423415304E+01 -1.955264605E+02 -4.198446483E+02  4.817486749E+02  1.250000000E+02  0.00000E+00  9.000E+00
      25     1     1     2     0     0  2.406822668E+02 -1.987762888E+02 -5.812197879E+02  6.714770348E+02  1.250000000E+02  0.00000E+00  9.000E+00
      21     1     1     2   501   511 -1.964481137E+02  3.943027493E+02  1.670919625E+01  4.408465909E+02  2.223820461E-06  0.00000E+00  9.000E+00
#rwgt            2          11   8.0724570049310641E-003          10       77954           0
</event>
<event>
      5   9999  3.19816E-02  7.79926E+01 -1.00000E+00  1.28886E-01
      21    -1     0     0   502   501  0.000000000E+00  0.000000000E+00  9.670669931E+02  9.670669931E+02  0.000000000E+00  0.00000E+00  9.000E+00
      21    -1     0     0   512   502  0.000000000E+00  0.000000000E+00 -4.050404018E+02  4.050404018E+02  0.000000000E+00  0.00000E+00  9.000E+00
      25     1     1     2     0     0  2.699256490E+02  3.637589084E+02  4.623174075E+02  6.591985928E+02  1.250000000E+02  0.00000E+00  9.000E+00
      25     1     1     2     0     0 -3.233619253E+02 -4.205691554E+02  2.046213912E+02  5.821823279E+02  1.250000000E+02  0.00000E+00  9.000E+00
      21     1     1     2   512   501  5.343627628E+01  5.681024705E+01 -1.049122074E+02  1.307264742E+02  1.907348633E-06  0.00000E+00  9.000E+00
#rwgt            1           1   3.0447604701925798E-002          10       77974           0
</event>
<event>
      5   9999  3.19816E-02  1.75983E+01 -1.00000E+00  1.71088E-01
      21    -1     0     0   511   501  0.000000000E+00  0.000000000E+00  1.115742131E+02  1.115742131E+02  0.000000000E+00  0.00000E+00  9.000E+00
      21    -1     0     0   501   502  0.000000000E+00  0.000000000E+00 -7.880083484E+02  7.880083484E+02  0.000000000E+00  0.00000E+00  9.000E+00
      25     1     1     2     0     0 -2.104490372E+02 -2.790382009E+01 -9.224185099E+01  2.630607905E+02  1.250000000E+02  0.00000E+00  9.000E+00
      25     1     1     2     0     0  1.929689639E+02  2.586728605E+01 -5.647034064E+02  6.102631193E+02  1.250000000E+02  0.00000E+00  9.000E+00
      21     1     1     2   511   502  1.748007328E+01  2.036534038E+00 -1.948887790E+01  2.625865181E+01  5.331201500E-07  0.00000E+00  9.000E+00
#rwgt            1           1   2.8401023556798067E-002          10       78098           0
</event>
<event>
      5   9999  3.19816E-02  3.05842E+02 -1.00000E+00  1.05321E-01
       1    -1     0     0   502     0  0.000000000E+00  0.000000000E+00  5.195405180E+02  5.195405180E+02  0.000000000E+00  0.00000E+00  9.000E+00
      21    -1     0     0   501   502  0.000000000E+00  0.000000000E+00 -7.392465809E+02  7.392465809E+02  0.000000000E+00  0.00000E+00  9.000E+00
      25     1     1     2     0     0 -1.834679960E+02 -1.703565275E+02 -1.581011420E+02  3.214075654E+02  1.250000000E+02  0.00000E+00  9.000E+00
      25     1     1     2     0     0 -7.555018677E+01  7.725682698E+00 -4.325503571E+02  4.566096016E+02  1.250000000E+02  0.00000E+00  9.000E+00
       1     1     1     2   501     0  2.590181828E+02  1.626308448E+02  3.709454362E+02  4.807699318E+02  7.629394531E-06  0.00000E+00  9.000E+00
#rwgt            1           1   2.7989948219238368E-002          10       78254           0
</event>
<event>
      5   9999  3.19816E-02  8.41515E+01 -1.00000E+00  1.27295E-01
      21    -1     0     0   502   501  0.000000000E+00  0.000000000E+00  1.061344440E+02  1.061344440E+02  0.000000000E+00  0.00000E+00  9.000E+00
      21    -1     0     0   501   511  0.000000000E+00  0.000000000E+00 -1.041953119E+03  1.041953119E+03  0.000000000E+00  0.00000E+00  9.000E+00
      25     1     1     2     0     0  1.260886342E+02  1.183117225E+02 -3.806227015E+01  2.167250419E+02  1.250000000E+02  0.00000E+00  9.000E+00
      25     1     1     2     0     0 -9.144796797E+01 -4.162073503E+01 -5.118028442E+02  5.363414656E+02  1.250000000E+02  0.00000E+00  9.000E+00
      21     1     1     2   502   511 -3.464066623E+01 -7.669098751E+01 -3.859535604E+02  3.950210552E+02  5.394796609E-06  0.00000E+00  9.000E+00
#rwgt            1           1   2.6689913604112044E-002          10       78289           0
</event>
<event>
      5   9999  3.19816E-02  1.88439E+01 -1.00000E+00  1.68531E-01
      21    -1     0     0   502   512  0.000000000E+00  0.000000000E+00  2.517443231E+02  2.517443231E+02  0.000000000E+00  0.00000E+00  9.000E+00
      21    -1     0     0   501   502  0.000000000E+00  0.000000000E+00 -2.087838391E+03  2.087838391E+03  0.000000000E+00  0.00000E+00  9.000E+00
      25     1     1     2     0     0 -3.638961255E+01  4.301213127E+02 -1.700488580E+03  1.758867522E+03  1.250000000E+02  0.00000E+00  9.000E+00
      25     1     1     2     0     0  1.764341722E+01 -4.282044639E+02 -2.175641858E+02  4.966180907E+02  1.250000000E+02  0.00000E+00  9.000E+00
      21     1     1     2   501   512  1.874619532E+01 -1.916848758E+00  8.195869866E+01  8.409710122E+01  1.348699152E-06  0.00000E+00  9.000E+00
#rwgt            1           1   2.8460151861694021E-002          10       78391           0
</event>
<event>
      5   9999  3.19816E-02  1.63230E+01 -1.00000E+00  1.73994E-01
      21    -1     0     0   502   511  0.000000000E+00  0.000000000E+00  1.127788897E+02  1.127788897E+02  0.000000000E+00  0.00000E+00  9.000E+00
      21    -1     0     0   501   502  0.000000000E+00  0.000000000E+00 -6.109602156E+02  6.109602156E+02  0.000000000E+00  0.00000E+00  9.000E+00
      25     1     1     2     0     0 -2.289711764E+01 -1.218939050E+02 -1.808725301E+02  2.524327122E+02  1.250000000E+02  0.00000E+00  9.000E+00
      25     1     1     2     0     0  3.445857290E+01  1.334165745E+02 -3.710835398E+02  4.151088642E+02  1.250000000E+02  0.00000E+00  9.000E+00
      21     1     1     2   501   511 -1.156145526E+01 -1.152266953E+01  5.377474401E+01  5.619752890E+01  1.348699152E-06  0.00000E+00  9.000E+00
#rwgt            1           1   3.1788487233526425E-002          10       78656           0
</event>
<event>
      5   9999  3.19816E-02  5.31244E+01 -1.00000E+00  1.37590E-01
      21    -1     0     0   502   501  0.000000000E+00  0.000000000E+00  2.523603304E+02  2.523603304E+02  0.000000000E+00  0.00000E+00  9.000E+00
      21    -1     0     0   501   512  0.000000000E+00  0.000000000E+00 -3.571476281E+02  3.571476281E+02  0.000000000E+00  0.00000E+00  9.000E+00
      25     1     1     2     0     0 -2.494403373E+02 -5.835020817E+00 -6.827336955E+00  2.791525423E+02  1.250000000E+02  0.00000E+00  9.000E+00
      25     1     1     2     0     0  1.963267091E+02  4.762860488E+00 -1.685521625E+01  2.334008566E+02  1.250000000E+02  0.00000E+00  9.000E+00
      21     1     1     2   502   512  5.311362822E+01  1.072160330E+00 -8.110474454E+01  9.695455955E+01  0.000000000E+00  0.00000E+00  9.000E+00
#rwgt            1           1   2.2444951988459139E-002          10       78806           0
</event>
<event>
      5   9999  3.19816E-02  7.75406E+01 -1.00000E+00  1.29009E-01
      21    -1     0     0   502   501  0.000000000E+00  0.000000000E+00  8.260773608E+01  8.260773608E+01  0.000000000E+00  0.00000E+00  9.000E+00
       2    -1     0     0   501     0  0.000000000E+00  0.000000000E+00 -9.257767792E+02  9.257767792E+02  0.000000000E+00  0.00000E+00  9.000E+00
      25     1     1     2     0     0 -1.164469184E+02  9.214564682E+01 -4.664245943E+02  5.052005613E+02  1.250000000E+02  0.00000E+00  9.000E+00
      25     1     1     2     0     0  1.938985449E+02 -9.585819758E+01 -3.251777257E+02  4.100621819E+02  1.250000000E+02  0.00000E+00  9.000E+00
       2     1     1     2   502     0 -7.745162653E+01  3.712550754E+00 -5.156672319E+01  9.312177203E+01  6.743495762E-07  0.00000E+00  9.000E+00
#rwgt            1           1   3.3726671365517075E-002          10       78866           0
</event>
<event>
      5   9999  3.19816E-02  1.16518E+03 -1.00000E+00  8.94253E-02
      21    -1     0     0   502   501  0.000000000E+00  0.000000000E+00  2.398818751E+03  2.398818751E+03  0.000000000E+00  0.00000E+00  9.000E+00
       2    -1     0     0   501     0  0.000000000E+00  0.000000000E+00 -8.572253683E+02  8.572253683E+02  0.000000000E+00  0.00000E+00  9.000E+00
      25     1     1     2     0     0  7.987172231E+02 -7.759500368E+02  1.403846666E+00  1.120568888E+03  1.250000000E+02  0.00000E+00  9.000E+00
      25     1     1     2     0     0 -1.674383722E+02 -2.034048012E+02  4.716624795E+02  5.545264793E+02  1.250000000E+02  0.00000E+00  9.000E+00
       2     1     1     2   502     0 -6.312788508E+02  9.793548380E+02  1.068527056E+03  1.580948752E+03  2.157918644E-05  0.00000E+00  9.000E+00
#rwgt            2          13   5.6451542974632804E-005          10       78950           0
</event>
<event>
      5   9999  3.19816E-02  1.23018E+01 -1.00000E+00  1.85901E-01
      21    -1     0     0   502   501  0.000000000E+00  0.000000000E+00  4.186935225E+01  4.186935225E+01  0.000000000E+00  0.00000E+00  9.000E+00
      21    -1     0     0   501   511  0.000000000E+00  0.000000000E+00 -1.034950857E+03  1.034950857E+03  0.000000000E+00  0.00000E+00  9.000E+00
      25     1     1     2     0     0 -1.053640264E+02  7.955866948E+01 -2.665631781E+02  3.226640480E+02  1.250000000E+02  0.00000E+00  9.000E+00
      25     1     1     2     0     0  1.083802055E+02 -9.148494185E+01 -6.968321998E+02  7.220220759E+02  1.250000000E+02  0.00000E+00  9.000E+00
      21     1     1     2   502   511 -3.016179179E+00  1.192627238E+01 -2.968612687E+01  3.213408530E+01  6.743495762E-07  0.00000E+00  9.000E+00
#rwgt            1           1   3.6484600540605323E-002          10       78969           0
</event>
<event>
      5   9999  3.19816E-02  1.10091E+02 -1.00000E+00  1.21979E-01
      21    -1     0     0   502   501  0.000000000E+00  0.000000000E+00  8.063256745E+02  8.063256745E+02  0.000000000E+00  0.00000E+00  9.000E+00
      21    -1     0     0   501   512  0.000000000E+00  0.000000000E+00 -2.163248793E+02  2.163248793E+02  0.000000000E+00  0.00000E+00  9.000E+00
      25     1     1     2     0     0  4.520826287E+01 -1.577229751E+02  5.711328523E+02  6.072380578E+02  1.250000000E+02  0.00000E+00  9.000E+00
      25     1     1     2     0     0 -3.927166260E+01  2.676542750E+02  4.723833300E+01  3.017242690E+02  1.250000000E+02  0.00000E+00  9.000E+00
      21     1     1     2   502   512 -5.936600270E+00 -1.099312999E+02 -2.837039002E+01  1.136882269E+02  1.261592536E-06  0.00000E+00  9.000E+00
#rwgt            2          11   3.0760831448128924E-003          10       79254           0
</event>
<event>
      5   9999  3.19816E-02  3.06270E+02 -1.00000E+00  1.05301E-01
      21    -1     0     0   502   501  0.000000000E+00  0.000000000E+00  2.956134104E+03  2.956134104E+03  0.000000000E+00  0.00000E+00  9.000E+00
      21    -1     0     0   501   511  0.000000000E+00  0.000000000E+00 -5.577193634E+02  5.577193634E+02  0.000000000E+00  0.00000E+00  9.000E+00
      25     1     1     2     0     0 -7.163884022E+02  1.970106611E+02  1.836302929E+03  1.984857423E+03  1.250000000E+02  0.00000E+00  9.000E+00
      25     1     1     2     0     0  4.101945643E+02 -2.038307818E+02  9.336830200E+02  1.047471026E+03  1.250000000E+02  0.00000E+00  9.000E+00
      21     1     1     2   502   511  3.061938380E+02  6.820120657E+00 -3.715712083E+02  4.815250184E+02  7.629394531E-06  0.00000E+00  9.000E+00
#rwgt            2          11   1.5905902852925126E-002          10       79289           0
</event>
<event>
      5   9999  3.19816E-02  4.22947E+01 -1.00000E+00  1.43354E-01
      21    -1     0     0   502   501  0.000000000E+00  0.000000000E+00  3.934008402E+02  3.934008402E+02  0.000000000E+00  0.00000E+00  9.000E+00
      21    -1     0     0   501   512  0.000000000E+00  0.000000000E+00 -7.601310470E+02  7.601310470E+02  0.000000000E+00  0.00000E+00  9.000E+00
      25     1     1     2     0     0 -4.482859381E+02 -9.267840213E+01 -2.557764819E+02  5.390697332E+02  1.250000000E+02  0.00000E+00  9.000E+00
      25     1     1     2     0     0  4.075006852E+02  8.147998672E+01  6.024054561E+01  4.381206683E+02  1.250000000E+02  0.00000E+00  9.000E+00
      21     1     1     2   502   512  4.078525292E+01  1.119841541E+01 -1.711942704E+02  1.763414857E+02  1.907348633E-06  0.00000E+00  9.000E+00
#rwgt            1           1   2.8929207459661346E-002          10       79354           0
</event>
<event>
      5   9999  3.19816E-02  1.63421E+02 -1.00000E+00  1.14937E-01
      21    -1     0     0   502   511  0.000000000E+00  0.000000000E+00  2.339879656E+02  2.339879656E+02  0.000000000E+00  0.00000E+00  9.000E+00
      21    -1     0     0   501   502  0.000000000E+00  0.000000000E+00 -1.138249651E+03  1.138249651E+03  0.000000000E+00  0.00000E+00  9.000E+00
      25     1     1     2     0     0  6.663579410E+01 -2.322521476E+02  2.544972542E+00  2.720530573E+02  1.250000000E+02  0.00000E+00  9.000E+00
      25     1     1     2     0     0 -1.870656643E+02  3.427202696E+02 -8.160742425E+02  9.132649753E+02  1.250000000E+02  0.00000E+00  9.000E+00
      21     1     1     2   501   511  1.204298702E+02 -1.104681220E+02 -9.073241526E+01  1.869195837E+02  3.015782986E-06  0.00000E+00  9.000E+00
#rwgt            1           1   2.8082035262670620E-002          10       79533           0
</event>
<event>
      5   9999  3.19816E-02  5.45132E+02 -1.00000E+00  9.77973E-02
      21    -1     0     0   502   501  0.000000000E+00  0.000000000E+00  1.661248479E+03  1.661248479E+03  0.000000000E+00  0.00000E+00  9.000E+00
      21    -1     0     0   501   512  0.000000000E+00  0.000000000E+00 -7.105216798E+02  7.105216798E+02  0.000000000E+00  0.00000E+00  9.000E+00
      25     1     1     2     0     0 -8.528795779E+02 -2.829670506E+01  8.870469576E+02  1.237207171E+03  1.250000000E+02  0.00000E+00  9.000E+00
      25     1     1     2     0     0  3.432173399E+02  2.217219484E+02  3.183753736E+02  5.328664405E+02  1.250000000E+02  0.00000E+00  9.000E+00
      21     1     1     2   502   512  5.096622380E+02 -1.934252434E+02 -2.546955319E+02  6.016965478E+02  7.629394531E-06  0.00000E+00  9.000E+00
#rwgt            1           1   3.2240042262282227E-002          10       79600           0
</event>
<event>
      5   9999  3.19816E-02  9.80081E+01 -1.00000E+00  1.24222E-01
      21    -1     0     0   502   501  0.000000000E+00  0.000000000E+00  9.577038763E+02  9.577038763E+02  0.000000000E+00  0.00000E+00  9.000E+00
      21    -1     0     0   511   502  0.000000000E+00  0.000000000E+00 -4.142640925E+02  4.142640925E+02  0.000000000E+00  0.00000E+00  9.000E+00
      25     1     1     2     0     0 -9.298049250E+01 -8.773931810E+01  8.811870541E+02  8.991435838E+02  1.250000000E+02  0.00000E+00  9.000E+00
      25     1     1     2     0     0  5.453840773E+01 -2.414965523E+00 -3.484861503E+02  3.742296980E+02  1.250000000E+02  0.00000E+00  9.000E+00
      21     1     1     2   511   501  3.844208477E+01  9.015428362E+01  1.073887993E+01  9.859468687E+01  2.494865601E-06  0.00000E+00  9.000E+00
#rwgt            1           1   3.4092363587903511E-002          10       79646           0
</event>
<event>
      5   9999  3.19816E-02  9.23010E+00 -1.00000E+00  1.99867E-01
      21    -1     0     0   502   501  0.000000000E+00  0.000000000E+00  8.932978301E+02  8.932978301E+02  0.000000000E+00  0.00000E+00  9.000E+00
      -1    -1     0     0     0   502  0.000000000E+00  0.000000000E+00 -2.449908100E+02  2.449908100E+02  0.000000000E+00  0.00000E+00  9.000E+00
      25     1     1     2     0     0  2.140644674E+02  3.871965799E+02  2.368835801E+02  5.171881845E+02  1.250000000E+02  0.00000E+00  9.000E+00
      25     1     1     2     0     0 -2.177727640E+02 -3.787441711E+02  4.094209091E+02  6.116556259E+02  1.250000000E+02  0.00000E+00  9.000E+00
      -1     1     1     2     0   501  3.708296578E+00 -8.452408770E+00  2.002530997E+00  9.444829693E+00  2.384185791E-07  0.00000E+00  9.000E+00
#rwgt            1           1   2.6045392843459469E-002          10       79738           0
</event>
<event>
      5   9999  3.19816E-02  5.60989E+01 -1.00000E+00  1.36282E-01
      21    -1     0     0   502   501  0.000000000E+00  0.000000000E+00  1.072641609E+03  1.072641609E+03  0.000000000E+00  0.00000E+00  9.000E+00
      21    -1     0     0   511   502  0.000000000E+00  0.000000000E+00 -2.843224769E+03  2.843224769E+03  0.000000000E+00  0.00000E+00  9.000E+00
      25     1     1     2     0     0 -6.449957748E+02  7.228071652E+00 -1.030697045E+03  1.222306505E+03  1.250000000E+02  0.00000E+00  9.000E+00
      25     1     1     2     0     0  6.976925164E+02  1.201106255E+01  8.476610218E+02  1.105021864E+03  1.250000000E+02  0.00000E+00  9.000E+00
      21     1     1     2   511   501 -5.269674162E+01 -1.923913420E+01 -1.587547138E+03  1.588538009E+03  2.157918644E-05  0.00000E+00  9.000E+00
#rwgt            1           1   5.5656736388791588E-002          10       79944           0
</event>
<event>
      5   9999  3.19816E-02  5.94711E+01 -1.00000E+00  1.34909E-01
      21    -1     0     0   502   501  0.000000000E+00  0.000000000E+00  1.362133869E+02  1.362133869E+02  0.000000000E+00  0.00000E+00  9.000E+00
      21    -1     0     0   512   502  0.000000000E+00  0.000000000E+00 -5.863963785E+02  5.863963785E+02  0.000000000E+00  0.00000E+00  9.000E+00
      25     1     1     2     0     0  6.739394453E+01 -8.283576760E+01 -2.879172903E+02  3.315495049E+02  1.250000000E+02  0.00000E+00  9.000E+00
      25     1     1     2     0     0 -1.215681150E+02  5.830074625E+01  3.312838530E+01  1.868161490E+02  1.250000000E+02  0.00000E+00  9.000E+00
      21     1     1     2   512   501  5.417417049E+01  2.453502135E+01 -1.953940866E+02  2.042441115E+02  2.697398305E-06  0.00000E+00  9.000E+00
#rwgt            1           1   2.8515479166174459E-002          10       80064           0
</event>
<event>
      5   9999  3.19816E-02  1.04598E+02 -1.00000E+00  1.22956E-01
      21    -1     0     0   502   501  0.000000000E+00  0.000000000E+00  4.151483339E+02  4.151483339E+02  0.000000000E+00  0.00000E+00  9.000E+00
      21    -1     0     0   501   511  0.000000000E+00  0.000000000E+00 -1.087720709E+03  1.087720709E+03  0.000000000E+00  0.00000E+00  9.000E+00
      25     1     1     2     0     0  2.650539392E+01 -7.937161996E+01  1.113441791E+02  1.871494488E+02  1.250000000E+02  0.00000E+00  9.000E+00
      25     1     1     2     0     0 -2.247688605E+01  1.838919558E+02  2.157263593E+02  3.106192588E+02  1.250000000E+02  0.00000E+00  9.000E+00
      21     1     1     2   502   511 -4.028507863E+00 -1.045203358E+02 -9.996429131E+02  1.005100335E+03  1.525878906E-05  0.00000E+00  9.000E+00
#rwgt            1           1   2.3253187135373086E-002          10       80157           0
</event>
<event>
      5   9999  3.19816E-02  8.28839E+01 -1.00000E+00  1.27609E-01
       1    -1     0     0   502     0  0.000000000E+00  0.000000000E+00  1.235748497E+03  1.235748497E+03  0.000000000E+00  0.00000E+00  9.000E+00
      21    -1     0     0   501   502  0.000000000E+00  0.000000000E+00 -1.100356038E+03  1.100356038E+03  0.000000000E+00  0.00000E+00  9.000E+00
      25     1     1     2     0     0 -1.723909534E+02  1.017751673E+03  4.316674382E+02  1.125832530E+03  1.250000000E+02  0.00000E+00  9.000E+00
      25     1     1     2     0     0  2.499591441E+02 -9.885469284E+02 -3.772765585E+02  1.094379827E+03  1.250000000E+02  0.00000E+00  9.000E+00
       1     1     1     2   501     0 -7.756819076E+01 -2.920474426E+01  8.100157861E+01  1.158921785E+02  9.536743164E-07  0.00000E+00  9.000E+00
#rwgt            1           1   2.6988044254110433E-002          10       80241           0
</event>
<event>
      5   9999  3.39667E-02  9.11280E+01 -1.00000E+00  1.25670E-01
      21    -1     0     0   502   501  0.000000000E+00  0.000000000E+00  1.897798602E+01  1.897798602E+01  0.000000000E+00  0.00000E+00  9.000E+00
      21    -1     0     0   501   511  0.000000000E+00  0.000000000E+00 -2.742752935E+03  2.742752935E+03  0.000000000E+00  0.00000E+00  9.000E+00
      25     1     1     2     0     0 -9.157100511E+01  8.804713823E+01 -1.055061791E+03  1.070008378E+03  1.250000000E+02  0.00000E+00  9.000E+00
      25     1     1     2     0     0  3.128149159E+00 -6.608868038E+01 -5.045248442E+02  5.239731075E+02  1.250000000E+02  0.00000E+00  9.000E+00
      21     1     1     2   502   511  8.844285595E+01 -2.195845785E+01 -1.164188314E+03  1.167749435E+03  1.525878906E-05  0.00000E+00  9.000E+00
#rwgt            1           1   9.2460281175345688E-002          10       80370           0
</event>
<event>
      5   9999  3.19816E-02  5.17392E+01 -1.00000E+00  1.38234E-01
      21    -1     0     0   502   501  0.000000000E+00  0.000000000E+00  2.300744932E+01  2.300744932E+01  0.000000000E+00  0.00000E+00  9.000E+00
      21    -1     0     0   512   502  0.000000000E+00  0.000000000E+00 -1.910952788E+03  1.910952788E+03  0.000000000E+00  0.00000E+00  9.000E+00
      25     1     1     2     0     0 -2.180780100E+01  9.404230702E+01 -6.223937285E+02  6.421203073E+02  1.250000000E+02  0.00000E+00  9.000E+00
      25     1     1     2     0     0  7.237631428E+01 -8.309828863E+01 -5.567724804E+02  5.811748888E+02  1.250000000E+02  0.00000E+00  9.000E+00
      21     1     1     2   512   501 -5.056851328E+01 -1.094401839E+01 -7.087791298E+02  7.106650413E+02  1.078959322E-05  0.00000E+00  9.000E+00
#rwgt            1           1   2.6924144320316319E-002          10       80423           0
</event>
<event>
      5   9999  3.19816E-02  4.41426E+01 -1.00000E+00  1.42235E-01
       2    -1     0     0   502     0  0.000000000E+00  0.000000000E+00  1.933853042E+03  1.933853042E+03  0.000000000E+00  0.00000E+00  9.000E+00
      21    -1     0     0   501   502  0.000000000E+00  0.000000000E+00 -2.406227500E+02  2.406227500E+02  0.000000000E+00  0.00000E+00  9.000E+00
      25     1     1     2     0     0 -2.287519117E+02  4.238155481E+02  5.928219097E+02  7.739572808E+02  1.250000000E+02  0.00000E+00  9.000E+00
      25     1     1     2     0     0  1.858717501E+02 -4.342967927E+02  2.498728854E+02  5.488382918E+02  1.250000000E+02  0.00000E+00  9.000E+00
       2     1     1     2   501     0  4.288016168E+01  1.048124467E+01  8.505354970E+02  8.516802196E+02  1.078959322E-05  0.00000E+00  9.000E+00
#rwgt            1           1   3.0221664300806989E-002          10       80477           0
</event>
<event>
      5   9999  3.19816E-02  2.20073E+01 -1.00000E+00  1.63013E-01
      21    -1     0     0   511   501  0.000000000E+00  0.000000000E+00  3.596178980E+02  3.596178980E+02  0.000000000E+00  0.00000E+00  9.000E+00
      21    -1     0     0   501   502  0.000000000E+00  0.000000000E+00 -3.068456722E+02  3.068456722E+02  0.000000000E+00  0.00000E+00  9.000E+00
      25     1     1     2     0     0 -1.720260654E+02  1.965907981E+02  4.026155391E+01  2.923814320E+02  1.250000000E+02  0.00000E+00  9.000E+00
      25     1     1     2     0     0  1.928181529E+02 -2.038027588E+02 -4.691754876E+01  3.107099306E+02  1.250000000E+02  0.00000E+00  9.000E+00
      21     1     1     2   511   502 -2.079208757E+01  7.211960710E+00  5.942822069E+01  6.337220761E+01  6.743495762E-07  0.00000E+00  9.000E+00
#rwgt            1           1   2.7765882944718528E-002          10       80622           0
</event>
<event>
      5   9999  3.19816E-02  8.51445E+01 -1.00000E+00  1.27053E-01
       1    -1     0     0   502     0  0.000000000E+00  0.000000000E+00  1.865975893E+03  1.865975893E+03  0.000000000E+00  0.00000E+00  9.000E+00
      21    -1     0     0   501   502  0.000000000E+00  0.000000000E+00 -4.166491985E+02  4.166491985E+02  0.000000000E+00  0.00000E+00  9.000E+00
      25     1     1     2     0     0  5.507164097E+01 -3.912845426E+01 -4.695071222E+01  1.496438804E+02  1.250000000E+02  0.00000E+00  9.000E+00
      25     1     1     2     0     0 -2.631789187E+01  1.192709024E+02 -2.932778151E+02  3.414016058E+02  1.250000000E+02  0.00000E+00  9.000E+00
       1     1     1     2   501     0 -2.875374910E+01 -8.014244816E+01  1.789555221E+03  1.791579605E+03  0.000000000E+00  0.00000E+00  9.000E+00
#rwgt            1           1   2.8193547946618502E-002          10       80789           0
</event>
<event>
      5   9999  3.19816E-02  1.18444E+02 -1.00000E+00  1.20609E-01
      21    -1     0     0   502   501  0.000000000E+00  0.000000000E+00  1.347957992E+03  1.347957992E+03  0.000000000E+00  0.00000E+00  9.000E+00
      21    -1     0     0   511   502  0.000000000E+00  0.000000000E+00 -8.741706830E+01  8.741706830E+01  0.000000000E+00  0.00000E+00  9.000E+00
      25     1     1     2     0     0 -2.494216419E+02  4.427655185E+00  5.125768861E+02  5.836015968E+02  1.250000000E+02  0.00000E+00  9.000E+00
      25     1     1     2     0     0  1.341452466E+02  2.278120806E+01  7.000203853E+02  7.239941094E+02  1.250000000E+02  0.00000E+00  9.000E+00
      21     1     1     2   511   501  1.152763954E+02 -2.720886325E+01  4.794365246E+01  1.277793543E+02  1.348699152E-06  0.00000E+00  9.000E+00
#rwgt            1           1   3.4952954610635557E-002          10       80861           0
</event>
<event>
      5   9999  3.19816E-02  5.06419E+01 -1.00000E+00  1.38760E-01
      21    -1     0     0   502   501  0.000000000E+00  0.000000000E+00  4.017023058E+02  4.017023058E+02  0.000000000E+00  0.00000E+00  9.000E+00
      21    -1     0     0   501   512  0.000000000E+00  0.000000000E+00 -2.365137144E+02  2.365137144E+02  0.000000000E+00  0.00000E+00  9.000E+00
      25     1     1     2     0     0 -6.401914566E+01 -1.029717496E+02  2.774156887E+02  3.275455641E+02  1.250000000E+02  0.00000E+00  9.000E+00
      25     1     1     2     0     0  1.074647498E+02  1.289925041E+02 -2.634108150E+01  2.109658530E+02  1.250000000E+02  0.00000E+00  9.000E+00
      21     1     1     2   502   512 -4.344560409E+01 -2.602075446E+01 -8.588601575E+01  9.970460309E+01  9.536743164E-07  0.00000E+00  9.000E+00
#rwgt            1           1   2.8961671503204955E-002          10       80929           0
</event>
<event>
      5   9999  3.19816E-02  1.27089E+02 -1.00000E+00  1.19320E-01
      21    -1     0     0   511   501  0.000000000E+00  0.000000000E+00  8.268492935E+02  8.268492935E+02  0.000000000E+00  0.00000E+00  9.000E+00
      21    -1     0     0   501   502  0.000000000E+00  0.000000000E+00 -1.795272031E+02  1.795272031E+02  0.000000000E+00  0.00000E+00  9.000E+00
      25     1     1     2     0     0 -7.469482721E+01  3.881512806E+01 -7.158584342E+01  1.668396366E+02  1.250000000E+02  0.00000E+00  9.000E+00
      25     1     1     2     0     0  1.980599220E+02 -6.935424418E+01  2.340260368E+02  3.382764103E+02  1.250000000E+02  0.00000E+00  9.000E+00
      21     1     1     2   511   502 -1.233650948E+02  3.053911612E+01  4.848818971E+02  5.012604496E+02  5.394796609E-06  0.00000E+00  9.000E+00
#rwgt            2          11   2.0922350448869653E-003          10       81103           0
</event>
<event>
      5   9999  3.19816E-02  6.81693E+01 -1.00000E+00  1.31806E-01
      21    -1     0     0   502   512  0.000000000E+00  0.000000000E+00  1.498858037E+02  1.498858037E+02  0.000000000E+00  0.00000E+00  9.000E+00
      21    -1     0     0   501   502  0.000000000E+00  0.000000000E+00 -6.364461830E+02  6.364461830E+02  0.000000000E+00  0.00000E+00  9.000E+00
      25     1     1     2     0     0  1.029495592E+01 -9.573028241E+01  5.596172311E+01  1.674126266E+02  1.250000000E+02  0.00000E+00  9.000E+00
      25     1     1     2     0     0 -5.777786168E+01  1.446427183E+02 -5.004129041E+02  5.387929768E+02  1.250000000E+02  0.00000E+00  9.000E+00
      21     1     1     2   501   512  4.748290577E+01 -4.891243585E+01 -4.210919834E+01  8.012638333E+01  1.430511475E-06  0.00000E+00  9.000E+00
#rwgt            1           1   3.1265500067610356E-002          10       81153           0
</event>
<event>
      5   9999  3.19816E-02  1.55027E+02 -1.00000E+00  1.15829E-01
      21    -1     0     0   502   501  0.000000000E+00  0.000000000E+00  1.238487448E+03  1.238487448E+03  0.000000000E+00  0.00000E+00  9.000E+00
      21    -1     0     0   511   502  0.000000000E+00  0.000000000E+00 -1.633663619E+03  1.633663619E+03  0.000000000E+00  0.00000E+00  9.000E+00
      25     1     1     2     0     0  2.593214251E+02 -4.382450590E+02 -7.537541293E+02  9.181920391E+02  1.250000000E+02  0.00000E+00  9.000E+00
      25     1     1     2     0     0 -3.871826270E+02  5.259090223E+02  1.051397536E+03  1.244006618E+03  1.250000000E+02  0.00000E+00  9.000E+00
      21     1     1     2   511   501  1.278612019E+02 -8.766396330E+01 -6.928195773E+02  7.099524098E+02  7.629394531E-06  0.00000E+00  9.000E+00
#rwgt            1           1   2.9935267105813429E-002          10       81209           0
</event>
<event>
      5   9999  3.19816E-02  2.56650E+01 -1.00000E+00  1.57902E-01
      21    -1     0     0   512   501  0.000000000E+00  0.000000000E+00  1.402581099E+02  1.402581099E+02  0.000000000E+00  0.00000E+00  9.000E+00
      21    -1     0     0   501   502  0.000000000E+00  0.000000000E+00 -5.121200028E+02  5.121200028E+02  0.000000000E+00  0.00000E+00  9.000E+00
      25     1     1     2     0     0  4.790932950E+01 -1.549560749E+02 -1.199451050E+01  2.051232734E+02  1.250000000E+02  0.00000E+00  9.000E+00
      25     1     1     2     0     0 -2.278996971E+01  1.496918455E+02 -3.706283817E+02  4.194251169E+02  1.250000000E+02  0.00000E+00  9.000E+00
      21     1     1     2   512   502 -2.511935978E+01  5.264229402E+00  1.076099936E+01  2.782972250E+01  2.064765462E-07  0.00000E+00  9.000E+00
#rwgt            1           1   2.7146297665685937E-002          10       81323           0
</event>
<event>
      5   9999  3.19816E-02  7.67729E+01 -1.00000E+00  1.29221E-01
       1    -1     0     0   502     0  0.000000000E+00  0.000000000E+00  5.250939611E+02  5.250939611E+02  0.000000000E+00  0.00000E+00  9.000E+00
      21    -1     0     0   501   502  0.000000000E+00  0.000000000E+00 -4.757437776E+02  4.757437776E+02  0.000000000E+00  0.00000E+00  9.000E+00
      25     1     1     2     0     0 -1.123893169E+02 -9.514254874E+01 -1.676258853E+02  2.557477284E+02  1.250000000E+02  0.00000E+00  9.000E+00
      25     1     1     2     0     0  8.012735436E+01  2.547728898E+01 -2.390980355E+02  2.825992848E+02  1.250000000E+02  0.00000E+00  9.000E+00
       1     1     1     2   501     0  3.226196255E+01  6.966525976E+01  4.560741043E+02  4.624907256E+02  7.629394531E-06  0.00000E+00  9.000E+00
#rwgt            1           1   2.4627646212074108E-002          10       81459           0
</event>
<event>
      5   9999  3.19816E-02  1.67648E+01 -1.00000E+00  1.72950E-01
      21    -1     0     0   511   501  0.000000000E+00  0.000000000E+00  7.265496915E+02  7.265496915E+02  0.000000000E+00  0.00000E+00  9.000E+00
      21    -1     0     0   501   502  0.000000000E+00  0.000000000E+00 -6.521898730E+02  6.521898730E+02  0.000000000E+00  0.00000E+00  9.000E+00
      25     1     1     2     0     0  4.226761783E+02  3.584135247E+02 -2.295714762E+02  6.127344197E+02  1.250000000E+02  0.00000E+00  9.000E+00
      25     1     1     2     0     0 -4.093918155E+02 -3.481868059E+02  9.924547034E+01  5.606339035E+02  1.250000000E+02  0.00000E+00  9.000E+00
      21     1     1     2   511   502 -1.328436277E+01 -1.022671881E+01  2.046858243E+02  2.053712413E+02  2.697398305E-06  0.00000E+00  9.000E+00
#rwgt            1           1   2.8356727676967529E-002          10       81544           0
</event>
<event>
      5   9999  3.19816E-02  6.52189E+01 -1.00000E+00  1.32796E-01
       3    -1     0     0   502     0  0.000000000E+00  0.000000000E+00  1.147570698E+02  1.147570698E+02  0.000000000E+00  0.00000E+00  9.000E+00
      21    -1     0     0   501   502  0.000000000E+00  0.000000000E+00 -5.191303664E+02  5.191303664E+02  0.000000000E+00  0.00000E+00  9.000E+00
      25     1     1     2     0     0 -5.043488575E+01 -3.556947231E+01  1.701965902E+01  1.404404993E+02  1.250000000E+02  0.00000E+00  9.000E+00
      25     1     1     2     0     0 -2.929501095E+00 -1.923809657E+00 -4.081769636E+02  4.269024673E+02  1.250000000E+02  0.00000E+00  9.000E+00
       3     1     1     2   501     0  5.336438685E+01  3.749328197E+01 -1.321599206E+01  6.654446951E+01  5.840038640E-07  0.00000E+00  9.000E+00
#rwgt            1           1   2.5127264906296035E-002          10       81880           0
</event>
<event>
      5   9999  3.19816E-02  9.82568E+01 -1.00000E+00  1.24172E-01
      21    -1     0     0   511   501  0.000000000E+00  0.000000000E+00  6.068910981E+02  6.068910981E+02  0.000000000E+00  0.00000E+00  9.000E+00
      21    -1     0     0   501   502  0.000000000E+00  0.000000000E+00 -2.339218051E+02  2.339218051E+02  0.000000000E+00  0.00000E+00  9.000E+00
      25     1     1     2     0     0  2.465113145E+02 -1.557029190E+02  2.821771420E+02  4.245705673E+02  1.250000000E+02  0.00000E+00  9.000E+00
      25     1     1     2     0     0 -1.482549513E+02  1.553982303E+02 -4.099221381E+01  2.518600845E+02  1.250000000E+02  0.00000E+00  9.000E+00
      21     1     1     2   511   502 -9.825636319E+01  3.046886669E-01  1.317843648E+02  1.643822513E+02  1.907348633E-06  0.00000E+00  9.000E+00
#rwgt            1           1   2.9263302022481927E-002          10       81931           0
</event>
<event>
      5   9999  3.19816E-02  3.77709E+02 -1.00000E+00  1.02440E-01
      21    -1     0     0   502   512  0.000000000E+00  0.000000000E+00  5.581826947E+02  5.581826947E+02  0.000000000E+00  0.00000E+00  9.000E+00
      21    -1     0     0   501   502  0.000000000E+00  0.000000000E+00 -1.333134748E+03  1.333134748E+03  0.000000000E+00  0.00000E+00  9.000E+00
      25     1     1     2     0     0  5.497030877E+02 -2.886577091E+02 -5.590530439E+02  8.447852174E+02  1.250000000E+02  0.00000E+00  9.000E+00
      25     1     1     2     0     0 -1.851741705E+02  3.875636732E+02 -4.230874935E+02  6.157297308E+02  1.250000000E+02  0.00000E+00  9.000E+00
      21     1     1     2   501   512 -3.645289172E+02 -9.890596415E+01  2.071884842E+02  4.308024945E+02  5.394796609E-06  0.00000E+00  9.000E+00
#rwgt            1           1   2.4999781070031590E-002          10       82062           0
</event>
<event>
      5   9999  3.19816E-02  2.42405E+01 -1.00000E+00  1.59761E-01
      21    -1     0     0   502   501  0.000000000E+00  0.000000000E+00  5.395986310E+01  5.395986310E+01  0.000000000E+00  0.00000E+00  9.000E+00
      21    -1     0     0   501   511  0.000000000E+00  0.000000000E+00 -1.034725724E+03  1.034725724E+03  0.000000000E+00  0.00000E+00  9.000E+00
      25     1     1     2     0     0  1.072583705E+02  9.855436411E+01 -7.196500144E+02  7.448076691E+02  1.250000000E+02  0.00000E+00  9.000E+00
      25     1     1     2     0     0 -9.561666197E+01 -7.729238579E+01 -1.518280480E+02  2.319340749E+02  1.250000000E+02  0.00000E+00  9.000E+00
      21     1     1     2   502   511 -1.164170857E+01 -2.126197832E+01 -1.092877981E+02  1.119438427E+02  0.000000000E+00  0.00000E+00  9.000E+00
#rwgt            1           1   3.1187139426091488E-002          10       82158           0
</event>
<event>
      5   9999  3.19816E-02  5.33534E+01 -1.00000E+00  1.37486E-01
      21    -1     0     0   502   501  0.000000000E+00  0.000000000E+00  2.581090144E+02  2.581090144E+02  0.000000000E+00  0.00000E+00  9.000E+00
      21    -1     0     0   512   502  0.000000000E+00  0.000000000E+00 -3.470413581E+02  3.470413581E+02  0.000000000E+00  0.00000E+00  9.000E+00
      25     1     1     2     0     0 -1.198779486E+01  1.912912858E+02  4.169197786E+01  2.325925284E+02  1.250000000E+02  0.00000E+00  9.000E+00
      25     1     1     2     0     0  5.293973221E+01 -1.570929614E+02  2.398634369E+01  2.090003791E+02  1.250000000E+02  0.00000E+00  9.000E+00
      21     1     1     2   512   501 -4.095193735E+01 -3.419832433E+01 -1.546106652E+02  1.635574650E+02  0.000000000E+00  0.00000E+00  9.000E+00
#rwgt            1           1   2.4957927879500144E-002          10       82276           0
</event>
<event>
      5   9999  3.19816E-02  1.04573E+02 -1.00000E+00  1.22961E-01
      21    -1     0     0   511   501  0.000000000E+00  0.000000000E+00  4.364329297E+02  4.364329297E+02  0.000000000E+00  0.00000E+00  9.000E+00
      21    -1     0     0   501   502  0.000000000E+00  0.000000000E+00 -2.719052352E+02  2.719052352E+02  0.000000000E+00  0.00000E+00  9.000E+00
      25     1     1     2     0     0  5.334674122E+01 -1.734444071E+02 -1.105275181E+02  2.465160632E+02  1.250000000E+02  0.00000E+00  9.000E+00
      25     1     1     2     0     0  3.626881456E+01  2.273379713E+02  2.274460369E+02  3.469217200E+02  1.250000000E+02  0.00000E+00  9.000E+00
      21     1     1     2   511   502 -8.961555578E+01 -5.389356421E+01  4.760917579E+01  1.149003817E+02  6.743495762E-07  0.00000E+00  9.000E+00
#rwgt            1           1   2.5786483548194569E-002          10       82376           0
</event>
<event>
      5   9999  3.19816E-02  3.28403E+01 -1.00000E+00  1.50360E-01
      21    -1     0     0   502   501  0.000000000E+00  0.000000000E+00  9.575225490E+01  9.575225490E+01  0.000000000E+00  0.00000E+00  9.000E+00
       1    -1     0     0   501     0  0.000000000E+00  0.000000000E+00 -2.239263035E+03  2.239263035E+03  0.000000000E+00  0.00000E+00  9.000E+00
      25     1     1     2     0     0 -2.005881109E+02  1.590614083E+02 -2.653293800E+02  3.893081064E+02  1.250000000E+02  0.00000E+00  9.000E+00
      25     1     1     2     0     0  2.048390099E+02 -1.916254463E+02 -6.693869308E+02  7.364666963E+02  1.250000000E+02  0.00000E+00  9.000E+00
       1     1     1     2   502     0 -4.250898955E+00  3.256403804E+01 -1.208794470E+03  1.209240487E+03  1.525878906E-05  0.00000E+00  9.000E+00
#rwgt            1           1   2.4672972088687014E-002          10       82456           0
</event>
<event>
      5   9999  3.19816E-02  4.69194E+01 -1.00000E+00  1.40670E-01
      21    -1     0     0   502   511  0.000000000E+00  0.000000000E+00  1.152776644E+03  1.152776644E+03  0.000000000E+00  0.00000E+00  9.000E+00
      21    -1     0     0   501   502  0.000000000E+00  0.000000000E+00 -5.940548779E+02  5.940548779E+02  0.000000000E+00  0.00000E+00  9.000E+00
      25     1     1     2     0     0 -1.686219844E+02 -6.817877897E+02 -4.008454106E+01  7.144926411E+02  1.250000000E+02  0.00000E+00  9.000E+00
      25     1     1     2     0     0  1.243873083E+02  6.974313135E+02  3.899389707E+02  8.182664850E+02  1.250000000E+02  0.00000E+00  9.000E+00
      21     1     1     2   501   511  4.423467603E+01 -1.564352381E+01  2.088673360E+02  2.140723953E+02  0.000000000E+00  0.00000E+00  9.000E+00
#rwgt            1           1   2.5109248644155428E-002          10       82557           0
</event>
<event>
      5   9999  3.19816E-02  1.05421E+02 -1.00000E+00  1.22805E-01
      21    -1     0     0   502   501  0.000000000E+00  0.000000000E+00  4.798574578E+02  4.798574578E+02  0.000000000E+00  0.00000E+00  9.000E+00
      21    -1     0     0   512   502  0.000000000E+00  0.000000000E+00 -1.326693573E+03  1.326693573E+03  0.000000000E+00  0.00000E+00  9.000E+00
      25     1     1     2     0     0 -4.072678618E+02  3.398321839E+01 -9.076584634E+02  1.003240179E+03  1.250000000E+02  0.00000E+00  9.000E+00
      25     1     1     2     0     0  3.018982890E+02 -3.727994111E+01  3.591071406E+02  4.869448730E+02  1.250000000E+02  0.00000E+00  9.000E+00
      21     1     1     2   512   501  1.053695728E+02  3.296722722E+00 -2.982847923E+02  3.163659788E+02  3.814697266E-06  0.00000E+00  9.000E+00
#rwgt            2          11   3.4818906770212174E-003          10       82862           0
</event>
<event>
      5   9999  3.19816E-02  9.56355E+01 -1.00000E+00  1.24706E-01
      21    -1     0     0   502   501  0.000000000E+00  0.000000000E+00  4.591778434E+02  4.591778434E+02  0.000000000E+00  0.00000E+00  9.000E+00
       2    -1     0     0   501     0  0.000000000E+00  0.000000000E+00 -2.387822576E+03  2.387822576E+03  0.000000000E+00  0.00000E+00  9.000E+00
      25     1     1     2     0     0 -1.137979424E+02  5.440493342E+02  4.986182251E+01  5.718835993E+02  1.250000000E+02  0.00000E+00  9.000E+00
      25     1     1     2     0     0  1.691818538E+02 -4.660828266E+02 -2.979137860E+02  5.918051409E+02  1.250000000E+02  0.00000E+00  9.000E+00
       2     1     1     2   502     0 -5.538391142E+01 -7.796650765E+01 -1.680592769E+03  1.683311679E+03  0.000000000E+00  0.00000E+00  9.000E+00
#rwgt            1           1   2.2959196659950974E-002          10       82882           0
</event>
<event>
      5   9999  3.19816E-02  5.09575E+01 -1.00000E+00  1.38607E-01
      21    -1     0     0   502   501  0.000000000E+00  0.000000000E+00  2.307687754E+02  2.307687754E+02  0.000000000E+00  0.00000E+00  9.000E+00
      21    -1     0     0   501   511  0.000000000E+00  0.000000000E+00 -1.010100015E+03  1.010100015E+03  0.000000000E+00  0.00000E+00  9.000E+00
      25     1     1     2     0     0 -2.174179012E+02 -2.721460622E+02 -5.382783060E+02  6.532247375E+02  1.250000000E+02  0.00000E+00  9.000E+00
      25     1     1     2     0     0  2.347066388E+02  2.242110691E+02 -6.778648535E+00  3.478918796E+02  1.250000000E+02  0.00000E+00  9.000E+00
      21     1     1     2   502   511 -1.728873768E+01  4.793499313E+01 -2.342742853E+02  2.397521737E+02  2.697398305E-06  0.00000E+00  9.000E+00
#rwgt            1           1   2.8884019613666830E-002          10       82944           0
</event>
<event>
      5   9999  3.19816E-02  7.79597E+01 -1.00000E+00  1.28895E-01
      21    -1     0     0   502   501  0.000000000E+00  0.000000000E+00  5.841786109E+02  5.841786109E+02  0.000000000E+00  0.00000E+00  9.000E+00
      21    -1     0     0   512   502  0.000000000E+00  0.000000000E+00 -1.628914177E+02  1.628914177E+02  0.000000000E+00  0.00000E+00  9.000E+00
      25     1     1     2     0     0  2.563282581E+02  5.382147360E+00  2.360428761E+02  3.702355774E+02  1.250000000E+02  0.00000E+00  9.000E+00
      25     1     1     2     0     0 -2.009191764E+02  4.945892461E+01  1.744859696E+02  2.981359661E+02  1.250000000E+02  0.00000E+00  9.000E+00
      21     1     1     2   512   501 -5.540908174E+01 -5.484107197E+01  1.075834745E+01  7.869848509E+01  3.769728732E-07  0.00000E+00  9.000E+00
#rwgt            1           1   2.9196641274012870E-002          10       83030           0
</event>
<event>
      5   9999  3.19816E-02  3.30234E+01 -1.00000E+00  1.50199E-01
      21    -1     0     0   502   511  0.000000000E+00  0.000000000E+00  3.589411308E+02  3.589411308E+02  0.000000000E+00  0.00000E+00  9.000E+00
      21    -1     0     0   501   502  0.000000000E+00  0.000000000E+00 -4.510163289E+02  4.510163289E+02  0.000000000E+00  0.00000E+00  9.000E+00
      25     1     1     2     0     0 -1.438973293E+02  2.445279518E+02 -3.016791678E+02  4.325918178E+02  1.250000000E+02  0.00000E+00  9.000E+00
      25     1     1     2     0     0  1.275030231E+02 -2.158614409E+02  1.797536054E+02  3.328506289E+02  1.250000000E+02  0.00000E+00  9.000E+00
      21     1     1     2   501   511  1.639430628E+01 -2.866651092E+01  2.985036424E+01  4.451501288E+01  4.768371582E-07  0.00000E+00  9.000E+00
#rwgt            1           1   2.8098839075428726E-002          10       83113           0
</event>
<event>
      5   9999  3.19816E-02  3.56288E+01 -1.00000E+00  1.48028E-01
      21    -1     0     0   502   501  0.000000000E+00  0.000000000E+00  1.579693546E+03  1.579693546E+03  0.000000000E+00  0.00000E+00  9.000E+00
      21    -1     0     0   501   512  0.000000000E+00  0.000000000E+00 -4.264756206E+01  4.264756206E+01  0.000000000E+00  0.00000E+00  9.000E+00
      25     1     1     2     0     0  1.714814444E+01  2.758410869E+01  1.037991172E+02  1.656930857E+02  1.250000000E+02  0.00000E+00  9.000E+00
      25     1     1     2     0     0 -3.605506991E+01 -5.778244351E+01  1.402149139E+03  1.409356586E+03  1.250000000E+02  0.00000E+00  9.000E+00
      21     1     1     2   502   512  1.890692547E+01  3.019833481E+01  3.109772725E+01  4.729143576E+01  8.920806376E-07  0.00000E+00  9.000E+00
#rwgt            1           1   3.4671958736917891E-002          10       83225           0
</event>
<event>
      5   9999  3.19816E-02  3.34149E+01 -1.00000E+00  1.49858E-01
      21    -1     0     0   502   501  0.000000000E+00  0.000000000E+00  5.452566808E+02  5.452566808E+02  0.000000000E+00  0.00000E+00  9.000E+00
      21    -1     0     0   501   511  0.000000000E+00  0.000000000E+00 -2.457850040E+02  2.457850040E+02  0.000000000E+00  0.00000E+00  9.000E+00
      25     1     1     2     0     0  2.663961994E+02  1.393279546E+02  6.912940241E+01  3.328409354E+02  1.250000000E+02  0.00000E+00  9.000E+00
      25     1     1     2     0     0 -2.680833515E+02 -1.059557161E+02  2.642859861E+02  4.105695794E+02  1.250000000E+02  0.00000E+00  9.000E+00
      21     1     1     2   502   511  1.687152057E+00 -3.337223853E+01 -3.394371177E+01  4.763117000E+01  6.743495762E-07  0.00000E+00  9.000E+00
#rwgt            1           1   2.5578448511352967E-002          10       83348           0
</event>
<event>
      5   9999  3.19816E-02  6.71498E+01 -1.00000E+00  1.32142E-01
      21    -1     0     0   512   501  0.000000000E+00  0.000000000E+00  2.471616772E+03  2.471616772E+03  0.000000000E+00  0.00000E+00  9.000E+00
      21    -1     0     0   501   502  0.000000000E+00  0.000000000E+00 -2.150511912E+02  2.150511912E+02  0.000000000E+00  0.00000E+00  9.000E+00
      25     1     1     2     0     0 -3.865039861E+02  4.107309721E+02  4.396115464E+02  7.259260117E+02  1.250000000E+02  0.00000E+00  9.000E+00
      25     1     1     2     0     0  4.460197141E+02 -3.796346829E+02  1.210198757E+03  1.350282233E+03  1.250000000E+02  0.00000E+00  9.000E+00
      21     1     1     2   512   502 -5.951572798E+01 -3.109628914E+01  6.067552771E+02  6.104597181E+02  7.629394531E-06  0.00000E+00  9.000E+00
#rwgt            1           1   2.6942242232126355E-002          10       83505           0
</event>
<event>
      5   9999  3.19816E-02  7.45085E+01 -1.00000E+00  1.29862E-01
       2    -1     0     0   502     0  0.000000000E+00  0.000000000E+00  1.374397461E+03  1.374397461E+03  0.000000000E+00  0.00000E+00  9.000E+00
      21    -1     0     0   501   502  0.000000000E+00  0.000000000E+00 -7.631394154E+02  7.631394154E+02  0.000000000E+00  0.00000E+00  9.000E+00
      25     1     1     2     0     0 -5.115180782E+02  2.993576595E+02  1.026231164E+03  1.191654796E+03  1.250000000E+02  0.00000E+00  9.000E+00
      25     1     1     2     0     0  5.402684430E+02 -3.680957776E+02 -5.002635820E+02  8.326302562E+02  1.250000000E+02  0.00000E+00  9.000E+00
       2     1     1     2   501     0 -2.875036478E+01  6.873811814E+01  8.529046386E+01  1.132518238E+02  1.348699152E-06  0.00000E+00  9.000E+00
#rwgt            1           1   2.3273787904513923E-002          10       83629           0
</event>
<event>
      5   9999  3.19816E-02  1.49603E+02 -1.00000E+00  1.16439E-01
      21    -1     0     0   502   501  0.000000000E+00  0.000000000E+00  4.641101269E+02  4.641101269E+02  0.000000000E+00  0.00000E+00  9.000E+00
       2    -1     0     0   501     0  0.000000000E+00  0.000000000E+00 -1.505675002E+03  1.505675002E+03  0.000000000E+00  0.00000E+00  9.000E+00
      25     1     1     2     0     0 -3.508357009E+02 -6.621030798E+02 -2.054812745E+02  7.869648858E+02  1.250000000E+02  0.00000E+00  9.000E+00
      25     1     1     2     0     0  3.770505296E+02  5.148150569E+02 -7.962067372E+02  1.027994072E+03  1.250000000E+02  0.00000E+00  9.000E+00
       2     1     1     2   502     0 -2.621482870E+01  1.472880229E+02 -3.987686356E+01  1.548261708E+02  1.846782373E-06  0.00000E+00  9.000E+00
#rwgt            1           1   3.2102009659309635E-002          10       83764           0
</event>
<event>
      5   9999  3.19816E-02  1.20898E+02 -1.00000E+00  1.20231E-01
      21    -1     0     0   502   501  0.000000000E+00  0.000000000E+00  1.319914707E+03  1.319914707E+03  0.000000000E+00  0.00000E+00  9.000E+00
      21    -1     0     0   511   502  0.000000000E+00  0.000000000E+00 -4.091831447E+01  4.091831447E+01  0.000000000E+00  0.00000E+00  9.000E+00
      25     1     1     2     0     0  2.120178482E+01 -1.522261945E+01  4.881848584E+02  5.046094528E+02  1.250000000E+02  0.00000E+00  9.000E+00
      25     1     1     2     0     0 -1.355082508E+02 -2.415138331E+01  6.176841530E+02  6.450616158E+02  1.250000000E+02  0.00000E+00  9.000E+00
      21     1     1     2   511   501  1.143064660E+02  3.937400276E+01  1.731273811E+02  2.111619529E+02  4.264961200E-06  0.00000E+00  9.000E+00
#rwgt            2          11   2.8916044594356509E-003          10       83916           0
</event>
<event>
      5   9999  3.19816E-02  3.33766E+01 -1.00000E+00  1.49891E-01
      21    -1     0     0   512   501  0.000000000E+00  0.000000000E+00  2.674096071E+02  2.674096071E+02  0.000000000E+00  0.00000E+00  9.000E+00
      21    -1     0     0   501   502  0.000000000E+00  0.000000000E+00 -4.244001742E+02  4.244001742E+02  0.000000000E+00  0.00000E+00  9.000E+00
      25     1     1     2     0     0 -2.867879614E+01 -1.102086257E+02 -1.990729744E+02  2.611962167E+02  1.250000000E+02  0.00000E+00  9.000E+00
      25     1     1     2     0     0  5.432044684E+01  1.315746366E+02 -1.462631973E+02  2.393334887E+02  1.250000000E+02  0.00000E+00  9.000E+00
      21     1     1     2   512   502 -2.564165070E+01 -2.136601089E+01  1.883456045E+02  1.912800758E+02  2.697398305E-06  0.00000E+00  9.000E+00
#rwgt            1           1   2.4288050429219197E-002          10       83936           0
</event>
<event>
      5   9999  3.19816E-02  8.49293E+01 -1.00000E+00  1.27105E-01
      21    -1     0     0   502   511  0.000000000E+00  0.000000000E+00  6.172383596E+02  6.172383596E+02  0.000000000E+00  0.00000E+00  9.000E+00
      21    -1     0     0   501   502  0.000000000E+00  0.000000000E+00 -3.107053338E+02  3.107053338E+02  0.000000000E+00  0.00000E+00  9.000E+00
      25     1     1     2     0     0 -2.445958480E+02 -2.171395017E+02  2.450207609E+00  3.501538170E+02  1.250000000E+02  0.00000E+00  9.000E+00
      25     1     1     2     0     0  2.404590362E+02  3.019679692E+02  2.401801505E+02  4.715047266E+02  1.250000000E+02  0.00000E+00  9.000E+00
      21     1     1     2   501   511  4.136811821E+00 -8.482846755E+01  6.390266770E+01  1.062851498E+02  9.536743164E-07  0.00000E+00  9.000E+00
#rwgt            2          11   4.2506418831711971E-003          10       84083           0
</event>
<event>
      5   9999  3.19816E-02  3.06126E+02 -1.00000E+00  1.05308E-01
       5    -1     0     0   502     0  0.000000000E+00  0.000000000E+00  5.711438383E+02  5.711438383E+02  0.000000000E+00  0.00000E+00  9.000E+00
      21    -1     0     0   501   502  0.000000000E+00  0.000000000E+00 -3.242893667E+02  3.242893667E+02  0.000000000E+00  0.00000E+00  9.000E+00
      25     1     1     2     0     0  1.483820715E+02  3.769938448E+01  1.316441245E+02  2.374734896E+02  1.250000000E+02  0.00000E+00  9.000E+00
      25     1     1     2     0     0 -2.203554091E+01  2.411371200E+02  2.026449874E+02  3.395919119E+02  1.250000000E+02  0.00000E+00  9.000E+00
       5     1     1     2   501     0 -1.263465306E+02 -2.788365045E+02 -8.743464034E+01  3.183678036E+02  6.031565972E-06  0.00000E+00  9.000E+00
#rwgt            1           1   3.6766895249619340E-002          10       84103           0
</event>
<event>
      5   9999  3.19816E-02  2.72602E+01 -1.00000E+00  1.55986E-01
      21    -1     0     0   511   501  0.000000000E+00  0.000000000E+00  3.716314313E+01  3.716314313E+01  0.000000000E+00  0.00000E+00  9.000E+00
      21    -1     0     0   501   502  0.000000000E+00  0.000000000E+00 -1.095869099E+03  1.095869099E+03  0.000000000E+00  0.00000E+00  9.000E+00
      25     1     1     2     0     0  3.140846846E+01  1.161675774E+02 -3.607292739E+02  4.002899037E+02  1.250000000E+02  0.00000E+00  9.000E+00
      25     1     1     2     0     0 -5.700917662E+01 -1.255336762E+02 -6.616543888E+02  6.873283643E+02  1.250000000E+02  0.00000E+00  9.000E+00
      21     1     1     2   511   502  2.560070816E+01  9.366098818E+00 -3.632229272E+01  4.541397377E+01  4.768371582E-07  0.00000E+00  9.000E+00
#rwgt            1           1   3.2603178147534509E-002          10       84157           0
</event>
<event>
      5   9999  3.19816E-02  1.00579E+02 -1.00000E+00  1.23715E-01
      21    -1     0     0   502   501  0.000000000E+00  0.000000000E+00  5.097784976E+01  5.097784976E+01  0.000000000E+00  0.00000E+00  9.000E+00
       1    -1     0     0   501     0  0.000000000E+00  0.000000000E+00 -1.845969383E+03  1.845969383E+03  0.000000000E+00  0.00000E+00  9.000E+00
      25     1     1     2     0     0 -1.501065375E+01  1.519451624E+02 -5.317825633E+02  5.672127879E+02  1.250000000E+02  0.00000E+00  9.000E+00
      25     1     1     2     0     0 -8.256494247E+01 -1.275516777E+02 -2.847090806E+02  3.460789805E+02  1.250000000E+02  0.00000E+00  9.000E+00
       1     1     1     2   502     0  9.757559622E+01 -2.439348471E+01 -9.784998890E+02  9.836554640E+02  1.525878906E-05  0.00000E+00  9.000E+00
#rwgt            1           1   2.6968066876680786E-002          10       84264           0
</event>
<event>
      5   9999  3.19816E-02  1.50190E+02 -1.00000E+00  1.16372E-01
      21    -1     0     0   511   501  0.000000000E+00  0.000000000E+00  6.302273181E+02  6.302273181E+02  0.000000000E+00  0.00000E+00  9.000E+00
      21    -1     0     0   501   502  0.000000000E+00  0.000000000E+00 -3.742883138E+02  3.742883138E+02  0.000000000E+00  0.00000E+00  9.000E+00
      25     1     1     2     0     0 -2.093988153E+02 -2.135905562E+02  2.372153841E+02  4.017025367E+02  1.250000000E+02  0.00000E+00  9.000E+00
      25     1     1     2     0     0  3.420446378E+02  1.431485939E+02 -1.084155287E+02  4.060356893E+02  1.250000000E+02  0.00000E+00  9.000E+00
      21     1     1     2   511   502 -1.326458225E+02  7.044196238E+01  1.271391489E+02  1.967774059E+02  3.015782986E-06  0.00000E+00  9.000E+00
#rwgt            1           1   2.4178883578643555E-002          10       84309           0
</event>
<event>
      5   9999  3.19816E-02  6.94885E+01 -1.00000E+00  1.31382E-01
       2    -1     0     0   502     0  0.000000000E+00  0.000000000E+00  1.435731239E+02  1.435731239E+02  0.000000000E+00  0.00000E+00  9.000E+00
      21    -1     0     0   501   502  0.000000000E+00  0.000000000E+00 -3.456133411E+02  3.456133411E+02  0.000000000E+00  0.00000E+00  9.000E+00
      25     1     1     2     0     0 -8.505798539E+01  1.036238403E+02 -1.841574265E+02  2.598301732E+02  1.250000000E+02  0.00000E+00  9.000E+00
      25     1     1     2     0     0  8.961937187E+01 -3.428521435E+01 -2.481074385E+01  1.595232922E+02  1.250000000E+02  0.00000E+00  9.000E+00
       2     1     1     2   501     0 -4.561386481E+00 -6.933862597E+01  6.927953088E+00  6.983299959E+01  1.335463315E-06  0.00000E+00  9.000E+00
#rwgt            1           1   2.6841869331193053E-002          10       84372           0
</event>
<event>
      5   9999  3.19816E-02  9.31472E+01 -1.00000E+00  1.25231E-01
      21    -1     0     0   502   511  0.000000000E+00  0.000000000E+00  6.208574170E+02  6.208574170E+02  0.000000000E+00  0.00000E+00  9.000E+00
      21    -1     0     0   501   502  0.000000000E+00  0.000000000E+00 -4.022162404E+02  4.022162404E+02  0.000000000E+00  0.00000E+00  9.000E+00
      25     1     1     2     0     0 -1.795240930E+02 -2.797686296E+02 -2.223463952E+02  4.190015579E+02  1.250000000E+02  0.00000E+00  9.000E+00
      25     1     1     2     0     0  2.186633936E+02  1.952433962E+02  3.230122946E+02  4.537572103E+02  1.250000000E+02  0.00000E+00  9.000E+00
      21     1     1     2   501   511 -3.913930057E+01  8.452523335E+01  1.179752772E+02  1.503148893E+02  1.907348633E-06  0.00000E+00  9.000E+00
#rwgt            1           1   2.3814733844843106E-002          10       84463           0
</event>
<event>
      5   9999  3.19816E-02  1.35912E+02 -1.00000E+00  1.18117E-01
      21    -1     0     0   502   501  0.000000000E+00  0.000000000E+00  6.766731919E+01  6.766731919E+01  0.000000000E+00  0.00000E+00  9.000E+00
       1    -1     0     0   501     0  0.000000000E+00  0.000000000E+00 -1.393694809E+03  1.393694809E+03  0.000000000E+00  0.00000E+00  9.000E+00
      25     1     1     2     0     0 -6.054338807E+01  2.157199806E+02 -4.395232042E+02  5.089265751E+02  1.250000000E+02  0.00000E+00  9.000E+00
      25     1     1     2     0     0  1.323551514E+02 -1.003288839E+02 -4.596697382E+02  5.044849248E+02  1.250000000E+02  0.00000E+00  9.000E+00
       1     1     1     2   502     0 -7.181176336E+01 -1.153910967E+02 -4.268345478E+02  4.479506287E+02  5.394796609E-06  0.00000E+00  9.000E+00
#rwgt            1           1   2.9809333996220579E-002          10       84520           0
</event>
<event>
      5   9999  3.19816E-02  8.59830E+01 -1.00000E+00  1.26852E-01
      21    -1     0     0   511   501  0.000000000E+00  0.000000000E+00  1.450702630E+03  1.450702630E+03  0.000000000E+00  0.00000E+00  9.000E+00
      21    -1     0     0   501   502  0.000000000E+00  0.000000000E+00 -7.419157163E+01  7.419157163E+01  0.000000000E+00  0.00000E+00  9.000E+00
      25     1     1     2     0     0  8.757032509E+00 -1.153856875E+02  1.136832907E+02  2.047911939E+02  1.250000000E+02  0.00000E+00  9.000E+00
      25     1     1     2     0     0 -8.888307439E+01  1.465768166E+02  3.980259517E+02  4.510372737E+02  1.250000000E+02  0.00000E+00  9.000E+00
      21     1     1     2   511   502  8.012604188E+01 -3.119112909E+01  8.648018155E+02  8.690657336E+02  1.078959322E-05  0.00000E+00  9.000E+00
#rwgt            1           1   2.5589755321247402E-002          10       84581           0
</event>
<event>
      5   9999  3.19816E-02  9.42762E+01 -1.00000E+00  1.24990E-01
      21    -1     0     0   512   501  0.000000000E+00  0.000000000E+00  8.433328958E+02  8.433328958E+02  0.000000000E+00  0.00000E+00  9.000E+00
      21    -1     0     0   501   502  0.000000000E+00  0.000000000E+00 -9.746030097E+01  9.746030097E+01  0.000000000E+00  0.00000E+00  9.000E+00
      25     1     1     2     0     0  7.287198460E+01 -1.236048139E+02  4.116467479E+02  4.535047091E+02  1.250000000E+02  0.00000E+00  9.000E+00
      25     1     1     2     0     0 -8.500826695E+01  3.011302658E+01  1.550278297E+01  1.549146091E+02  1.250000000E+02  0.00000E+00  9.000E+00
      21     1     1     2   512   502  1.213628235E+01  9.349178734E+01  3.187230639E+02  3.323738785E+02  3.814697266E-06  0.00000E+00  9.000E+00
#rwgt            1           1   2.5533160681145292E-002          10       84650           0
</event>
<event>
      5   9999  3.19816E-02  2.45870E+01 -1.00000E+00  1.59295E-01
      21    -1     0     0   502   501  0.000000000E+00  0.000000000E+00  1.108116034E+03  1.108116034E+03  0.000000000E+00  0.00000E+00  9.000E+00
      21    -1     0     0   511   502  0.000000000E+00  0.000000000E+00 -1.060882189E+03  1.060882189E+03  0.000000000E+00  0.00000E+00  9.000E+00
      25     1     1     2     0     0  1.832908312E+02 -9.343890532E+02  4.010669822E+02  1.040748844E+03  1.250000000E+02  0.00000E+00  9.000E+00
      25     1     1     2     0     0 -1.602055182E+02  9.259280305E+02 -1.953645116E+02  9.678847132E+02  1.250000000E+02  0.00000E+00  9.000E+00
      21     1     1     2   511   501 -2.308531302E+01  8.461022696E+00 -1.584686257E+02  1.603646654E+02  1.907348633E-06  0.00000E+00  9.000E+00
#rwgt            1           1   3.8352240223577097E-002          10       84728           0
</event>
<event>
      5   9999  3.19816E-02  1.62649E+02 -1.00000E+00  1.15017E-01
      21    -1     0     0   502   501  0.000000000E+00  0.000000000E+00  6.500804541E+02  6.500804541E+02  0.000000000E+00  0.00000E+00  9.000E+00
      21    -1     0     0   512   502  0.000000000E+00  0.000000000E+00 -3.115441288E+02  3.115441288E+02  0.000000000E+00  0.00000E+00  9.000E+00
      25     1     1     2     0     0  1.028304748E+02 -1.197261054E+02  2.688485977E+02  3.358764882E+02  1.250000000E+02  0.00000E+00  9.000E+00
      25     1     1     2     0     0 -6.532345305E+01 -3.853947651E+01  3.058464792E+02  3.389978077E+02  1.250000000E+02  0.00000E+00  9.000E+00
      21     1     1     2   512   501 -3.750702180E+01  1.582655819E+02 -2.361587517E+02  2.867502870E+02  2.697398305E-06  0.00000E+00  9.000E+00
#rwgt            1           1   6.4333573662426341E-002          10       84973           0
</event>
<event>
      5   9999  3.19816E-02  6.62016E+01 -1.00000E+00  1.32460E-01
      -2    -1     0     0     0   501  0.000000000E+00  0.000000000E+00  5.490830165E+02  5.490830165E+02  0.000000000E+00  0.00000E+00  9.000E+00
      21    -1     0     0   501   502  0.000000000E+00  0.000000000E+00 -1.344084382E+02  1.344084382E+02  0.000000000E+00  0.00000E+00  9.000E+00
      25     1     1     2     0     0 -3.437298745E+01 -6.839485681E+01 -5.462454205E+01  1.564231418E+02  1.250000000E+02  0.00000E+00  9.000E+00
      25     1     1     2     0     0  4.197177158E+01  2.630787775E+00  1.446899533E+02  1.957772542E+02  1.250000000E+02  0.00000E+00  9.000E+00
      -2     1     1     2     0   502 -7.598784124E+00  6.576406904E+01  3.246091670E+02  3.312910588E+02  3.814697266E-06  0.00000E+00  9.000E+00
#rwgt            1           1   3.3657438440238642E-002          10       85031           0
</event>
<event>
      5   9999  3.19816E-02  2.22245E+02 -1.00000E+00  1.10006E-01
      21    -1     0     0   502   511  0.000000000E+00  0.000000000E+00  1.738827306E+02  1.738827306E+02  0.000000000E+00  0.00000E+00  9.000E+00
      21    -1     0     0   501   502  0.000000000E+00  0.000000000E+00 -8.974816628E+02  8.974816628E+02  0.000000000E+00  0.00000E+00  9.000E+00
      25     1     1     2     0     0  2.565540756E+02 -1.220971697E+02 -6.014066213E+02  6.767884727E+02  1.250000000E+02  0.00000E+00  9.000E+00
      25     1     1     2     0     0 -7.695710593E+01 -8.813943071E+00 -8.312758357E+01  1.689238790E+02  1.250000000E+02  0.00000E+00  9.000E+00
      21     1     1     2   501   511 -1.795969697E+02  1.309111128E+02 -3.906472738E+01  2.256520417E+02  2.939421655E-06  0.00000E+00  9.000E+00
#rwgt            1           1   2.6976117354283607E-002          10       85081           0
</event>
<event>
      5   9999  3.19816E-02  1.76748E+01 -1.00000E+00  1.70923E-01
      21    -1     0     0   512   501  0.000000000E+00  0.000000000E+00  4.466985498E+02  4.466985498E+02  0.000000000E+00  0.00000E+00  9.000E+00
      21    -1     0     0   501   502  0.000000000E+00  0.000000000E+00 -2.864078049E+02  2.864078049E+02  0.000000000E+00  0.00000E+00  9.000E+00
      25     1     1     2     0     0 -1.493100767E+02 -2.168609144E+02 -2.308902174E+01  2.923700705E+02  1.250000000E+02  0.00000E+00  9.000E+00
      25     1     1     2     0     0  1.316354395E+02  2.169414348E+02  2.788804900E+01  2.842432380E+02  1.250000000E+02  0.00000E+00  9.000E+00
      21     1     1     2   512   502  1.767463712E+01 -8.052039431E-02  1.554917176E+02  1.564930462E+02  1.907348633E-06  0.00000E+00  9.000E+00
#rwgt            1           1   2.7862131955610454E-002          10       85151           0
</event>
<event>
      5   9999  3.19816E-02  5.43675E+01 -1.00000E+00  1.37032E-01
      21    -1     0     0   502   511  0.000000000E+00  0.000000000E+00  1.201411578E+02  1.201411578E+02  0.000000000E+00  0.00000E+00  9.000E+00
      21    -1     0     0   501   502  0.000000000E+00  0.000000000E+00 -2.331775467E+03  2.331775467E+03  0.000000000E+00  0.00000E+00  9.000E+00
      25     1     1     2     0     0  1.627558346E+02  2.950209943E+02 -1.895503606E+03  1.929270787E+03  1.250000000E+02  0.00000E+00  9.000E+00
      25     1     1     2     0     0 -2.086861252E+02 -2.659308616E+02 -2.592740535E+02  4.439787797E+02  1.250000000E+02  0.00000E+00  9.000E+00
      21     1     1     2   501   511  4.593029062E+01 -2.909013270E+01 -5.685664959E+01  7.866705803E+01  1.348699152E-06  0.00000E+00  9.000E+00
#rwgt            1           1   2.4822844977358444E-002          10       85344           0
</event>
<event>
      5   9999  3.19816E-02  5.93007E+01 -1.00000E+00  1.34976E-01
      21    -1     0     0   502   501  0.000000000E+00  0.000000000E+00  3.646700162E+02  3.646700162E+02  0.000000000E+00  0.00000E+00  9.000E+00
      21    -1     0     0   512   502  0.000000000E+00  0.000000000E+00 -4.209180442E+02  4.209180442E+02  0.000000000E+00  0.00000E+00  9.000E+00
      25     1     1     2     0     0 -2.648959718E+02  8.408372944E+01  1.957603884E+02  3.621975691E+02  1.250000000E+02  0.00000E+00  9.000E+00
      25     1     1     2     0     0  2.161968565E+02 -1.179211198E+02 -2.323608271E+02  3.609196936E+02  1.250000000E+02  0.00000E+00  9.000E+00
      21     1     1     2   512   501  4.869911524E+01  3.383739032E+01 -1.964758926E+01  6.247079775E+01  1.143415337E-06  0.00000E+00  9.000E+00
#rwgt            2          11   3.9810572829148891E-003          10       85666           0
</event>
<event>
      5   9999  3.19816E-02  3.45184E+01 -1.00000E+00  1.48925E-01
      21    -1     0     0   502   501  0.000000000E+00  0.000000000E+00  1.584786692E+02  1.584786692E+02  0.000000000E+00  0.00000E+00  9.000E+00
      21    -1     0     0   501   511  0.000000000E+00  0.000000000E+00 -7.329087216E+02  7.329087216E+02  0.000000000E+00  0.00000E+00  9.000E+00
      25     1     1     2     0     0 -1.068845709E+02 -1.539099527E+02 -1.026575977E+02  2.475402339E+02  1.250000000E+02  0.00000E+00  9.000E+00
      25     1     1     2     0     0  1.138622360E+02  1.877157747E+02 -1.019779423E+02  2.724450799E+02  1.250000000E+02  0.00000E+00  9.000E+00
      21     1     1     2   502   511 -6.977665065E+00 -3.380582201E+01 -3.697945125E+02  3.714020771E+02  5.394796609E-06  0.00000E+00  9.000E+00
#rwgt            1           1   2.7247202069932152E-002          10       85746           0
</event>
<event>
      5   9999  3.19816E-02  1.75181E+02 -1.00000E+00  1.13784E-01
       2    -1     0     0   502     0  0.000000000E+00  0.000000000E+00  1.975758335E+03  1.975758335E+03  0.000000000E+00  0.00000E+00  9.000E+00
      21    -1     0     0   501   502  0.000000000E+00  0.000000000E+00 -6.864863435E+02  6.864863435E+02  0.000000000E+00  0.00000E+00  9.000E+00
      25     1     1     2     0     0  2.350345755E+01  2.846037520E+02 -4.623863395E+02  5.576538668E+02  1.250000000E+02  0.00000E+00  9.000E+00
      25     1     1     2     0     0 -1.103939566E+02 -1.324908430E+02 -1.065407699E+02  2.381524402E+02  1.250000000E+02  0.00000E+00  9.000E+00
       2     1     1     2   501     0  8.689049906E+01 -1.521129090E+02  1.858199101E+03  1.866438371E+03  0.000000000E+00  0.00000E+00  9.000E+00
#rwgt            2          18   5.3124687550807861E-002          10       85898           0
</event>
<event>
      5   9999  3.19816E-02  3.95063E+01 -1.00000E+00  1.45175E-01
      21    -1     0     0   502   501  0.000000000E+00  0.000000000E+00  1.100679854E+02  1.100679854E+02  0.000000000E+00  0.00000E+00  9.000E+00
      21    -1     0     0   511   502  0.000000000E+00  0.000000000E+00 -1.080310945E+03  1.080310945E+03  0.000000000E+00  0.00000E+00  9.000E+00
      25     1     1     2     0     0 -1.741083159E+02  2.290732335E+02 -2.664268743E+02  4.115780987E+02  1.250000000E+02  0.00000E+00  9.000E+00
      25     1     1     2     0     0  1.828147849E+02 -1.905382449E+02 -6.432994165E+02  7.065304010E+02  1.250000000E+02  0.00000E+00  9.000E+00
      21     1     1     2   511   501 -8.706468982E+00 -3.853498861E+01 -6.051666854E+01  7.227043047E+01  0.000000000E+00  0.00000E+00  9.000E+00
#rwgt            1           1   2.8202689384989266E-002          10       85932           0
</event>
<event>
      5   9999  3.19816E-02  1.79110E+01 -1.00000E+00  1.70422E-01
      21    -1     0     0   502   501  0.000000000E+00  0.000000000E+00  7.279274984E+02  7.279274984E+02  0.000000000E+00  0.00000E+00  9.000E+00
      21    -1     0     0   501   512  0.000000000E+00  0.000000000E+00 -4.108046372E+02  4.108046372E+02  0.000000000E+00  0.00000E+00  9.000E+00
      25     1     1     2     0     0 -2.229061870E+02  4.315411876E+02  3.336765300E+02  6.023952120E+02  1.250000000E+02  0.00000E+00  9.000E+00
      25     1     1     2     0     0  2.261146869E+02 -4.491624872E+02 -1.615937583E+01  5.184215630E+02  1.250000000E+02  0.00000E+00  9.000E+00
      21     1     1     2   502   512 -3.208499926E+00  1.762129967E+01 -3.942930269E-01  1.791536047E+01  3.892170753E-07  0.00000E+00  9.000E+00
#rwgt            1           1   2.5893047749596446E-002          10       86042           0
</event>
<event>
      5   9999  3.19816E-02  2.10385E+02 -1.00000E+00  1.10854E-01
      21    -1     0     0   502   501  0.000000000E+00  0.000000000E+00  2.869477665E+02  2.869477665E+02  0.000000000E+00  0.00000E+00  9.000E+00
       2    -1     0     0   501     0  0.000000000E+00  0.000000000E+00 -2.581153596E+03  2.581153596E+03  0.000000000E+00  0.00000E+00  9.000E+00
      25     1     1     2     0     0  1.424662574E+02  5.565775373E+02 -1.477654540E+03  1.590334282E+03  1.250000000E+02  0.00000E+00  9.000E+00
      25     1     1     2     0     0 -4.050551065E+01 -7.406042429E+02 -7.363829541E+02  1.052625383E+03  1.250000000E+02  0.00000E+00  9.000E+00
       2     1     1     2   502     0 -1.019607468E+02  1.840267055E+02 -8.016833605E+01  2.251416983E+02  3.015782986E-06  0.00000E+00  9.000E+00
#rwgt            1           1   3.0449443001789415E-002          10       86274           0
</event>
<event>
      5   9999  3.19816E-02  4.35033E+01 -1.00000E+00  1.42615E-01
      21    -1     0     0   502   501  0.000000000E+00  0.000000000E+00  3.166295398E+02  3.166295398E+02  0.000000000E+00  0.00000E+00  9.000E+00
      21    -1     0     0   501   511  0.000000000E+00  0.000000000E+00 -4.914875426E+02  4.914875426E+02  0.000000000E+00  0.00000E+00  9.000E+00
      25     1     1     2     0     0  3.101794923E+02 -2.065665581E+01  9.319009327E+00  3.351863047E+02  1.250000000E+02  0.00000E+00  9.000E+00
      25     1     1     2     0     0 -2.840892639E+02 -1.415474098E+01 -2.931685950E+01  3.120761843E+02  1.250000000E+02  0.00000E+00  9.000E+00
      21     1     1     2   502   511 -2.609022846E+01  3.481139679E+01 -1.548601527E+02  1.608545935E+02  0.000000000E+00  0.00000E+00  9.000E+00
#rwgt            1           1   3.0798558407901553E-002          10       86387           0
</event>
<event>
      5   9999  3.19816E-02  4.85553E+01 -1.00000E+00  1.39806E-01
      21    -1     0     0   502   512  0.000000000E+00  0.000000000E+00  1.299103116E+02  1.299103116E+02  0.000000000E+00  0.00000E+00  9.000E+00
      21    -1     0     0   501   502  0.000000000E+00  0.000000000E+00 -8.726483076E+02  8.726483076E+02  0.000000000E+00  0.00000E+00  9.000E+00
      25     1     1     2     0     0  1.866530379E+02  8.667407887E+01 -6.488790448E+02  6.921132619E+02  1.250000000E+02  0.00000E+00  9.000E+00
      25     1     1     2     0     0 -1.392342872E+02 -7.622985307E+01 -1.381205681E+02  2.447436793E+02  1.250000000E+02  0.00000E+00  9.000E+00
      21     1     1     2   501   512 -4.741875066E+01 -1.044422580E+01  4.426161688E+01  6.570167803E+01  2.078484985E-06  0.00000E+00  9.000E+00
#rwgt            1           1   2.5314807683406066E-002          10       86486           0
</event>
<event>
      5   9999  3.19816E-02  1.36640E+02 -1.00000E+00  1.18022E-01
      21    -1     0     0   502   511  0.000000000E+00  0.000000000E+00  2.468515995E+03  2.468515995E+03  0.000000000E+00  0.00000E+00  9.000E+00
      21    -1     0     0   501   502  0.000000000E+00  0.000000000E+00 -1.361202112E+02  1.361202112E+02  0.000000000E+00  0.00000E+00  9.000E+00
      25     1     1     2     0     0 -2.642369429E+02 -1.333462528E+02  2.538228287E+02  4.094550202E+02  1.250000000E+02  0.00000E+00  9.000E+00
      25     1     1     2     0     0  3.003160093E+02  1.555137108E+00  4.212251678E+02  5.322102647E+02  1.250000000E+02  0.00000E+00  9.000E+00
      21     1     1     2   501   511 -3.607906633E+01  1.317911157E+02  1.657347787E+03  1.662970921E+03  2.157918644E-05  0.00000E+00  9.000E+00
#rwgt            1           1   2.7389764103058302E-002          10       86552           0
</event>
<event>
      5   9999  3.19816E-02  1.60584E+02 -1.00000E+00  1.15232E-01
       2    -1     0     0   502     0  0.000000000E+00  0.000000000E+00  2.436380788E+02  2.436380788E+02  0.000000000E+00  0.00000E+00  9.000E+00
      21    -1     0     0   501   502  0.000000000E+00  0.000000000E+00 -9.403791225E+02  9.403791225E+02  0.000000000E+00  0.00000E+00  9.000E+00
      25     1     1     2     0     0  1.363472500E+02 -7.261767695E+01 -5.197947158E+02  5.564849020E+02  1.250000000E+02  0.00000E+00  9.000E+00
      25     1     1     2     0     0 -1.680988922E+02  2.300316553E+02 -2.945928394E+02  4.284643988E+02  1.250000000E+02  0.00000E+00  9.000E+00
       2     1     1     2   501     0  3.175164225E+01 -1.574139784E+02  1.176465115E+02  1.990679006E+02  1.348699152E-06  0.00000E+00  9.000E+00
#rwgt            1           1   3.1780271822434050E-002          10       86617           0
</event>
<event>
      5   9999  3.19816E-02  6.92017E+01 -1.00000E+00  1.31473E-01
      21    -1     0     0   502   501  0.000000000E+00  0.000000000E+00  5.554551584E+02  5.554551584E+02  0.000000000E+00  0.00000E+00  9.000E+00
      21    -1     0     0   501   511  0.000000000E+00  0.000000000E+00 -1.470281659E+02  1.470281659E+02  0.000000000E+00  0.00000E+00  9.000E+00
      25     1     1     2     0     0  2.033978161E+02  3.589183850E+01  1.442893321E+02  2.812531013E+02  1.250000000E+02  0.00000E+00  9.000E+00
      25     1     1     2     0     0 -1.598936861E+02  1.792518148E+01  2.837318220E+02  3.493079584E+02  1.250000000E+02  0.00000E+00  9.000E+00
      21     1     1     2   502   511 -4.350412999E+01 -5.381701998E+01 -1.959416169E+01  7.192226455E+01  1.430511475E-06  0.00000E+00  9.000E+00
#rwgt            1           1   2.8188986878808300E-002          10       86669           0
</event>
<event>
      5   9999  3.19816E-02  3.87138E+02 -1.00000E+00  1.02114E-01
      21    -1     0     0   502   501  0.000000000E+00  0.000000000E+00  9.764998089E+02  9.764998089E+02  0.000000000E+00  0.00000E+00  9.000E+00
      21    -1     0     0   512   502  0.000000000E+00  0.000000000E+00 -8.224112776E+02  8.224112776E+02  0.000000000E+00  0.00000E+00  9.000E+00
      25     1     1     2     0     0  3.182733787E+01 -6.720189419E+01 -1.181763193E+02  1.874025519E+02  1.250000000E+02  0.00000E+00  9.000E+00
      25     1     1     2     0     0  2.859436412E+02  2.883296809E+02  8.300883656E+02  9.325070861E+02  1.250000000E+02  0.00000E+00  9.000E+00
      21     1     1     2   512   501 -3.177709791E+02 -2.211277867E+02 -5.578235151E+02  6.790014486E+02  0.000000000E+00  0.00000E+00  9.000E+00
#rwgt            1           1   2.5341521445454752E-002          10       86753           0
</event>
<event>
      5   9999  3.19816E-02  1.71164E+02 -1.00000E+00  1.14166E-01
      21    -1     0     0   502   501  0.000000000E+00  0.000000000E+00  2.820741565E+02  2.820741565E+02  0.000000000E+00  0.00000E+00  9.000E+00
      21    -1     0     0   511   502  0.000000000E+00  0.000000000E+00 -9.168440602E+02  9.168440602E+02  0.000000000E+00  0.00000E+00  9.000E+00
      25     1     1     2     0     0  2.046995462E+02 -4.548312765E+01 -2.764176457E+02  3.687849428E+02  1.250000000E+02  0.00000E+00  9.000E+00
      25     1     1     2     0     0 -3.372731816E+02  1.537480111E+02  4.326924426E+01  3.935592426E+02  1.250000000E+02  0.00000E+00  9.000E+00
      21     1     1     2   511   501  1.325736354E+02 -1.082648835E+02 -4.016215022E+02  4.365740314E+02  0.000000000E+00  0.00000E+00  9.000E+00
#rwgt            2          11   2.6474205185422969E-003          10       86844           0
</event>
<event>
      5   9999  3.19816E-02  3.86443E+01 -1.00000E+00  1.45775E-01
      21    -1     0     0   502   501  0.000000000E+00  0.000000000E+00  6.053658287E+01  6.053658287E+01  0.000000000E+00  0.00000E+00  9.000E+00
      21    -1     0     0   501   512  0.000000000E+00  0.000000000E+00 -1.394766220E+03  1.394766220E+03  0.000000000E+00  0.00000E+00  9.000E+00
      25     1     1     2     0     0 -1.076995088E+02 -2.036975939E+01 -1.001782289E+03  1.015483563E+03  1.250000000E+02  0.00000E+00  9.000E+00
      25     1     1     2     0     0  9.365112307E+01 -1.563055141E+01 -6.549875089E+01  1.700880165E+02  1.250000000E+02  0.00000E+00  9.000E+00
      21     1     1     2   502   512  1.404838575E+01  3.600031080E+01 -2.669485967E+02  2.697312232E+02  3.814697266E-06  0.00000E+00  9.000E+00
#rwgt            1           1   2.7609787210613846E-002          10       86894           0
</event>
<event>
      5   9999  3.19816E-02  5.40532E+01 -1.00000E+00  1.37171E-01
      21    -1     0     0   502   501  0.000000000E+00  0.000000000E+00  1.360919013E+02  1.360919013E+02  0.000000000E+00  0.00000E+00  9.000E+00
      21    -1     0     0   501   511  0.000000000E+00  0.000000000E+00 -1.350418446E+03  1.350418446E+03  0.000000000E+00  0.00000E+00  9.000E+00
      25     1     1     2     0     0 -2.502104202E+02  2.741462379E+02 -7.430709550E+02  8.399647959E+02  1.250000000E+02  0.00000E+00  9.000E+00
      25     1     1     2     0     0  1.989353339E+02 -2.912521870E+02 -3.440385816E+02  5.083214034E+02  1.250000000E+02  0.00000E+00  9.000E+00
      21     1     1     2   502   511  5.127508625E+01  1.710594901E+01 -1.272170076E+02  1.382241476E+02  2.336015456E-06  0.00000E+00  9.000E+00
#rwgt            1           1   3.2487355542602805E-002          10       87018           0
</event>
<event>
      5   9999  3.19816E-02  1.24963E+02 -1.00000E+00  1.19626E-01
      21    -1     0     0   512   501  0.000000000E+00  0.000000000E+00  5.336604322E+02  5.336604322E+02  0.000000000E+00  0.00000E+00  9.000E+00
      21    -1     0     0   501   502  0.000000000E+00  0.000000000E+00 -4.236223377E+02  4.236223377E+02  0.000000000E+00  0.00000E+00  9.000E+00
      25     1     1     2     0     0 -3.717845552E+01 -3.676617628E+02 -7.337942871E+01  3.969470367E+02  1.250000000E+02  0.00000E+00  9.000E+00
      25     1     1     2     0     0 -8.763649401E+01  3.737419389E+02  1.528861094E+02  4.316970633E+02  1.250000000E+02  0.00000E+00  9.000E+00
      21     1     1     2   512   502  1.248149495E+02 -6.080176112E+00  3.053141370E+01  1.286386699E+02  1.784161275E-06  0.00000E+00  9.000E+00
#rwgt            1           1   2.6472686393052020E-002          10       87113           0
</event>
<event>
      5   9999  3.19816E-02  1.28490E+02 -1.00000E+00  1.19122E-01
      21    -1     0     0   502   501  0.000000000E+00  0.000000000E+00  5.836649506E+02  5.836649506E+02  0.000000000E+00  0.00000E+00  9.000E+00
      21    -1     0     0   511   502  0.000000000E+00  0.000000000E+00 -2.292427636E+02  2.292427636E+02  0.000000000E+00  0.00000E+00  9.000E+00
      25     1     1     2     0     0  2.003025733E+02 -8.647802408E+01  3.794973756E+02  4.552393081E+02  1.250000000E+02  0.00000E+00  9.000E+00
      25     1     1     2     0     0 -1.709854606E+02 -3.862232808E+01  3.092337995E+01  2.175062468E+02  1.250000000E+02  0.00000E+00  9.000E+00
      21     1     1     2   511   501 -2.931711276E+01  1.251003522E+02 -5.599856867E+01  1.401621593E+02  1.907348633E-06  0.00000E+00  9.000E+00
#rwgt            1           1   3.0570602667187984E-002          10       87177           0
</event>
<event>
      5   9999  3.19816E-02  6.71438E+02 -1.00000E+00  9.53458E-02
      21    -1     0     0   502   512  0.000000000E+00  0.000000000E+00  7.776608832E+02  7.776608832E+02  0.000000000E+00  0.00000E+00  9.000E+00
      21    -1     0     0   501   502  0.000000000E+00  0.000000000E+00 -1.913928911E+03  1.913928911E+03  0.000000000E+00  0.00000E+00  9.000E+00
      25     1     1     2     0     0 -9.829882597E+01  1.570516168E+02 -2.717915031E+01  2.251478974E+02  1.250000000E+02  0.00000E+00  9.000E+00
      25     1     1     2     0     0  3.535324386E+01  5.114291399E+02 -1.567175604E+03  1.653624502E+03  1.250000000E+02  0.00000E+00  9.000E+00
      21     1     1     2   501   512  6.294558211E+01 -6.684807566E+02  4.580867271E+02  8.128173951E+02  1.206313194E-05  0.00000E+00  9.000E+00
#rwgt            2          11   3.5874739527978839E-003          10       87275           0
</event>
<event>
      5   9999  3.19816E-02  1.36636E+01 -1.00000E+00  1.81289E-01
      21    -1     0     0   502   501  0.000000000E+00  0.000000000E+00  1.260063749E+03  1.260063749E+03  0.000000000E+00  0.00000E+00  9.000E+00
      21    -1     0     0   511   502  0.000000000E+00  0.000000000E+00 -3.150378117E+01  3.150378117E+01  0.000000000E+00  0.00000E+00  9.000E+00
      25     1     1     2     0     0 -1.678977116E+01  3.509842419E+01  1.420557108E+02  1.931802805E+02  1.250000000E+02  0.00000E+00  9.000E+00
      25     1     1     2     0     0  2.832208878E+01 -2.777044553E+01  1.064060327E+03  1.072111337E+03  1.250000000E+02  0.00000E+00  9.000E+00
      21     1     1     2   511   501 -1.153231762E+01 -7.327978655E+00  2.244393026E+01  2.627591342E+01  4.768371582E-07  0.00000E+00  9.000E+00
#rwgt            1           1   2.6191154788593844E-002          10       87310           0
</event>
<event>
      5   9999  3.66978E-02  7.24302E+01 -1.00000E+00  1.30474E-01
      21    -1     0     0   502   512  0.000000000E+00  0.000000000E+00  3.964354718E+02  3.964354718E+02  0.000000000E+00  0.00000E+00  9.000E+00
      21    -1     0     0   501   502  0.000000000E+00  0.000000000E+00 -1.858062111E+03  1.858062111E+03  0.000000000E+00  0.00000E+00  9.000E+00
      25     1     1     2     0     0 -3.780668593E+02 -3.417776943E+02 -1.506177739E+03  1.594974270E+03  1.250000000E+02  0.00000E+00  9.000E+00
      25     1     1     2     0     0  4.489017990E+02  3.266600504E+02 -9.492652762E+00  5.691526369E+02  1.250000000E+02  0.00000E+00  9.000E+00
      21     1     1     2   501   512 -7.083493969E+01  1.511764393E+01  5.404375221E+01  9.037067551E+01  2.336015456E-06  0.00000E+00  9.000E+00
#rwgt            1           1   3.9465477600067377E-002          10       87427           0
</event>
<event>
      5   9999  3.19816E-02  1.53412E+01 -1.00000E+00  1.76468E-01
      21    -1     0     0   511   501  0.000000000E+00  0.000000000E+00  2.537546341E+02  2.537546341E+02  0.000000000E+00  0.00000E+00  9.000E+00
      21    -1     0     0   501   502  0.000000000E+00  0.000000000E+00 -5.551464077E+02  5.551464077E+02  0.000000000E+00  0.00000E+00  9.000E+00
      25     1     1     2     0     0  8.605932088E+01  2.108378894E+02 -3.986649508E+02  4.758335479E+02  1.250000000E+02  0.00000E+00  9.000E+00
      25     1     1     2     0     0 -7.133719568E+01 -2.151520526E+02  2.599159694E+01  2.601537321E+02  1.250000000E+02  0.00000E+00  9.000E+00
      21     1     1     2   511   502 -1.472212520E+01  4.314163141E+00  7.128158028E+01  7.291376181E+01  0.000000000E+00  0.00000E+00  9.000E+00
#rwgt            1           1   2.7302119699188328E-002          10       87545           0
</event>
<event>
      5   9999  3.19816E-02  1.00298E+01 -1.00000E+00  1.95608E-01
      21    -1     0     0   512   501  0.000000000E+00  0.000000000E+00  5.329270011E+02  5.329270011E+02  0.000000000E+00  0.00000E+00  9.000E+00
      21    -1     0     0   501   502  0.000000000E+00  0.000000000E+00 -6.952442925E+02  6.952442925E+02  0.000000000E+00  0.00000E+00  9.000E+00
      25     1     1     2     0     0  6.703383574E+01  3.030404375E+02  4.230291609E+02  5.393567584E+02  1.250000000E+02  0.00000E+00  9.000E+00
      25     1     1     2     0     0 -6.135166112E+01 -3.113053613E+02 -5.867796941E+02  6.786828889E+02  1.250000000E+02  0.00000E+00  9.000E+00
      21     1     1     2   512   502 -5.682174615E+00  8.264923873E+00  1.433241685E+00  1.013164630E+01  1.712013080E-07  0.00000E+00  9.000E+00
#rwgt            1           1   2.2500428815333397E-002          10       87758           0
</event>
<event>
      5   9999  3.19816E-02  8.76681E+01 -1.00000E+00  1.26455E-01
      21    -1     0     0   502   501  0.000000000E+00  0.000000000E+00  6.871752083E+02  6.871752083E+02  0.000000000E+00  0.00000E+00  9.000E+00
      -3    -1     0     0     0   502  0.000000000E+00  0.000000000E+00 -5.376165881E+02  5.376165881E+02  0.000000000E+00  0.00000E+00  9.000E+00
      25     1     1     2     0     0 -3.976714458E+01 -3.056852945E+02  5.489228652E+02  6.418459605E+02  1.250000000E+02  0.00000E+00  9.000E+00
      25     1     1     2     0     0  1.482489724E+01  2.216402165E+02 -1.047684946E+02  2.755822938E+02  1.250000000E+02  0.00000E+00  9.000E+00
      -3     1     1     2     0   501  2.494224734E+01  8.404507797E+01 -2.945957505E+02  3.073635421E+02  3.814697266E-06  0.00000E+00  9.000E+00
#rwgt            1           1   2.8205272972172561E-002          10       88079           0
</event>
<event>
      5   9999  3.19816E-02  1.49484E+02 -1.00000E+00  1.16453E-01
      21    -1     0     0   511   501  0.000000000E+00  0.000000000E+00  7.743989302E+02  7.743989302E+02  0.000000000E+00  0.00000E+00  9.000E+00
      21    -1     0     0   501   502  0.000000000E+00  0.000000000E+00 -4.585929663E+02  4.585929663E+02  0.000000000E+00  0.00000E+00  9.000E+00
      25     1     1     2     0     0 -3.167151563E+02  2.248287683E+01  3.732845487E+02  5.057472928E+02  1.250000000E+02  0.00000E+00  9.000E+00
      25     1     1     2     0     0  4.606180028E+02 -6.294848101E+01 -1.994444856E+02  5.210897798E+02  1.250000000E+02  0.00000E+00  9.000E+00
      21     1     1     2   511   502 -1.439028465E+02  4.046560418E+01  1.419659009E+02  2.061548238E+02  1.907348633E-06  0.00000E+00  9.000E+00
#rwgt            1           1   2.8226013460176939E-002          10       88165           0
</event>
<event>
      5   9999  3.19816E-02  8.35701E+01 -1.00000E+00  1.27438E-01
      21    -1     0     0   512   501  0.000000000E+00  0.000000000E+00  9.359347587E+02  9.359347587E+02  0.000000000E+00  0.00000E+00  9.000E+00
      21    -1     0     0   501   502  0.000000000E+00  0.000000000E+00 -8.594672815E+01  8.594672815E+01  0.000000000E+00  0.00000E+00  9.000E+00
      25     1     1     2     0     0  2.356830098E+01  7.338804019E+01  5.214096142E+00  1.469471199E+02  1.250000000E+02  0.00000E+00  9.000E+00
      25     1     1     2     0     0  5.481493181E+01 -4.440490497E+01  5.649350801E+02  5.828834507E+02  1.250000000E+02  0.00000E+00  9.000E+00
      21     1     1     2   512   502 -7.838323279E+01 -2.898313522E+01  2.798388543E+02  2.920509162E+02  0.000000000E+00  0.00000E+00  9.000E+00
#rwgt            1           1   2.8444443268027277E-002          10       88260           0
</event>
<event>
      5   9999  3.19816E-02  6.00867E+01 -1.00000E+00  1.34670E-01
      21    -1     0     0   502   501  0.000000000E+00  0.000000000E+00  2.130237316E+02  2.130237316E+02  0.000000000E+00  0.00000E+00  9.000E+00
      21    -1     0     0   501   511  0.000000000E+00  0.000000000E+00 -5.583185541E+02  5.583185541E+02  0.000000000E+00  0.00000E+00  9.000E+00
      25     1     1     2     0     0  1.968258415E+02 -1.675555851E+02 -1.610557420E+02  3.292100211E+02  1.250000000E+02  0.00000E+00  9.000E+00
      25     1     1     2     0     0 -2.358508123E+02  1.218668772E+02 -5.353084589E+01  2.982745260E+02  1.250000000E+02  0.00000E+00  9.000E+00
      21     1     1     2   502   511  3.902497080E+01  4.568870795E+01 -1.307082346E+02  1.438577386E+02  1.907348633E-06  0.00000E+00  9.000E+00
#rwgt            1           1   2.7421010749902431E-002          10       88356           0
</event>
<event>
      5   9999  3.19816E-02  1.55934E+01 -1.00000E+00  1.75811E-01
      21    -1     0     0   502   501  0.000000000E+00  0.000000000E+00  3.860049432E+02  3.860049432E+02  0.000000000E+00  0.00000E+00  9.000E+00
      21    -1     0     0   501   512  0.000000000E+00  0.000000000E+00 -3.093265318E+02  3.093265318E+02  0.000000000E+00  0.00000E+00  9.000E+00
      25     1     1     2     0     0  1.622644561E+02  2.136564476E+02  2.021569967E+02  3.584289087E+02  1.250000000E+02  0.00000E+00  9.000E+00
      25     1     1     2     0     0 -1.501552434E+02 -2.038319168E+02 -8.709664563E+01  2.954739804E+02  1.250000000E+02  0.00000E+00  9.000E+00
      21     1     1     2   502   512 -1.210921273E+01 -9.824530754E+00 -3.838193960E+01  4.142858585E+01  0.000000000E+00  0.00000E+00  9.000E+00
#rwgt            1           1   2.9813823701837976E-002          10       88450           0
</event>
<event>
      5   9999  3.19816E-02  3.30494E+01 -1.00000E+00  1.50176E-01
      21    -1     0     0   502   501  0.000000000E+00  0.000000000E+00  6.303162164E+02  6.303162164E+02  0.000000000E+00  0.00000E+00  9.000E+00
      21    -1     0     0   511   502  0.000000000E+00  0.000000000E+00 -9.946559614E+01  9.946559614E+01  0.000000000E+00  0.00000E+00  9.000E+00
      25     1     1     2     0     0 -1.395657340E+02  1.043314928E+02  3.734775275E+02  4.306670617E+02  1.250000000E+02  0.00000E+00  9.000E+00
      25     1     1     2     0     0  1.171503035E+02 -8.004547067E+01  1.783804177E+02  2.599539275E+02  1.250000000E+02  0.00000E+00  9.000E+00
      21     1     1     2   511   501  2.241543044E+01 -2.428602209E+01 -2.100732487E+01  3.916082340E+01  7.907449699E-07  0.00000E+00  9.000E+00
#rwgt            1           1   2.6339857171823373E-002          10       88641           0
</event>
<event>
      5   9999  3.19816E-02  7.90942E+01 -1.00000E+00  1.28589E-01
      21    -1     0     0   502   501  0.000000000E+00  0.000000000E+00  1.790530788E+03  1.790530788E+03  0.000000000E+00  0.00000E+00  9.000E+00
      21    -1     0     0   501   512  0.000000000E+00  0.000000000E+00 -4.621312908E+02  4.621312908E+02  0.000000000E+00  0.00000E+00  9.000E+00
      25     1     1     2     0     0 -7.103494666E+02  5.994216991E+00  1.188918534E+03  1.390605830E+03  1.250000000E+02  0.00000E+00  9.000E+00
      25     1     1     2     0     0  7.046826170E+02  7.289667001E+01  2.169049382E+02  7.513749180E+02  1.250000000E+02  0.00000E+00  9.000E+00
      21     1     1     2   502   512  5.666849657E+00 -7.889088700E+01 -7.742397425E+01  1.106813310E+02  1.907348633E-06  0.00000E+00  9.000E+00
#rwgt            1           1   3.2942973267225423E-002          10       88768           0
</event>
<event>
      5   9999  3.19816E-02  2.43227E+01 -1.00000E+00  1.59650E-01
      21    -1     0     0   502   511  0.000000000E+00  0.000000000E+00  3.353271533E+02  3.353271533E+02  0.000000000E+00  0.00000E+00  9.000E+00
      21    -1     0     0   501   502  0.000000000E+00  0.000000000E+00 -9.654164515E+02  9.654164515E+02  0.000000000E+00  0.00000E+00  9.000E+00
      25     1     1     2     0     0 -1.771357836E+02  1.882949965E+01 -8.780071236E+02  9.045734603E+02  1.250000000E+02  0.00000E+00  9.000E+00
      25     1     1     2     0     0  1.717795272E+02  4.896062924E+00  8.088444819E+01  2.273751775E+02  1.250000000E+02  0.00000E+00  9.000E+00
      21     1     1     2   501   511  5.356256455E+00 -2.372556257E+01  1.670333772E+02  1.687949670E+02  2.697398305E-06  0.00000E+00  9.000E+00
#rwgt            1           1   2.8649599403411784E-002          10       88846           0
</event>
<event>
      5   9999  3.19816E-02  2.21574E+02 -1.00000E+00  1.10052E-01
      21    -1     0     0   502   512  0.000000000E+00  0.000000000E+00  2.580197825E+03  2.580197825E+03  0.000000000E+00  0.00000E+00  9.000E+00
      21    -1     0     0   501   502  0.000000000E+00  0.000000000E+00 -7.906166542E+01  7.906166542E+01  0.000000000E+00  0.00000E+00  9.000E+00
      25     1     1     2     0     0 -6.847249369E+01  2.971928417E+02  8.425017559E+02  9.046802066E+02  1.250000000E+02  0.00000E+00  9.000E+00
      25     1     1     2     0     0  1.037815893E+02 -7.845007094E+01  1.646498199E+02  2.442531373E+02  1.250000000E+02  0.00000E+00  9.000E+00
      21     1     1     2   501   512 -3.530909564E+01 -2.187427708E+02  1.493984583E+03  1.510326146E+03  3.051757812E-05  0.00000E+00  9.000E+00
#rwgt            2          11   8.8314553540157995E-004          10       89466           0
</event>
<event>
      5   9999  3.19816E-02  2.07388E+02 -1.00000E+00  1.11078E-01
      21    -1     0     0   502   501  0.000000000E+00  0.000000000E+00  2.336213997E+03  2.336213997E+03  0.000000000E+00  0.00000E+00  9.000E+00
       1    -1     0     0   501     0  0.000000000E+00  0.000000000E+00 -1.023118646E+03  1.023118646E+03  0.000000000E+00  0.00000E+00  9.000E+00
      25     1     1     2     0     0  3.675102792E+02 -2.919998941E+02 -1.653255733E+02  5.131133293E+02  1.250000000E+02  0.00000E+00  9.000E+00
      25     1     1     2     0     0 -5.614390779E+02  2.185046745E+02  2.101400400E+03  2.189627086E+03  1.250000000E+02  0.00000E+00  9.000E+00
       1     1     1     2   502     0  1.939287987E+02  7.349521965E+01 -6.229794764E+02  6.565922284E+02  0.000000000E+00  0.00000E+00  9.000E+00
#rwgt            1           1   2.6683328385718526E-002          10       89486           0
</event>
<event>
      5   9999  3.19816E-02  4.10491E+01 -1.00000E+00  1.44146E-01
      21    -1     0     0   502   501  0.000000000E+00  0.000000000E+00  1.600729014E+03  1.600729014E+03  0.000000000E+00  0.00000E+00  9.000E+00
      21    -1     0     0   511   502  0.000000000E+00  0.000000000E+00 -6.842825835E+02  6.842825835E+02  0.000000000E+00  0.00000E+00  9.000E+00
      25     1     1     2     0     0 -5.359098460E+02  7.529270645E+02  7.111003885E+02  1.172769069E+03  1.250000000E+02  0.00000E+00  9.000E+00
      25     1     1     2     0     0  4.989293616E+02 -7.351092624E+02  3.491240629E+02  9.627194539E+02  1.250000000E+02  0.00000E+00  9.000E+00
      21     1     1     2   511   501  3.698048443E+01 -1.781780209E+01 -1.437780212E+02  1.495230741E+02  2.697398305E-06  0.00000E+00  9.000E+00
#rwgt            1           1   2.6303679339836405E-002          10       89555           0
</event>
<event>
      5   9999  3.19816E-02  2.05193E+01 -1.00000E+00  1.65456E-01
      21    -1     0     0   502   501  0.000000000E+00  0.000000000E+00  2.510226518E+01  2.510226518E+01  0.000000000E+00  0.00000E+00  9.000E+00
      21    -1     0     0   501   512  0.000000000E+00  0.000000000E+00 -1.660062999E+03  1.660062999E+03  0.000000000E+00  0.00000E+00  9.000E+00
      25     1     1     2     0     0 -8.415740677E+01 -1.528764806E+01 -1.247959819E+03  1.257117692E+03  1.250000000E+02  0.00000E+00  9.000E+00
      25     1     1     2     0     0  9.206545783E+01 -3.646527350E+00 -2.906156295E+02  3.295023366E+02  1.250000000E+02  0.00000E+00  9.000E+00
      21     1     1     2   502   512 -7.908051052E+00  1.893417541E+01 -9.638528520E+01  9.854523566E+01  1.348699152E-06  0.00000E+00  9.000E+00
#rwgt            1           1   2.8379653437374409E-002          10       89651           0
</event>
<event>
      5   9999  3.19816E-02  3.89918E+01 -1.00000E+00  1.45531E-01
      21    -1     0     0   502   501  0.000000000E+00  0.000000000E+00  1.768405646E+02  1.768405646E+02  0.000000000E+00  0.00000E+00  9.000E+00
      21    -1     0     0   501   511  0.000000000E+00  0.000000000E+00 -4.287339684E+02  4.287339684E+02  0.000000000E+00  0.00000E+00  9.000E+00
      25     1     1     2     0     0  5.812290882E+01  1.653807686E+02 -2.753927895E+02  3.495643856E+02  1.250000000E+02  0.00000E+00  9.000E+00
      25     1     1     2     0     0 -8.787691048E+01 -1.401804320E+02  4.397226460E+01  2.119704342E+02  1.250000000E+02  0.00000E+00  9.000E+00
      21     1     1     2   502   511  2.975400166E+01 -2.520033662E+01 -2.047287885E+01  4.403971332E+01  2.384185791E-07  0.00000E+00  9.000E+00
#rwgt            1           1   3.2083115056755311E-002          10       89772           0
</event>
<event>
      5   9999  3.19816E-02  3.95462E+01 -1.00000E+00  1.45148E-01
      21    -1     0     0   502   512  0.000000000E+00  0.000000000E+00  6.903324565E+01  6.903324565E+01  0.000000000E+00  0.00000E+00  9.000E+00
      21    -1     0     0   501   502  0.000000000E+00  0.000000000E+00 -1.401993315E+03  1.401993315E+03  0.000000000E+00  0.00000E+00  9.000E+00
      25     1     1     2     0     0  2.007980743E+02  1.506072436E+02 -6.074479148E+02  6.690443765E+02  1.250000000E+02  0.00000E+00  9.000E+00
      25     1     1     2     0     0 -1.951488002E+02 -1.897478641E+02 -6.691924797E+02  7.331649753E+02  1.250000000E+02  0.00000E+00  9.000E+00
      21     1     1     2   501   512 -5.649274140E+00  3.914062046E+01 -5.631967494E+01  6.881720900E+01  9.536743164E-07  0.00000E+00  9.000E+00
#rwgt            1           1   3.6932309623470549E-002          10       89869           0
</event>
<event>
      5   9999  3.19816E-02  4.72965E+01 -1.00000E+00  1.40467E-01
      21    -1     0     0   502   501  0.000000000E+00  0.000000000E+00  2.201851046E+03  2.201851046E+03  0.000000000E+00  0.00000E+00  9.000E+00
      21    -1     0     0   501   511  0.000000000E+00  0.000000000E+00 -5.875012282E+02  5.875012282E+02  0.000000000E+00  0.00000E+00  9.000E+00
      25     1     1     2     0     0  3.627153873E+02  2.507059049E+02  7.023212903E+02  8.386275084E+02  1.250000000E+02  0.00000E+00  9.000E+00
      25     1     1     2     0     0 -3.995133045E+02 -2.209926915E+02  1.391044092E+03  1.469379908E+03  1.250000000E+02  0.00000E+00  9.000E+00
      21     1     1     2   502   511  3.679791720E+01 -2.971321343E+01 -4.790155639E+02  4.813448578E+02  5.394796609E-06  0.00000E+00  9.000E+00
#rwgt            1           1   2.9960669937497027E-002          10       89944           0
</event>
<event>
      5   9999  3.19816E-02  3.04283E+01 -1.00000E+00  1.52613E-01
      21    -1     0     0   502   501  0.000000000E+00  0.000000000E+00  1.361529303E+03  1.361529303E+03  0.000000000E+00  0.00000E+00  9.000E+00
       3    -1     0     0   501     0  0.000000000E+00  0.000000000E+00 -4.931796181E+02  4.931796181E+02  0.000000000E+00  0.00000E+00  9.000E+00
      25     1     1     2     0     0 -1.898050698E+02 -4.547869447E+02  2.563028444E+01  5.090570116E+02  1.250000000E+02  0.00000E+00  9.000E+00
      25     1     1     2     0     0  1.605283440E+02  4.464949873E+02  1.037940626E+03  1.148073545E+03  1.250000000E+02  0.00000E+00  9.000E+00
       3     1     1     2   502     0  2.927672586E+01  8.291957342E+00 -1.952212253E+02  1.975783643E+02  3.814697266E-06  0.00000E+00  9.000E+00
#rwgt            1           1   2.5866399428769046E-002          10       90091           0
</event>
<event>
      5   9999  3.19816E-02  1.27144E+02 -1.00000E+00  1.19312E-01
      21    -1     0     0   502   501  0.000000000E+00  0.000000000E+00  2.272404975E+02  2.272404975E+02  0.000000000E+00  0.00000E+00  9.000E+00
       2    -1     0     0   501     0  0.000000000E+00  0.000000000E+00 -1.418542282E+03  1.418542282E+03  0.000000000E+00  0.00000E+00  9.000E+00
      25     1     1     2     0     0 -9.864249683E+01 -2.759348718E+02 -2.813235754E+01  3.198231155E+02  1.250000000E+02  0.00000E+00  9.000E+00
      25     1     1     2     0     0  2.127462904E+02  2.198462232E+02 -2.784444193E+02  4.321453928E+02  1.250000000E+02  0.00000E+00  9.000E+00
       2     1     1     2   502     0 -1.141037935E+02  5.608864859E+01 -8.847250077E+02  8.938142713E+02  1.078959322E-05  0.00000E+00  9.000E+00
#rwgt            1           1   2.7928754865704900E-002          10       90274           0
</event>
<event>
      5   9999  3.19816E-02  3.73976E+01 -1.00000E+00  1.46676E-01
      21    -1     0     0   511   501  0.000000000E+00  0.000000000E+00  7.095553879E+02  7.095553879E+02  0.000000000E+00  0.00000E+00  9.000E+00
      21    -1     0     0   501   502  0.000000000E+00  0.000000000E+00 -7.249332310E+01  7.249332310E+01  0.000000000E+00  0.00000E+00  9.000E+00
      25     1     1     2     0     0 -3.991242370E+01 -5.218969671E+01  6.877278667E+01  1.570715194E+02  1.250000000E+02  0.00000E+00  9.000E+00
      25     1     1     2     0     0  7.725277267E+01  5.012166249E+01  1.923925713E+02  2.472247427E+02  1.250000000E+02  0.00000E+00  9.000E+00
      21     1     1     2   511   502 -3.734034897E+01  2.068034224E+00  3.758967069E+02  3.777524490E+02  7.629394531E-06  0.00000E+00  9.000E+00
#rwgt            1           1   5.5801265827098948E-002          10       90321           0
</event>
<event>
      5   9999  3.19816E-02  8.33848E+01 -1.00000E+00  1.27484E-01
      21    -1     0     0   502   501  0.000000000E+00  0.000000000E+00  7.482175513E+01  7.482175513E+01  0.000000000E+00  0.00000E+00  9.000E+00
       2    -1     0     0   501     0  0.000000000E+00  0.000000000E+00 -2.070579134E+03  2.070579134E+03  0.000000000E+00  0.00000E+00  9.000E+00
      25     1     1     2     0     0  1.409195723E+02  2.672087623E+02 -8.556470890E+02  9.159780507E+02  1.250000000E+02  0.00000E+00  9.000E+00
      25     1     1     2     0     0 -2.220359366E+02 -2.478913454E+02 -7.431642846E+02  8.238132253E+02  1.250000000E+02  0.00000E+00  9.000E+00
       2     1     1     2   502     0  8.111636430E+01 -1.931741695E+01 -3.969460053E+02  4.056096131E+02  5.394796609E-06  0.00000E+00  9.000E+00
#rwgt            1           1   3.1069897065849429E-002          10       90367           0
</event>
<event>
      5   9999  3.19816E-02  1.10772E+01 -1.00000E+00  1.90758E-01
      21    -1     0     0   502   501  0.000000000E+00  0.000000000E+00  4.347612072E+01  4.347612072E+01  0.000000000E+00  0.00000E+00  9.000E+00
      21    -1     0     0   501   511  0.000000000E+00  0.000000000E+00 -1.080997472E+03  1.080997472E+03  0.000000000E+00  0.00000E+00  9.000E+00
      25     1     1     2     0     0 -1.306037982E+02 -6.503248251E+00 -6.605197417E+02  6.848437584E+02  1.250000000E+02  0.00000E+00  9.000E+00
      25     1     1     2     0     0  1.408855760E+02  1.062499961E+01 -2.553493454E+02  3.174742893E+02  1.250000000E+02  0.00000E+00  9.000E+00
      21     1     1     2   502   511 -1.028177778E+01 -4.121751363E+00 -1.216522639E+02  1.221555447E+02  1.348699152E-06  0.00000E+00  9.000E+00
#rwgt            1           1   2.9142700367103098E-002          10       90431           0
</event>
<event>
      5   9999  3.19816E-02  1.06550E+02 -1.00000E+00  1.22601E-01
      21    -1     0     0   502   501  0.000000000E+00  0.000000000E+00  1.014467410E+03  1.014467410E+03  0.000000000E+00  0.00000E+00  9.000E+00
      21    -1     0     0   512   502  0.000000000E+00  0.000000000E+00 -1.351673632E+03  1.351673632E+03  0.000000000E+00  0.00000E+00  9.000E+00
      25     1     1     2     0     0  1.674355789E+01  1.376944152E+02  8.933244049E+00  1.869355546E+02  1.250000000E+02  0.00000E+00  9.000E+00
      25     1     1     2     0     0  4.424312465E+01 -5.032446950E+01  9.087751282E+02  9.197756466E+02  1.250000000E+02  0.00000E+00  9.000E+00
      21     1     1     2   512   501 -6.098668254E+01 -8.736994573E+01 -1.254914594E+03  1.259429840E+03  2.157918644E-05  0.00000E+00  9.000E+00
#rwgt            1           1   2.7076572932259499E-002          10       90547           0
</event>
<event>
      5   9999  3.19816E-02  5.64749E+01 -1.00000E+00  1.36124E-01
      21    -1     0     0   502   501  0.000000000E+00  0.000000000E+00  2.088051948E+02  2.088051948E+02  0.000000000E+00  0.00000E+00  9.000E+00
      21    -1     0     0   511   502  0.000000000E+00  0.000000000E+00 -6.187443474E+02  6.187443474E+02  0.000000000E+00  0.00000E+00  9.000E+00
      25     1     1     2     0     0 -2.407059582E+02 -1.354157975E+02 -7.181065828E+01  3.115422398E+02  1.250000000E+02  0.00000E+00  9.000E+00
      25     1     1     2     0     0  2.816797843E+02  9.654991293E+01 -2.384190001E+02  4.014150049E+02  1.250000000E+02  0.00000E+00  9.000E+00
      21     1     1     2   511   501 -4.097382607E+01  3.886588455E+01 -9.970949418E+01  1.145922974E+02  1.348699152E-06  0.00000E+00  9.000E+00
#rwgt            1           1   2.6249125069564908E-002          10       90609           0
</event>
<event>
      5   9999  3.19816E-02  1.89166E+02 -1.00000E+00  1.12536E-01
       2    -1     0     0   502     0  0.000000000E+00  0.000000000E+00  1.553209155E+03  1.553209155E+03  0.000000000E+00  0.00000E+00  9.000E+00
      21    -1     0     0   501   502  0.000000000E+00  0.000000000E+00 -1.381193140E+02  1.381193140E+02  0.000000000E+00  0.00000E+00  9.000E+00
      25     1     1     2     0     0 -6.788888885E+01  1.953921247E+02  1.585428150E+01  2.422051648E+02  1.250000000E+02  0.00000E+00  9.000E+00
      25     1     1     2     0     0 -6.662245393E+01 -6.238672048E+01  9.366893174E+02  9.493906106E+02  1.250000000E+02  0.00000E+00  9.000E+00
       2     1     1     2   501     0  1.345113428E+02 -1.330054042E+02  4.625462417E+02  4.997326931E+02  7.629394531E-06  0.00000E+00  9.000E+00
#rwgt            1           1   3.3126411457746953E-002          10       90726           0
</event>
<event>
      5   9999  3.19816E-02  4.05340E+01 -1.00000E+00  1.44484E-01
      21    -1     0     0   502   501  0.000000000E+00  0.000000000E+00  7.721669732E+02  7.721669732E+02  0.000000000E+00  0.00000E+00  9.000E+00
       2    -1     0     0   501     0  0.000000000E+00  0.000000000E+00 -2.840339986E+03  2.840339986E+03  0.000000000E+00  0.00000E+00  9.000E+00
      25     1     1     2     0     0  2.541648629E+02  4.126498584E+02 -5.894089359E+02  7.732448363E+02  1.250000000E+02  0.00000E+00  9.000E+00
      25     1     1     2     0     0 -2.666307914E+02 -3.740803838E+02  5.967290523E+02  7.633732209E+02  1.250000000E+02  0.00000E+00  9.000E+00
       2     1     1     2   502     0  1.246592853E+01 -3.856947453E+01 -2.075493129E+03  2.075888902E+03  0.000000000E+00  0.00000E+00  9.000E+00
#rwgt            1           1   3.2210054651924579E-002          10       90785           0
</event>
<event>
      5   9999  3.19816E-02  1.16735E+02 -1.00000E+00  1.20879E-01
      21    -1     0     0   502   501  0.000000000E+00  0.000000000E+00  4.058514337E+02  4.058514337E+02  0.000000000E+00  0.00000E+00  9.000E+00
       1    -1     0     0   501     0  0.000000000E+00  0.000000000E+00 -4.906743450E+02  4.906743450E+02  0.000000000E+00  0.00000E+00  9.000E+00
      25     1     1     2     0     0  1.477230391E+02 -3.458566070E+01 -1.270629810E+01  1.969891221E+02  1.250000000E+02  0.00000E+00  9.000E+00
      25     1     1     2     0     0 -1.455187446E+02 -8.212838362E+01  2.681633942E+02  3.397902035E+02  1.250000000E+02  0.00000E+00  9.000E+00
       1     1     1     2   502     0 -2.204294516E+00  1.167140443E+02 -3.402800075E+02  3.597464531E+02  3.814697266E-06  0.00000E+00  9.000E+00
#rwgt            1           1   2.7739369452493452E-002          10       90926           0
</event>
<event>
      5   9999  3.19816E-02  1.59440E+01 -1.00000E+00  1.74922E-01
      21    -1     0     0   511   501  0.000000000E+00  0.000000000E+00  1.661172942E+02  1.661172942E+02  0.000000000E+00  0.00000E+00  9.000E+00
      21    -1     0     0   501   502  0.000000000E+00  0.000000000E+00 -7.716576828E+02  7.716576828E+02  0.000000000E+00  0.00000E+00  9.000E+00
      25     1     1     2     0     0  2.253004459E+01 -2.928001575E+02 -5.115272769E+02  6.029300873E+02  1.250000000E+02  0.00000E+00  9.000E+00
      25     1     1     2     0     0 -2.391696210E+01  2.769165917E+02 -9.390267473E+01  3.189005051E+02  1.250000000E+02  0.00000E+00  9.000E+00
      21     1     1     2   511   502  1.386917509E+00  1.588356577E+01 -1.104369564E-01  1.594438453E+01  2.762968983E-07  0.00000E+00  9.000E+00
#rwgt            1           1   2.7687684907692463E-002          10       90998           0
</event>
<event>
      5   9999  3.19816E-02  1.40869E+02 -1.00000E+00  1.17485E-01
      21    -1     0     0   502   501  0.000000000E+00  0.000000000E+00  8.144383807E+02  8.144383807E+02  0.000000000E+00  0.00000E+00  9.000E+00
      21    -1     0     0   512   502  0.000000000E+00  0.000000000E+00 -3.158076564E+02  3.158076564E+02  0.000000000E+00  0.00000E+00  9.000E+00
      25     1     1     2     0     0  4.617492256E+01  6.550398957E+01 -2.184106104E+01  1.500830706E+02  1.250000000E+02  0.00000E+00  9.000E+00
      25     1     1     2     0     0 -1.806538465E+02 -1.074496740E+02  7.060338398E+02  7.471880805E+02  1.250000000E+02  0.00000E+00  9.000E+00
      21     1     1     2   512   501  1.344789240E+02  4.194568447E+01 -1.855620545E+02  2.329748860E+02  0.000000000E+00  0.00000E+00  9.000E+00
#rwgt            1           1   3.0614265003412935E-002          10       91126           0
</event>
<event>
      5   9999  3.19816E-02  6.14637E+01 -1.00000E+00  1.34146E-01
      21    -1     0     0   511   501  0.000000000E+00  0.000000000E+00  1.513159883E+03  1.513159883E+03  0.000000000E+00  0.00000E+00  9.000E+00
      21    -1     0     0   501   502  0.000000000E+00  0.000000000E+00 -1.962897184E+02  1.962897184E+02  0.000000000E+00  0.00000E+00  9.000E+00
      25     1     1     2     0     0 -2.913297186E+02 -2.196364290E+02  1.051052579E+03  1.119575674E+03  1.250000000E+02  0.00000E+00  9.000E+00
      25     1     1     2     0     0  2.479995089E+02  2.632286012E+02  7.569262036E+01  3.900607974E+02  1.250000000E+02  0.00000E+00  9.000E+00
      21     1     1     2   511   502  4.333020972E+01 -4.359217222E+01  1.901249656E+02  1.998131304E+02  2.697398305E-06  0.00000E+00  9.000E+00
#rwgt            1           1   1.6502183063715339E-002          10       91166           0
</event>
<event>
      5   9999  3.19816E-02  1.37999E+01 -1.00000E+00  1.80865E-01
      21    -1     0     0   502   501  0.000000000E+00  0.000000000E+00  1.301808795E+03  1.301808795E+03  0.000000000E+00  0.00000E+00  9.000E+00
      21    -1     0     0   501   512  0.000000000E+00  0.000000000E+00 -2.449528877E+02  2.449528877E+02  0.000000000E+00  0.00000E+00  9.000E+00
      25     1     1     2     0     0  4.174279715E+02  2.474035791E+02  5.919459592E+02  7.755511981E+02  1.250000000E+02  0.00000E+00  9.000E+00
      25     1     1     2     0     0 -4.047495848E+02 -2.528530229E+02  5.186026585E+02  7.157727258E+02  1.250000000E+02  0.00000E+00  9.000E+00
      21     1     1     2   502   512 -1.267838664E+01  5.449443756E+00 -5.369271053E+01  5.543775869E+01  0.000000000E+00  0.00000E+00  9.000E+00
#rwgt            1           1   2.5035144264149052E-002          10       91297           0
</event>
<event>
      5   9999  3.19816E-02  8.76559E+00 -1.00000E+00  2.02613E-01
      21    -1     0     0   511   501  0.000000000E+00  0.000000000E+00  2.931527823E+02  2.931527823E+02  0.000000000E+00  0.00000E+00  9.000E+00
      21    -1     0     0   501   502  0.000000000E+00  0.000000000E+00 -2.381206084E+02  2.381206084E+02  0.000000000E+00  0.00000E+00  9.000E+00
      25     1     1     2     0     0  1.495835221E+01 -1.635515323E+02  1.900590154E+02  2.805713552E+02  1.250000000E+02  0.00000E+00  9.000E+00
      25     1     1     2     0     0 -1.162372410E+01  1.554450002E+02 -1.362642268E+02  2.418495370E+02  1.250000000E+02  0.00000E+00  9.000E+00
      21     1     1     2   511   502 -3.334628115E+00  8.106532064E+00  1.237385292E+00  8.852498468E+00  6.828569911E-08  0.00000E+00  9.000E+00
#rwgt            1           1   2.6474789864969969E-002          10       91475           0
</event>
<event>
      5   9999  3.19816E-02  3.37300E+01 -1.00000E+00  1.49587E-01
      21    -1     0     0   502   501  0.000000000E+00  0.000000000E+00  5.735480664E+02  5.735480664E+02  0.000000000E+00  0.00000E+00  9.000E+00
       2    -1     0     0   501     0  0.000000000E+00  0.000000000E+00 -2.559641309E+02  2.559641309E+02  0.000000000E+00  0.00000E+00  9.000E+00
      25     1     1     2     0     0 -1.464876180E+02  1.155398145E+02  4.015884157E+02  4.601155578E+02  1.250000000E+02  0.00000E+00  9.000E+00
      25     1     1     2     0     0  1.288307300E+02 -8.680052114E+01  7.032118342E+01  2.114278986E+02  1.250000000E+02  0.00000E+00  9.000E+00
       2     1     1     2   502     0  1.765688801E+01 -2.873929340E+01 -1.543256635E+02  1.579687409E+02  3.814697266E-06  0.00000E+00  9.000E+00
#rwgt            1           1   3.4192136151362379E-002          10       91686           0
</event>
<event>
      5   9999  3.19816E-02  2.91450E+01 -1.00000E+00  1.53917E-01
      21    -1     0     0   502   501  0.000000000E+00  0.000000000E+00  1.665407350E+03  1.665407350E+03  0.000000000E+00  0.00000E+00  9.000E+00
      21    -1     0     0   501   511  0.000000000E+00  0.000000000E+00 -8.589589009E+02  8.589589009E+02  0.000000000E+00  0.00000E+00  9.000E+00
      25     1     1     2     0     0 -4.901238586E+02  4.468456817E+02  9.335711303E+02  1.151986335E+03  1.250000000E+02  0.00000E+00  9.000E+00
      25     1     1     2     0     0  4.653726417E+02 -4.314570878E+02  4.541868747E+02  7.903401998E+02  1.250000000E+02  0.00000E+00  9.000E+00
      21     1     1     2   502   511  2.475121694E+01 -1.538859388E+01 -5.813095560E+02  5.820397164E+02  1.525878906E-05  0.00000E+00  9.000E+00
#rwgt            1           1   3.1016720214266647E-002          10       91814           0
</event>
<event>
      5   9999  3.19816E-02  7.44849E+01 -1.00000E+00  1.29869E-01
      21    -1     0     0   502   501  0.000000000E+00  0.000000000E+00  1.921708817E+03  1.921708817E+03  0.000000000E+00  0.00000E+00  9.000E+00
      21    -1     0     0   501   512  0.000000000E+00  0.000000000E+00 -3.386450595E+02  3.386450595E+02  0.000000000E+00  0.00000E+00  9.000E+00
      25     1     1     2     0     0  2.720929692E+02 -1.396800299E+02  1.706759765E+03  1.738447293E+03  1.250000000E+02  0.00000E+00  9.000E+00
      25     1     1     2     0     0 -2.220502617E+02  8.451003779E+01  9.973129670E+01  2.863906366E+02  1.250000000E+02  0.00000E+00  9.000E+00
      21     1     1     2   502   512 -5.004270757E+01  5.516999208E+01 -2.234273047E+02  2.355159466E+02  3.814697266E-06  0.00000E+00  9.000E+00
#rwgt            1           1   2.6272571818072500E-002          10       91981           0
</event>
<event>
      5   9999  3.19816E-02  2.34447E+01 -1.00000E+00  1.60869E-01
      21    -1     0     0   502   511  0.000000000E+00  0.000000000E+00  2.096200146E+02  2.096200146E+02  0.000000000E+00  0.00000E+00  9.000E+00
      21    -1     0     0   501   502  0.000000000E+00  0.000000000E+00 -5.705793443E+02  5.705793443E+02  0.000000000E+00  0.00000E+00  9.000E+00
      25     1     1     2     0     0  2.002296179E+02 -2.349764036E+01 -1.080115425E+02  2.606444557E+02  1.250000000E+02  0.00000E+00  9.000E+00
      25     1     1     2     0     0 -2.021040062E+02  4.686729956E+01 -3.466928950E+02  4.229226129E+02  1.250000000E+02  0.00000E+00  9.000E+00
      21     1     1     2   501   511  1.874388325E+00 -2.336965920E+01  9.374510771E+01  9.663229027E+01  2.336015456E-06  0.00000E+00  9.000E+00
#rwgt            1           1   2.4826176955699511E-002          10       92050           0
</event>
<event>
      5   9999  3.19816E-02  1.80016E+01 -1.00000E+00  1.70232E-01
      21    -1     0     0   512   501  0.000000000E+00  0.000000000E+00  6.286986028E+02  6.286986028E+02  0.000000000E+00  0.00000E+00  9.000E+00
      21    -1     0     0   501   502  0.000000000E+00  0.000000000E+00 -1.570174691E+02  1.570174691E+02  0.000000000E+00  0.00000E+00  9.000E+00
      25     1     1     2     0     0 -2.788993087E+02  5.065603218E+00  1.739933863E+02  3.517231627E+02  1.250000000E+02  0.00000E+00  9.000E+00
      25     1     1     2     0     0  2.618383897E+02 -1.080877066E+01  2.504459788E+02  3.834375570E+02  1.250000000E+02  0.00000E+00  9.000E+00
      21     1     1     2   512   502  1.706091905E+01  5.743167442E+00  4.724176872E+01  5.055535226E+01  9.536743164E-07  0.00000E+00  9.000E+00
#rwgt            1           1   2.8779031903174736E-002          10       92173           0
</event>
<event>
      5   9999  3.19816E-02  1.85448E+02 -1.00000E+00  1.12856E-01
      21    -1     0     0   502   501  0.000000000E+00  0.000000000E+00  1.394605720E+03  1.394605720E+03  0.000000000E+00  0.00000E+00  9.000E+00
      21    -1     0     0   501   511  0.000000000E+00  0.000000000E+00 -8.117945817E+02  8.117945817E+02  0.000000000E+00  0.00000E+00  9.000E+00
      25     1     1     2     0     0  2.397851241E+02  4.110676174E+02 -6.224500362E+02  7.934371679E+02  1.250000000E+02  0.00000E+00  9.000E+00
      25     1     1     2     0     0 -8.682134468E+01 -3.062199233E+02  1.176636278E+03  1.225318946E+03  1.250000000E+02  0.00000E+00  9.000E+00
      21     1     1     2   502   511 -1.529637795E+02 -1.048476942E+02  2.862489678E+01  1.876441886E+02  2.078484985E-06  0.00000E+00  9.000E+00
#rwgt            2          11   9.5424027123980227E-003          10       92347           0
</event>
<event>
      5   9999  3.19816E-02  3.06732E+01 -1.00000E+00  1.52373E-01
      21    -1     0     0   502   512  0.000000000E+00  0.000000000E+00  1.216777101E+03  1.216777101E+03  0.000000000E+00  0.00000E+00  9.000E+00
      21    -1     0     0   501   502  0.000000000E+00  0.000000000E+00 -1.485573870E+03  1.485573870E+03  0.000000000E+00  0.00000E+00  9.000E+00
      25     1     1     2     0     0  8.247709813E+02 -2.284102085E+02 -1.062578866E+03  1.370079283E+03  1.250000000E+02  0.00000E+00  9.000E+00
      25     1     1     2     0     0 -8.204646619E+02  1.980408127E+02  4.088722411E+02  9.461416039E+02  1.250000000E+02  0.00000E+00  9.000E+00
      21     1     1     2   501   512 -4.306319396E+00  3.036939582E+01  3.849098564E+02  3.861300844E+02  5.394796609E-06  0.00000E+00  9.000E+00
#rwgt            1           1   2.7193786586364746E-002          10       92382           0
</event>
<event>
      5   9999  3.19816E-02  3.22857E+01 -1.00000E+00  1.50857E-01
      21    -1     0     0   502   511  0.000000000E+00  0.000000000E+00  1.593525903E+03  1.593525903E+03  0.000000000E+00  0.00000E+00  9.000E+00
      21    -1     0     0   501   502  0.000000000E+00  0.000000000E+00 -5.669235725E+02  5.669235725E+02  0.000000000E+00  0.00000E+00  9.000E+00
      25     1     1     2     0     0  4.362839735E+02  1.017589128E+02 -3.540141626E+02  5.845080060E+02  1.250000000E+02  0.00000E+00  9.000E+00
      25     1     1     2     0     0 -4.471362373E+02 -7.135180237E+01  4.691010113E+02  6.638543916E+02  1.250000000E+02  0.00000E+00  9.000E+00
      21     1     1     2   501   511  1.085226386E+01 -3.040711039E+01  9.115154818E+02  9.120870779E+02  0.000000000E+00  0.00000E+00  9.000E+00
#rwgt            1           1   2.2532322445586946E-002          10       92566           0
</event>
<event>
      5   9999  3.19816E-02  4.88613E+01 -1.00000E+00  1.39649E-01
       1    -1     0     0   502     0  0.000000000E+00  0.000000000E+00  1.025492576E+03  1.025492576E+03  0.000000000E+00  0.00000E+00  9.000E+00
      21    -1     0     0   501   502  0.000000000E+00  0.000000000E+00 -3.963972270E+02  3.963972270E+02  0.000000000E+00  0.00000E+00  9.000E+00
      25     1     1     2     0     0  5.610464864E+01 -1.629650945E+01 -3.350025404E+02  3.623051337E+02  1.250000000E+02  0.00000E+00  9.000E+00
      25     1     1     2     0     0 -9.733317762E+01  4.251922249E+01  9.589214115E+01  1.900050907E+02  1.250000000E+02  0.00000E+00  9.000E+00
       1     1     1     2   501     0  4.122852898E+01 -2.622271304E+01  8.682057486E+02  8.695795790E+02  1.078959322E-05  0.00000E+00  9.000E+00
#rwgt            1           1   3.0691730309193570E-002          10       92746           0
</event>
<event>
      5   9999  3.19816E-02  1.26544E+02 -1.00000E+00  1.19398E-01
       1    -1     0     0   502     0  0.000000000E+00  0.000000000E+00  7.985998846E+02  7.985998846E+02  0.000000000E+00  0.00000E+00  9.000E+00
      21    -1     0     0   501   502  0.000000000E+00  0.000000000E+00 -2.216750337E+02  2.216750337E+02  0.000000000E+00  0.00000E+00  9.000E+00
      25     1     1     2     0     0  2.194927502E+02 -8.800921367E+01 -5.229741948E+01  2.725485446E+02  1.250000000E+02  0.00000E+00  9.000E+00
      25     1     1     2     0     0 -1.504667427E+02 -1.805105368E+01  1.370042887E+02  2.395021009E+02  1.250000000E+02  0.00000E+00  9.000E+00
       1     1     1     2   501     0 -6.902600753E+01  1.060602673E+02  4.922179816E+02  5.082242728E+02  0.000000000E+00  0.00000E+00  9.000E+00
#rwgt            2          17   3.6639661982548440E-004          10       92929           0
</event>
<event>
      5   9999  3.19816E-02  2.48834E+02 -1.00000E+00  1.08300E-01
      21    -1     0     0   502   501  0.000000000E+00  0.000000000E+00  2.353484294E+03  2.353484294E+03  0.000000000E+00  0.00000E+00  9.000E+00
      21    -1     0     0   511   502  0.000000000E+00  0.000000000E+00 -5.662756315E+02  5.662756315E+02  0.000000000E+00  0.00000E+00  9.000E+00
      25     1     1     2     0     0 -2.022480203E+02  4.835797587E+02  1.076311942E+03  1.203671899E+03  1.250000000E+02  0.00000E+00  9.000E+00
      25     1     1     2     0     0  4.391667013E+02 -5.596567857E+02  1.062852052E+03  1.285053537E+03  1.250000000E+02  0.00000E+00  9.000E+00
      21     1     1     2   511   501 -2.369186810E+02  7.607702703E+01 -3.519553314E+02  4.310344890E+02  1.009274029E-05  0.00000E+00  9.000E+00
#rwgt            2          11   6.6725693433845514E-003          10       92993           0
</event>
<event>
      5   9999  3.19816E-02  5.54542E+01 -1.00000E+00  1.36558E-01
      21    -1     0     0   502   501  0.000000000E+00  0.000000000E+00  2.185052683E+03  2.185052683E+03  0.000000000E+00  0.00000E+00  9.000E+00
      21    -1     0     0   501   512  0.000000000E+00  0.000000000E+00 -1.716030143E+02  1.716030143E+02  0.000000000E+00  0.00000E+00  9.000E+00
      25     1     1     2     0     0 -3.036799540E+02 -2.044578203E+02  1.118041744E+03  1.183075169E+03  1.250000000E+02  0.00000E+00  9.000E+00
      25     1     1     2     0     0  3.586851092E+02  2.115008103E+02  9.801859568E+02  1.072276602E+03  1.250000000E+02  0.00000E+00  9.000E+00
      21     1     1     2   502   512 -5.500515522E+01 -7.042990019E+00 -8.477803210E+01  1.013039266E+02  4.862803949E-06  0.00000E+00  9.000E+00
#rwgt            1           1   2.7451474879824064E-002          10       93013           0
</event>
<event>
      5   9999  3.19816E-02  2.09707E+02 -1.00000E+00  1.10904E-01
       2    -1     0     0   502     0  0.000000000E+00  0.000000000E+00  4.969631478E+02  4.969631478E+02  0.000000000E+00  0.00000E+00  9.000E+00
      21    -1     0     0   501   502  0.000000000E+00  0.000000000E+00 -2.224309253E+03  2.224309253E+03  0.000000000E+00  0.00000E+00  9.000E+00
      25     1     1     2     0     0 -3.957589480E+02  9.673079169E+01 -9.967673328E+02  1.084044329E+03  1.250000000E+02  0.00000E+00  9.000E+00
      25     1     1     2     0     0  5.486797661E+02 -2.402306978E+02 -1.073288291E+03  1.235448514E+03  1.250000000E+02  0.00000E+00  9.000E+00
       2     1     1     2   501     0 -1.529208181E+02  1.434999061E+02  3.427095185E+02  4.017795586E+02  1.009274029E-05  0.00000E+00  9.000E+00
#rwgt            2          18   1.3840903964885594E-003          10       93222           0
</event>
<event>
      5   9999  3.19816E-02  1.44231E+02 -1.00000E+00  1.17073E-01
      21    -1     0     0   502   501  0.000000000E+00  0.000000000E+00  5.970672394E+02  5.970672394E+02  0.000000000E+00  0.00000E+00  9.000E+00
      21    -1     0     0   501   511  0.000000000E+00  0.000000000E+00 -1.633029520E+02  1.633029520E+02  0.000000000E+00  0.00000E+00  9.000E+00
      25     1     1     2     0     0 -2.024545356E+02 -1.626164640E+02  2.686312296E+02  3.939793026E+02  1.250000000E+02  0.00000E+00  9.000E+00
      25     1     1     2     0     0  6.597040849E+01  1.159840980E+02  9.236909778E+01  2.048449561E+02  1.250000000E+02  0.00000E+00  9.000E+00
      21     1     1     2   502   511  1.364841271E+02  4.663236594E+01  7.276396009E+01  1.615459328E+02  1.348699152E-06  0.00000E+00  9.000E+00
#rwgt            1           1   2.9845618746526966E-002          10       93271           0
</event>
<event>
      5   9999  3.19816E-02  5.61477E+01 -1.00000E+00  1.36262E-01
      21    -1     0     0   512   501  0.000000000E+00  0.000000000E+00  5.319552528E+01  5.319552528E+01  0.000000000E+00  0.00000E+00  9.000E+00
      21    -1     0     0   501   502  0.000000000E+00  0.000000000E+00 -1.103249403E+03  1.103249403E+03  0.000000000E+00  0.00000E+00  9.000E+00
      25     1     1     2     0     0 -1.332807585E+02  4.806347324E+01 -6.606044228E+02  6.870931971E+02  1.250000000E+02  0.00000E+00  9.000E+00
      25     1     1     2     0     0  1.062484358E+02 -9.727543077E+01 -3.563336384E+02  4.041656855E+02  1.250000000E+02  0.00000E+00  9.000E+00
      21     1     1     2   512   502  2.703232269E+01  4.921195754E+01 -3.311581639E+01  6.518604551E+01  6.743495762E-07  0.00000E+00  9.000E+00
#rwgt            1           1   2.2607780813404390E-002          10       93339           0
</event>
<event>
      5   9999  3.19816E-02  3.60126E+01 -1.00000E+00  1.47726E-01
      21    -1     0     0   502   511  0.000000000E+00  0.000000000E+00  2.600034735E+02  2.600034735E+02  0.000000000E+00  0.00000E+00  9.000E+00
      21    -1     0     0   501   502  0.000000000E+00  0.000000000E+00 -7.211791028E+02  7.211791028E+02  0.000000000E+00  0.00000E+00  9.000E+00
      25     1     1     2     0     0 -1.733393011E+02  1.625304304E+02  1.409485330E+02  3.032394154E+02  1.250000000E+02  0.00000E+00  9.000E+00
      25     1     1     2     0     0  1.683810020E+02 -1.268607991E+02 -5.916991959E+02  6.404519986E+02  1.250000000E+02  0.00000E+00  9.000E+00
      21     1     1     2   501   511  4.958299058E+00 -3.566963133E+01 -1.042496639E+01  3.749116233E+01  4.616955931E-07  0.00000E+00  9.000E+00
#rwgt            1           1   3.3323531384040088E-002          10       93411           0
</event>
<event>
      5   9999  3.19816E-02  1.34041E+02 -1.00000E+00  1.18363E-01
      21    -1     0     0   502   501  0.000000000E+00  0.000000000E+00  4.782089358E+02  4.782089358E+02  0.000000000E+00  0.00000E+00  9.000E+00
      21    -1     0     0   501   512  0.000000000E+00  0.000000000E+00 -2.387511329E+02  2.387511329E+02  0.000000000E+00  0.00000E+00  9.000E+00
      25     1     1     2     0     0 -1.406176051E+02 -1.392048737E+02 -2.790838587E+01  2.357014758E+02  1.250000000E+02  0.00000E+00  9.000E+00
      25     1     1     2     0     0  1.541606341E+01  1.870751451E+02  2.639509163E+02  3.471740934E+02  1.250000000E+02  0.00000E+00  9.000E+00
      21     1     1     2   502   512  1.252015416E+02 -4.787027139E+01  3.415272410E+00  1.340844995E+02  2.318842848E-06  0.00000E+00  9.000E+00
#rwgt            1           1   2.8438303380580090E-002          10       93573           0
</event>
<event>
      5   9999  3.19816E-02  9.31178E+01 -1.00000E+00  1.25237E-01
      21    -1     0     0   502   501  0.000000000E+00  0.000000000E+00  3.327525931E+02  3.327525931E+02  0.000000000E+00  0.00000E+00  9.000E+00
      21    -1     0     0   501   511  0.000000000E+00  0.000000000E+00 -8.509783649E+02  8.509783649E+02  0.000000000E+00  0.00000E+00  9.000E+00
      25     1     1     2     0     0 -2.190641263E+02  3.708157801E+02 -9.912044364E+01  4.592856372E+02  1.250000000E+02  0.00000E+00  9.000E+00
      25     1     1     2     0     0  2.850624928E+02 -3.051261068E+02 -1.868841284E+02  4.742501906E+02  1.250000000E+02  0.00000E+00  9.000E+00
      21     1     1     2   502   511 -6.599836654E+01 -6.568967331E+01 -2.322211997E+02  2.501951302E+02  0.000000000E+00  0.00000E+00  9.000E+00
#rwgt            1           1   3.0243127532848475E-002          10       93605           0
</event>
<event>
      5   9999  3.19816E-02  7.74249E+01 -1.00000E+00  1.29041E-01
      21    -1     0     0   502   501  0.000000000E+00  0.000000000E+00  2.248066585E+02  2.248066585E+02  0.000000000E+00  0.00000E+00  9.000E+00
      21    -1     0     0   501   512  0.000000000E+00  0.000000000E+00 -4.142010603E+02  4.142010603E+02  0.000000000E+00  0.00000E+00  9.000E+00
      25     1     1     2     0     0  2.148557709E+02  6.339076705E+01 -9.618577491E+01  2.739673246E+02  1.250000000E+02  0.00000E+00  9.000E+00
      25     1     1     2     0     0 -1.544002140E+02 -1.117616453E+02  1.898348003E+01  2.287257396E+02  1.250000000E+02  0.00000E+00  9.000E+00
      21     1     1     2   502   512 -6.045555694E+01  4.837087825E+01 -1.121921069E+02  1.363146547E+02  2.336015456E-06  0.00000E+00  9.000E+00
#rwgt            1           1   3.1382444477764018E-002          10       93754           0
</event>
<event>
      5   9999  3.19816E-02  5.73781E+01 -1.00000E+00  1.35749E-01
      21    -1     0     0   502   501  0.000000000E+00  0.000000000E+00  1.044963759E+03  1.044963759E+03  0.000000000E+00  0.00000E+00  9.000E+00
       2    -1     0     0   501     0  0.000000000E+00  0.000000000E+00 -3.011925905E+03  3.011925905E+03  0.000000000E+00  0.00000E+00  9.000E+00
      25     1     1     2     0     0 -2.145840143E+02 -1.242531247E+02 -9.454537737E+01  2.933410414E+02  1.250000000E+02  0.00000E+00  9.000E+00
      25     1     1     2     0     0  2.302022350E+02  6.904151572E+01  9.258634408E+02  9.646802117E+02  1.250000000E+02  0.00000E+00  9.000E+00
       2     1     1     2   502     0 -1.561822068E+01  5.521160895E+01 -2.798280210E+03  2.798868411E+03  5.285799584E-05  0.00000E+00  9.000E+00
#rwgt            1           1   2.9145104999817373E-002          10       93804           0
</event>
<event>
      5   9999  3.19816E-02  1.42506E+02 -1.00000E+00  1.17283E-01
      21    -1     0     0   502   501  0.000000000E+00  0.000000000E+00  3.457563041E+03  3.457563041E+03  0.000000000E+00  0.00000E+00  9.000E+00
      21    -1     0     0   511   502  0.000000000E+00  0.000000000E+00 -7.065069903E+02  7.065069903E+02  0.000000000E+00  0.00000E+00  9.000E+00
      25     1     1     2     0     0  1.300227839E+03 -3.125427528E+01  1.466852026E+03  1.964395360E+03  1.250000000E+02  0.00000E+00  9.000E+00
      25     1     1     2     0     0 -1.428313717E+03  9.372017493E+01  1.407411407E+03  2.011291976E+03  1.250000000E+02  0.00000E+00  9.000E+00
      21     1     1     2   511   501  1.280858778E+02 -6.246589965E+01 -1.232073825E+02  1.883826951E+02  3.568322551E-06  0.00000E+00  9.000E+00
#rwgt            1           1   4.5251797894767208E-002          10       93898           0
</event>
<event>
      5   9999  3.19816E-02  2.48419E+01 -1.00000E+00  1.58958E-01
      21    -1     0     0   502   512  0.000000000E+00  0.000000000E+00  3.324319016E+02  3.324319016E+02  0.000000000E+00  0.00000E+00  9.000E+00
      21    -1     0     0   501   502  0.000000000E+00  0.000000000E+00 -3.621464360E+02  3.621464360E+02  0.000000000E+00  0.00000E+00  9.000E+00
      25     1     1     2     0     0  2.055512916E+02  6.378742877E+01  1.136334836E+02  2.736014220E+02  1.250000000E+02  0.00000E+00  9.000E+00
      25     1     1     2     0     0 -2.288214119E+02 -5.509143528E+01 -2.167335812E+02  3.435007278E+02  1.250000000E+02  0.00000E+00  9.000E+00
      21     1     1     2   501   512  2.327012031E+01 -8.695993487E+00  7.338556319E+01  7.747618787E+01  1.651812370E-06  0.00000E+00  9.000E+00
#rwgt            1           1   2.8941249457048627E-002          10       94042           0
</event>
<event>
      5   9999  3.19816E-02  1.79092E+01 -1.00000E+00  1.70425E-01
      21    -1     0     0   502   501  0.000000000E+00  0.000000000E+00  5.300471082E+02  5.300471082E+02  0.000000000E+00  0.00000E+00  9.000E+00
      21    -1     0     0   511   502  0.000000000E+00  0.000000000E+00 -4.116473224E+02  4.116473224E+02  0.000000000E+00  0.00000E+00  9.000E+00
      25     1     1     2     0     0 -1.731460332E+02 -2.479802937E+02 -1.987617145E+02  3.828903160E+02  1.250000000E+02  0.00000E+00  9.000E+00
      25     1     1     2     0     0  1.873660584E+02  2.588674659E+02  3.690416537E+02  5.039197822E+02  1.250000000E+02  0.00000E+00  9.000E+00
      21     1     1     2   511   501 -1.422002514E+01 -1.088717219E+01 -5.188015336E+01  5.488433243E+01  6.743495762E-07  0.00000E+00  9.000E+00
#rwgt            1           1   2.7605677770439915E-002          10       94238           0
</event>
<event>
      5   9999  3.19816E-02  7.39510E+01 -1.00000E+00  1.30024E-01
      21    -1     0     0   502   501  0.000000000E+00  0.000000000E+00  2.879831517E+02  2.879831517E+02  0.000000000E+00  0.00000E+00  9.000E+00
      21    -1     0     0   512   502  0.000000000E+00  0.000000000E+00 -3.400191720E+02  3.400191720E+02  0.000000000E+00  0.00000E+00  9.000E+00
      25     1     1     2     0     0  1.407171284E+02 -4.202520730E+01  4.466360876E-01  1.928539026E+02  1.250000000E+02  0.00000E+00  9.000E+00
      25     1     1     2     0     0 -1.258869318E+02 -3.042352843E+01  1.405927021E+02  2.283953120E+02  1.250000000E+02  0.00000E+00  9.000E+00
      21     1     1     2   512   501 -1.483019663E+01  7.244873573E+01 -1.930753585E+02  2.067531090E+02  0.000000000E+00  0.00000E+00  9.000E+00
#rwgt            1           1   3.5981227795837990E-002          10       94444           0
</event>
<event>
      5   9999  3.19816E-02  3.91846E+01 -1.00000E+00  1.45397E-01
      21    -1     0     0   502   511  0.000000000E+00  0.000000000E+00  3.650205447E+02  3.650205447E+02  0.000000000E+00  0.00000E+00  9.000E+00
      21    -1     0     0   501   502  0.000000000E+00  0.000000000E+00 -1.297421651E+03  1.297421651E+03  0.000000000E+00  0.00000E+00  9.000E+00
      25     1     1     2     0     0  1.322388596E+02  6.263454003E+01  1.336765544E+02  2.343173549E+02  1.250000000E+02  0.00000E+00  9.000E+00
      25     1     1     2     0     0 -1.142157714E+02 -9.742825446E+01 -1.237223170E+03  1.252550869E+03  1.250000000E+02  0.00000E+00  9.000E+00
      21     1     1     2   501   511 -1.802308822E+01  3.479371443E+01  1.711455092E+02  1.755739719E+02  3.814697266E-06  0.00000E+00  9.000E+00
#rwgt            1           1   2.8958627072134008E-002          10       94510           0
</event>
<event>
      5   9999  3.19816E-02  1.32639E+02 -1.00000E+00  1.18551E-01
       2    -1     0     0   502     0  0.000000000E+00  0.000000000E+00  9.703163908E+02  9.703163908E+02  0.000000000E+00  0.00000E+00  9.000E+00
      21    -1     0     0   501   502  0.000000000E+00  0.000000000E+00 -5.658800989E+02  5.658800989E+02  0.000000000E+00  0.00000E+00  9.000E+00
      25     1     1     2     0     0 -5.684456670E+02 -1.904607962E+02  2.682195143E+02  6.685600190E+02  1.250000000E+02  0.00000E+00  9.000E+00
      25     1     1     2     0     0  6.415156528E+02  3.011575217E+02  1.472571845E+02  7.345392189E+02  1.250000000E+02  0.00000E+00  9.000E+00
       2     1     1     2   501     0 -7.306998585E+01 -1.106967255E+02 -1.104040696E+01  1.330972519E+02  2.357211105E-06  0.00000E+00  9.000E+00
#rwgt            1           1   2.6950366800546306E-002          10       94654           0
</event>
<event>
      5   9999  3.19816E-02  8.82805E+01 -1.00000E+00  1.26313E-01
      21    -1     0     0   502   501  0.000000000E+00  0.000000000E+00  2.263956110E+02  2.263956110E+02  0.000000000E+00  0.00000E+00  9.000E+00
      21    -1     0     0   511   502  0.000000000E+00  0.000000000E+00 -1.457628137E+03  1.457628137E+03  0.000000000E+00  0.00000E+00  9.000E+00
      25     1     1     2     0     0 -7.882952920E+00  3.342910767E+02 -5.386369369E+02  6.461945641E+02  1.250000000E+02  0.00000E+00  9.000E+00
      25     1     1     2     0     0  4.881826970E+01 -2.560750405E+02  4.707055675E+01  2.929134465E+02  1.250000000E+02  0.00000E+00  9.000E+00
      21     1     1     2   511   501 -4.093531678E+01 -7.821603613E+01 -7.396661461E+02  7.449157376E+02  1.078959322E-05  0.00000E+00  9.000E+00
#rwgt            1           1   2.4118156010556644E-002          10       94720           0
</event>
<event>
      5   9999  3.19816E-02  2.20868E+01 -1.00000E+00  1.62889E-01
      21    -1     0     0   502   501  0.000000000E+00  0.000000000E+00  4.446316447E+02  4.446316447E+02  0.000000000E+00  0.00000E+00  9.000E+00
      21    -1     0     0   512   502  0.000000000E+00  0.000000000E+00 -4.873619735E+02  4.873619735E+02  0.000000000E+00  0.00000E+00  9.000E+00
      25     1     1     2     0     0 -3.348507703E+02  4.241478666E+01 -2.554133193E+02  4.413445549E+02  1.250000000E+02  0.00000E+00  9.000E+00
      25     1     1     2     0     0  3.489518445E+02 -2.541513833E+01  2.496264881E+02  4.476066383E+02  1.250000000E+02  0.00000E+00  9.000E+00
      21     1     1     2   512   501 -1.410107422E+01 -1.699964834E+01 -3.694349756E+01  4.304242500E+01  4.768371582E-07  0.00000E+00  9.000E+00
#rwgt            1           1   2.9500441535098773E-002          10       94772           0
</event>
<event>
      5   9999  3.19816E-02  2.06216E+02 -1.00000E+00  1.11166E-01
      21    -1     0     0   511   501  0.000000000E+00  0.000000000E+00  1.016760793E+03  1.016760793E+03  0.000000000E+00  0.00000E+00  9.000E+00
      21    -1     0     0   501   502  0.000000000E+00  0.000000000E+00 -1.897305525E+02  1.897305525E+02  0.000000000E+00  0.00000E+00  9.000E+00
      25     1     1     2     0     0 -5.631755558E+00  1.712413341E+02  1.096695137E+02  2.387628811E+02  1.250000000E+02  0.00000E+00  9.000E+00
      25     1     1     2     0     0  1.368098143E+02 -3.303557823E+02  2.417998819E+02  4.493818544E+02  1.250000000E+02  0.00000E+00  9.000E+00
      21     1     1     2   511   502 -1.311780587E+02  1.591144483E+02  4.755608446E+02  5.183466096E+02  0.000000000E+00  0.00000E+00  9.000E+00
#rwgt            2          11   2.4087345509704282E-003          10       95017           0
</event>
<event>
      5   9999  3.19816E-02  8.05437E+01 -1.00000E+00  1.28207E-01
      21    -1     0     0   502   512  0.000000000E+00  0.000000000E+00  1.585006713E+03  1.585006713E+03  0.000000000E+00  0.00000E+00  9.000E+00
      21    -1     0     0   501   502  0.000000000E+00  0.000000000E+00 -5.588213747E+02  5.588213747E+02  0.000000000E+00  0.00000E+00  9.000E+00
      25     1     1     2     0     0 -5.948817211E+00 -5.368776590E+01 -1.986789357E+01  1.376135816E+02  1.250000000E+02  0.00000E+00  9.000E+00
      25     1     1     2     0     0  8.400869447E+01  7.353583518E+01 -4.643471220E+02  4.936681370E+02  1.250000000E+02  0.00000E+00  9.000E+00
      21     1     1     2   501   512 -7.805987726E+01 -1.984806928E+01  1.510400353E+03  1.512546369E+03  3.051757812E-05  0.00000E+00  9.000E+00
#rwgt            1           1   2.9450673159559376E-002          10       95052           0
</event>
<event>
      5   9999  3.19816E-02  1.36118E+01 -1.00000E+00  1.81451E-01
      21    -1     0     0   502   511  0.000000000E+00  0.000000000E+00  2.755567522E+01  2.755567522E+01  0.000000000E+00  0.00000E+00  9.000E+00
      21    -1     0     0   501   502  0.000000000E+00  0.000000000E+00 -9.774417991E+02  9.774417991E+02  0.000000000E+00  0.00000E+00  9.000E+00
      25     1     1     2     0     0  7.911480745E+01 -9.541722074E+00 -3.249022137E+02  3.571227320E+02  1.250000000E+02  0.00000E+00  9.000E+00
      25     1     1     2     0     0 -7.043446217E+01 -9.431466006E-01 -6.135329212E+02  6.300869372E+02  1.250000000E+02  0.00000E+00  9.000E+00
      21     1     1     2   501   511 -8.680345278E+00  1.048486867E+01 -1.145098901E+01  1.778780522E+01  3.371747881E-07  0.00000E+00  9.000E+00
#rwgt            1           1   6.4788786448648716E-002          10       95150           0
</event>
<event>
      5   9999  3.19816E-02  6.59058E+02 -1.00000E+00  9.55597E-02
      21    -1     0     0   502   501  0.000000000E+00  0.000000000E+00  1.417208522E+03  1.417208522E+03  0.000000000E+00  0.00000E+00  9.000E+00
      21    -1     0     0   512   502  0.000000000E+00  0.000000000E+00 -4.486402073E+02  4.486402073E+02  0.000000000E+00  0.00000E+00  9.000E+00
      25     1     1     2     0     0 -2.277609790E+02  2.118413090E+02  3.427992736E+02  4.794665220E+02  1.250000000E+02  0.00000E+00  9.000E+00
      25     1     1     2     0     0  3.296292573E+02  4.392964428E+02  3.955389497E+02  6.882680238E+02  1.250000000E+02  0.00000E+00  9.000E+00
      21     1     1     2   512   501 -1.018682783E+02 -6.511377518E+02  2.302300912E+02  6.981141832E+02  1.112165812E-05  0.00000E+00  9.000E+00
#rwgt            2          11   2.0259049636975573E-003          10       95347           0
</event>
<event>
      5   9999  3.19816E-02  1.88419E+02 -1.00000E+00  1.12599E-01
      21    -1     0     0   502   501  0.000000000E+00  0.000000000E+00  2.506961892E+02  2.506961892E+02  0.000000000E+00  0.00000E+00  9.000E+00
       1    -1     0     0   501     0  0.000000000E+00  0.000000000E+00 -2.300631241E+03  2.300631241E+03  0.000000000E+00  0.00000E+00  9.000E+00
      25     1     1     2     0     0 -2.100215597E+02  3.065866365E+02 -4.719671742E+02  6.135816447E+02  1.250000000E+02  0.00000E+00  9.000E+00
      25     1     1     2     0     0  2.109374726E+02 -4.950031610E+02 -2.674284682E+02  6.137309935E+02  1.250000000E+02  0.00000E+00  9.000E+00
       1     1     1     2   502     0 -9.159129621E-01  1.884165245E+02 -1.310539410E+03  1.324014792E+03  1.525878906E-05  0.00000E+00  9.000E+00
#rwgt            1           1   2.9466899526454943E-002          10       95367           0
</event>
<event>
      5   9999  3.19816E-02  1.32845E+02 -1.00000E+00  1.18523E-01
      21    -1     0     0   502   501  0.000000000E+00  0.000000000E+00  8.181214627E+02  8.181214627E+02  0.000000000E+00  0.00000E+00  9.000E+00
       2    -1     0     0   501     0  0.000000000E+00  0.000000000E+00 -1.684462329E+03  1.684462329E+03  0.000000000E+00  0.00000E+00  9.000E+00
      25     1     1     2     0     0 -1.665681297E+02 -5.533436281E+02 -7.270599020E+02  9.371100329E+02  1.250000000E+02  0.00000E+00  9.000E+00
      25     1     1     2     0     0  7.188190597E+01  6.465224144E+02  5.515603799E+02  8.619756919E+02  1.250000000E+02  0.00000E+00  9.000E+00
       2     1     1     2   502     0  9.468622378E+01 -9.317878624E+01 -6.908413443E+02  7.034980670E+02  0.000000000E+00  0.00000E+00  9.000E+00
#rwgt            1           1   2.6654218131815090E-002          10       95410           0
</event>
<event>
      5   9999  3.19816E-02  7.49637E+00 -1.00000E+00  2.11433E-01
      21    -1     0     0   502   511  0.000000000E+00  0.000000000E+00  9.929615786E+01  9.929615786E+01  0.000000000E+00  0.00000E+00  9.000E+00
      21    -1     0     0   501   502  0.000000000E+00  0.000000000E+00 -5.293141714E+02  5.293141714E+02  0.000000000E+00  0.00000E+00  9.000E+00
      25     1     1     2     0     0  1.533859248E+02 -6.426881178E+01 -1.159517386E+02  2.381754139E+02  1.250000000E+02  0.00000E+00  9.000E+00
      25     1     1     2     0     0 -1.512727416E+02  7.146116998E+01 -3.191282367E+02  3.813895288E+02  1.250000000E+02  0.00000E+00  9.000E+00
      21     1     1     2   501   511 -2.113183210E+00 -7.192358203E+00  5.061961857E+00  9.045386539E+00  2.308477966E-07  0.00000E+00  9.000E+00
#rwgt            1           1   2.9219983973197573E-002          10       95528           0
</event>
<event>
      5   9999  3.19816E-02  5.35694E+02 -1.00000E+00  9.80086E-02
      21    -1     0     0   502   512  0.000000000E+00  0.000000000E+00  1.988965031E+03  1.988965031E+03  0.000000000E+00  0.00000E+00  9.000E+00
      21    -1     0     0   501   502  0.000000000E+00  0.000000000E+00 -6.795008439E+02  6.795008439E+02  0.000000000E+00  0.00000E+00  9.000E+00
      25     1     1     2     0     0  5.312101901E+01  3.431999020E+02 -3.427651773E+02  5.037072386E+02  1.250000000E+02  0.00000E+00  9.000E+00
      25     1     1     2     0     0  2.573483510E+02 -7.797508934E+02  7.698025429E+02  1.132457763E+03  1.250000000E+02  0.00000E+00  9.000E+00
      21     1     1     2   501   512 -3.104693701E+02  4.365509914E+02  8.824268213E+02  1.032300873E+03  1.525878906E-05  0.00000E+00  9.000E+00
#rwgt            1           1   3.1563410407647680E-002          10       95796           0
</event>
<event>
      5   9999  3.19816E-02  1.82626E+02 -1.00000E+00  1.13104E-01
      21    -1     0     0   511   501  0.000000000E+00  0.000000000E+00  6.864599611E+02  6.864599611E+02  0.000000000E+00  0.00000E+00  9.000E+00
      21    -1     0     0   501   502  0.000000000E+00  0.000000000E+00 -1.836264485E+02  1.836264485E+02  0.000000000E+00  0.00000E+00  9.000E+00
      25     1     1     2     0     0 -4.420189246E+01  5.905404710E+00  7.978344394E+01  1.548517970E+02  1.250000000E+02  0.00000E+00  9.000E+00
      25     1     1     2     0     0  2.268275729E+02 -5.793790250E+00  5.075618523E+00  2.591043761E+02  1.250000000E+02  0.00000E+00  9.000E+00
      21     1     1     2   511   502 -1.826256804E+02 -1.116144602E-01  4.179744502E+02  4.561302365E+02  5.394796609E-06  0.00000E+00  9.000E+00
#rwgt            1           1   2.3856593132894267E-002          10       95848           0
</event>
<event>
      5   9999  3.19816E-02  1.19573E+02 -1.00000E+00  1.20434E-01
      21    -1     0     0   502   501  0.000000000E+00  0.000000000E+00  1.915298149E+02  1.915298149E+02  0.000000000E+00  0.00000E+00  9.000E+00
      21    -1     0     0   501   512  0.000000000E+00  0.000000000E+00 -1.158378070E+03  1.158378070E+03  0.000000000E+00  0.00000E+00  9.000E+00
      25     1     1     2     0     0  1.752099814E+02 -2.846485071E+02 -1.634971347E+02  3.925297737E+02  1.250000000E+02  0.00000E+00  9.000E+00
      25     1     1     2     0     0 -9.142276191E+01  3.699567388E+02 -6.278256186E+02  7.449940385E+02  1.250000000E+02  0.00000E+00  9.000E+00
      21     1     1     2   502   512 -8.378721948E+01 -8.530823164E+01 -1.755255017E+02  2.123840726E+02  2.697398305E-06  0.00000E+00  9.000E+00
#rwgt            1           1   2.6509762358221462E-002          10       95904           0
</event>
<event>
      5   9999  3.19816E-02  1.01195E+02 -1.00000E+00  1.23596E-01
      21    -1     0     0   502   501  0.000000000E+00  0.000000000E+00  3.517649722E+02  3.517649722E+02  0.000000000E+00  0.00000E+00  9.000E+00
      21    -1     0     0   501   511  0.000000000E+00  0.000000000E+00 -5.775652741E+02  5.775652741E+02  0.000000000E+00  0.00000E+00  9.000E+00
      25     1     1     2     0     0  1.909365462E+02  2.212995820E+02  1.654214207E+02  3.583566883E+02  1.250000000E+02  0.00000E+00  9.000E+00
      25     1     1     2     0     0 -2.314009285E+02 -1.285471508E+02 -3.621815370E+02  4.656943477E+02  1.250000000E+02  0.00000E+00  9.000E+00
      21     1     1     2   502   511  4.046438235E+01 -9.275243123E+01 -2.904018559E+01  1.052792103E+02  1.215700987E-06  0.00000E+00  9.000E+00
#rwgt            1           1   2.6537567654235365E-002          10       95989           0
</event>
<event>
      5   9999  3.19816E-02  5.05845E+01 -1.00000E+00  1.38788E-01
      21    -1     0     0   502   501  0.000000000E+00  0.000000000E+00  2.955872871E+02  2.955872871E+02  0.000000000E+00  0.00000E+00  9.000E+00
      21    -1     0     0   512   502  0.000000000E+00  0.000000000E+00 -8.116465011E+02  8.116465011E+02  0.000000000E+00  0.00000E+00  9.000E+00
      25     1     1     2     0     0  2.016400630E+02 -1.161852923E+02 -4.660266799E+02  5.356898390E+02  1.250000000E+02  0.00000E+00  9.000E+00
      25     1     1     2     0     0 -2.102635937E+02  6.634122755E+01  1.959812409E+02  3.203834954E+02  1.250000000E+02  0.00000E+00  9.000E+00
      21     1     1     2   512   501  8.623530666E+00  4.984406470E+01 -2.460137750E+02  2.511604538E+02  2.697398305E-06  0.00000E+00  9.000E+00
#rwgt            1           1   2.5952009805834505E-002          10       96043           0
</event>
<event>
      5   9999  3.19816E-02  6.12549E+01 -1.00000E+00  1.34225E-01
      21    -1     0     0   502   501  0.000000000E+00  0.000000000E+00  1.343914524E+03  1.343914524E+03  0.000000000E+00  0.00000E+00  9.000E+00
      21    -1     0     0   501   511  0.000000000E+00  0.000000000E+00 -9.891478301E+01  9.891478301E+01  0.000000000E+00  0.00000E+00  9.000E+00
      25     1     1     2     0     0  5.475829610E+01  1.620431164E+02  1.157668793E+03  1.176893571E+03  1.250000000E+02  0.00000E+00  9.000E+00
      25     1     1     2     0     0 -5.938219103E+00 -1.250462925E+02  1.002412962E+02  2.033350810E+02  1.250000000E+02  0.00000E+00  9.000E+00
      21     1     1     2   502   511 -4.882007699E+01 -3.699682399E+01 -1.291034853E+01  6.260065497E+01  8.085167388E-07  0.00000E+00  9.000E+00
#rwgt            1           1   3.0001721796431756E-002          10       96112           0
</event>
<event>
      5   9999  3.19816E-02  1.22585E+01 -1.00000E+00  1.86060E-01
      21    -1     0     0   502   501  0.000000000E+00  0.000000000E+00  2.666703645E+02  2.666703645E+02  0.000000000E+00  0.00000E+00  9.000E+00
      21    -1     0     0   512   502  0.000000000E+00  0.000000000E+00 -7.791261829E+02  7.791261829E+02  0.000000000E+00  0.00000E+00  9.000E+00
      25     1     1     2     0     0 -3.348971714E+02  2.679840268E+02 -1.877188924E+02  4.845977060E+02  1.250000000E+02  0.00000E+00  9.000E+00
      25     1     1     2     0     0  3.292614730E+02 -2.570977999E+02 -2.882550747E+02  5.227125256E+02  1.250000000E+02  0.00000E+00  9.000E+00
      21     1     1     2   512   501  5.635698386E+00 -1.088622692E+01 -3.648185123E+01  3.848631578E+01  6.743495762E-07  0.00000E+00  9.000E+00
#rwgt            1           1   2.8463656934833041E-002          10       96215           0
</event>
<event>
      5   9999  3.19816E-02  2.89699E+01 -1.00000E+00  1.54101E-01
      21    -1     0     0   502   511  0.000000000E+00  0.000000000E+00  3.254933077E+01  3.254933077E+01  0.000000000E+00  0.00000E+00  9.000E+00
      21    -1     0     0   501   502  0.000000000E+00  0.000000000E+00 -1.452595110E+03  1.452595110E+03  0.000000000E+00  0.00000E+00  9.000E+00
      25     1     1     2     0     0  2.115243723E+01  1.296227155E+02 -1.026861741E+03  1.042746139E+03  1.250000000E+02  0.00000E+00  9.000E+00
      25     1     1     2     0     0  5.493208046E+00 -1.182531505E+02 -3.142888024E+02  3.583523883E+02  1.250000000E+02  0.00000E+00  9.000E+00
      21     1     1     2   501   511 -2.664564528E+01 -1.136956507E+01 -7.889523542E+01  8.404591361E+01  0.000000000E+00  0.00000E+00  9.000E+00
#rwgt            1           1   3.6374247189676065E-002          10       96412           0
</event>
<event>
      5   9999  3.19816E-02  1.94058E+02 -1.00000E+00  1.12127E-01
      21    -1     0     0   502   501  0.000000000E+00  0.000000000E+00  1.428597350E+02  1.428597350E+02  0.000000000E+00  0.00000E+00  9.000E+00
       2    -1     0     0   501     0  0.000000000E+00  0.000000000E+00 -3.965551465E+03  3.965551465E+03  0.000000000E+00  0.00000E+00  9.000E+00
      25     1     1     2     0     0 -1.729840480E+02 -8.518846789E+01 -8.628544810E+01  2.454602503E+02  1.250000000E+02  0.00000E+00  9.000E+00
      25     1     1     2     0     0 -2.107109651E+01  8.405379656E+01 -3.450086317E+01  1.559626282E+02  1.250000000E+02  0.00000E+00  9.000E+00
       2     1     1     2   502     0  1.940551445E+02  1.134671332E+00 -3.701905419E+03  3.706988321E+03  4.315837288E-05  0.00000E+00  9.000E+00
#rwgt            1           1   2.7258994195572744E-002          10       96522           0
</event>
<event>
      5   9999  3.19816E-02  1.23277E+02 -1.00000E+00  1.19874E-01
      21    -1     0     0   502   501  0.000000000E+00  0.000000000E+00  8.544936388E+02  8.544936388E+02  0.000000000E+00  0.00000E+00  9.000E+00
      21    -1     0     0   511   502  0.000000000E+00  0.000000000E+00 -1.306891678E+03  1.306891678E+03  0.000000000E+00  0.00000E+00  9.000E+00
      25     1     1     2     0     0  4.504132437E+02  4.929153600E+02 -3.950828185E+01  6.804583357E+02  1.250000000E+02  0.00000E+00  9.000E+00
      25     1     1     2     0     0 -5.625507847E+02 -4.417054566E+02  2.792247067E+02  7.779193612E+02  1.250000000E+02  0.00000E+00  9.000E+00
      21     1     1     2   511   501  1.121375409E+02 -5.120990340E+01 -6.921144642E+02  7.030076200E+02  1.078959322E-05  0.00000E+00  9.000E+00
#rwgt            1           1   3.1334894510275886E-002          10       96582           0
</event>
<event>
      5   9999  3.19816E-02  1.41884E+02 -1.00000E+00  1.17359E-01
      21    -1     0     0   502   512  0.000000000E+00  0.000000000E+00  4.319691321E+02  4.319691321E+02  0.000000000E+00  0.00000E+00  9.000E+00
      21    -1     0     0   501   502  0.000000000E+00  0.000000000E+00 -1.028038586E+03  1.028038586E+03  0.000000000E+00  0.00000E+00  9.000E+00
      25     1     1     2     0     0  4.958074497E+01 -6.440039502E+02 -2.406698233E+02  7.005328701E+02  1.250000000E+02  0.00000E+00  9.000E+00
      25     1     1     2     0     0  6.280503301E+00  5.135792687E+02 -2.940938783E+02  6.049126542E+02  1.250000000E+02  0.00000E+00  9.000E+00
      21     1     1     2   501   512 -5.586124827E+01  1.304246815E+02 -6.130575272E+01  1.545621944E+02  2.611744678E-06  0.00000E+00  9.000E+00
#rwgt            1           1   2.8522763809417741E-002          10       96655           0
</event>
<event>
      5   9999  3.19816E-02  2.62017E+02 -1.00000E+00  1.07538E-01
      21    -1     0     0   502   501  0.000000000E+00  0.000000000E+00  2.274758401E+02  2.274758401E+02  0.000000000E+00  0.00000E+00  9.000E+00
       2    -1     0     0   501     0  0.000000000E+00  0.000000000E+00 -1.261778887E+03  1.261778887E+03  0.000000000E+00  0.00000E+00  9.000E+00
      25     1     1     2     0     0 -2.019518028E+01 -5.576080428E+01 -1.113363335E+02  1.775891094E+02  1.250000000E+02  0.00000E+00  9.000E+00
      25     1     1     2     0     0 -1.771194738E+02 -1.166340670E+02  9.247307337E+01  2.629659348E+02  1.250000000E+02  0.00000E+00  9.000E+00
       2     1     1     2   502     0  1.973146540E+02  1.723948713E+02 -1.015439786E+03  1.048699683E+03  0.000000000E+00  0.00000E+00  9.000E+00
#rwgt            1           1   3.3059399710784775E-002          10       96737           0
</event>
<event>
      5   9999  3.19816E-02  2.97692E+01 -1.00000E+00  1.53273E-01
      21    -1     0     0   502   511  0.000000000E+00  0.000000000E+00  2.532944896E+02  2.532944896E+02  0.000000000E+00  0.00000E+00  9.000E+00
      21    -1     0     0   501   502  0.000000000E+00  0.000000000E+00 -1.496172946E+03  1.496172946E+03  0.000000000E+00  0.00000E+00  9.000E+00
      25     1     1     2     0     0 -1.500898195E+02  4.343266634E+02 -1.036867338E+02  4.873833637E+02  1.250000000E+02  0.00000E+00  9.000E+00
      25     1     1     2     0     0  1.768007396E+02 -4.474693942E+02 -1.123208615E+03  1.228295548E+03  1.250000000E+02  0.00000E+00  9.000E+00
      21     1     1     2   501   511 -2.671092009E+01  1.314273080E+01 -1.598310777E+01  3.378852408E+01  6.307962682E-07  0.00000E+00  9.000E+00
#rwgt            1           1   2.6873386741418148E-002          10       96781           0
</event>
<event>
      5   9999  3.19816E-02  2.41925E+01 -1.00000E+00  1.59826E-01
      21    -1     0     0   512   501  0.000000000E+00  0.000000000E+00  9.928227958E+02  9.928227958E+02  0.000000000E+00  0.00000E+00  9.000E+00
      21    -1     0     0   501   502  0.000000000E+00  0.000000000E+00 -2.175828419E+02  2.175828419E+02  0.000000000E+00  0.00000E+00  9.000E+00
      25     1     1     2     0     0 -3.316454249E+02  2.279470483E+02  6.353069402E+02  7.623571689E+02  1.250000000E+02  0.00000E+00  9.000E+00
      25     1     1     2     0     0  3.100063057E+02 -2.171292061E+02  1.187786093E+02  4.159114807E+02  1.250000000E+02  0.00000E+00  9.000E+00
      21     1     1     2   512   502  2.163911917E+01 -1.081784213E+01  2.115440439E+01  3.213698822E+01  4.768371582E-07  0.00000E+00  9.000E+00
#rwgt            1           1   2.5079403163246992E-002          10       96966           0
</event>
<event>
      5   9999  3.19816E-02  4.04789E+01 -1.00000E+00  1.44520E-01
      21    -1     0     0   502   501  0.000000000E+00  0.000000000E+00  1.204281613E+03  1.204281613E+03  0.000000000E+00  0.00000E+00  9.000E+00
      21    -1     0     0   501   511  0.000000000E+00  0.000000000E+00 -6.090756601E+01  6.090756601E+01  0.000000000E+00  0.00000E+00  9.000E+00
      25     1     1     2     0     0 -1.320636764E+02  1.617295299E+02  6.049715361E+02  6.520834417E+02  1.250000000E+02  0.00000E+00  9.000E+00
      25     1     1     2     0     0  1.590166083E+02 -1.315288692E+02  5.083204211E+02  5.626728851E+02  1.250000000E+02  0.00000E+00  9.000E+00
      21     1     1     2   502   511 -2.695293192E+01 -3.020066076E+01  3.008208970E+01  5.043285209E+01  6.743495762E-07  0.00000E+00  9.000E+00
#rwgt            1           1   2.4637177606184033E-002          10       97121           0
</event>
<event>
      5   9999  3.19816E-02  1.21254E+01 -1.00000E+00  1.86555E-01
      21    -1     0     0   512   501  0.000000000E+00  0.000000000E+00  2.603368719E+02  2.603368719E+02  0.000000000E+00  0.00000E+00  9.000E+00
      21    -1     0     0   501   502  0.000000000E+00  0.000000000E+00 -1.420340709E+03  1.420340709E+03  0.000000000E+00  0.00000E+00  9.000E+00
      25     1     1     2     0     0 -3.767480043E+02  1.697420002E+02 -1.150464492E+03  1.228798174E+03  1.250000000E+02  0.00000E+00  9.000E+00
      25     1     1     2     0     0  3.873361603E+02 -1.638330730E+02 -1.398165710E+01  4.389659026E+02  1.250000000E+02  0.00000E+00  9.000E+00
      21     1     1     2   512   502 -1.058815599E+01 -5.908927174E+00  4.442311584E+00  1.291350455E+01  1.788139343E-07  0.00000E+00  9.000E+00
#rwgt            1           1   3.0422921169844085E-002          10       97225           0
</event>
<event>
      5   9999  3.19816E-02  1.42427E+02 -1.00000E+00  1.17292E-01
      21    -1     0     0   502   501  0.000000000E+00  0.000000000E+00  1.240343947E+02  1.240343947E+02  0.000000000E+00  0.00000E+00  9.000E+00
      21    -1     0     0   511   502  0.000000000E+00  0.000000000E+00 -1.145454118E+03  1.145454118E+03  0.000000000E+00  0.00000E+00  9.000E+00
      25     1     1     2     0     0  9.142267272E+01 -2.704906315E+01  3.460675429E+01  1.609732411E+02  1.250000000E+02  0.00000E+00  9.000E+00
      25     1     1     2     0     0 -8.973955768E+01 -1.153676204E+02 -5.414607929E+02  5.746021809E+02  1.250000000E+02  0.00000E+00  9.000E+00
      21     1     1     2   511   501 -1.683115042E+00  1.424166836E+02 -5.145656852E+02  5.339130912E+02  0.000000000E+00  0.00000E+00  9.000E+00
#rwgt            1           1   2.8751904515385195E-002          10       97495           0
</event>
<event>
      5   9999  3.19816E-02  5.21556E+01 -1.00000E+00  1.38038E-01
      21    -1     0     0   502   501  0.000000000E+00  0.000000000E+00  6.324969896E+02  6.324969896E+02  0.000000000E+00  0.00000E+00  9.000E+00
      21    -1     0     0   501   512  0.000000000E+00  0.000000000E+00 -4.348135213E+02  4.348135213E+02  0.000000000E+00  0.00000E+00  9.000E+00
      25     1     1     2     0     0  3.090538107E+02 -3.910794142E+02  1.486163519E+02  5.349478350E+02  1.250000000E+02  0.00000E+00  9.000E+00
      25     1     1     2     0     0 -2.583176592E+02  3.789943335E+02  5.975084751E+01  4.791240775E+02  1.250000000E+02  0.00000E+00  9.000E+00
      21     1     1     2   502   512 -5.073615152E+01  1.208508075E+01 -1.068373104E+01  5.323859838E+01  9.078709013E-07  0.00000E+00  9.000E+00
#rwgt            1           1   2.3843721648395683E-002          10       97551           0
</event>
<event>
      5   9999  3.19816E-02  1.23069E+02 -1.00000E+00  1.19905E-01
       2    -1     0     0   502     0  0.000000000E+00  0.000000000E+00  6.378787599E+02  6.378787599E+02  0.000000000E+00  0.00000E+00  9.000E+00
      21    -1     0     0   501   502  0.000000000E+00  0.000000000E+00 -5.678030799E+02  5.678030799E+02  0.000000000E+00  0.00000E+00  9.000E+00
      25     1     1     2     0     0  4.853765776E+02 -2.769495365E+02 -1.150817694E+02  5.840892752E+02  1.250000000E+02  0.00000E+00  9.000E+00
      25     1     1     2     0     0 -4.182158801E+02  1.738214755E+02  1.365720486E+02  4.892804432E+02  1.250000000E+02  0.00000E+00  9.000E+00
       2     1     1     2   501     0 -6.716069751E+01  1.031280610E+02  4.858540076E+01  1.323121212E+02  1.784161275E-06  0.00000E+00  9.000E+00
#rwgt            1           1   3.0536489125825701E-002          10       97689           0
</event>
<event>
      5   9999  3.19816E-02  1.48608E+02 -1.00000E+00  1.16554E-01
       5    -1     0     0   502     0  0.000000000E+00  0.000000000E+00  5.884459218E+02  5.884459218E+02  0.000000000E+00  0.00000E+00  9.000E+00
      21    -1     0     0   501   502  0.000000000E+00  0.000000000E+00 -3.693614734E+02  3.693614734E+02  0.000000000E+00  0.00000E+00  9.000E+00
      25     1     1     2     0     0 -6.128186285E+01  7.273360291E+01 -3.108962651E+02  3.483204435E+02  1.250000000E+02  0.00000E+00  9.000E+00
      25     1     1     2     0     0  4.446934404E+01  7.492023766E+01  2.652367404E+02  3.058857516E+02  1.250000000E+02  0.00000E+00  9.000E+00
       5     1     1     2   501     0  1.681251881E+01 -1.476538406E+02  2.647439732E+02  3.036012002E+02  6.607249480E-06  0.00000E+00  9.000E+00
#rwgt            1           1   2.7405917034266199E-002          10       97792           0
</event>
<event>
      5   9999  3.19816E-02  4.75792E+01 -1.00000E+00  1.40317E-01
      21    -1     0     0   502   501  0.000000000E+00  0.000000000E+00  1.312075530E+02  1.312075530E+02  0.000000000E+00  0.00000E+00  9.000E+00
      21    -1     0     0   511   502  0.000000000E+00  0.000000000E+00 -5.328741906E+02  5.328741906E+02  0.000000000E+00  0.00000E+00  9.000E+00
      25     1     1     2     0     0 -1.035019743E+02 -1.527645635E+02 -1.792391891E+02  2.860093660E+02  1.250000000E+02  0.00000E+00  9.000E+00
      25     1     1     2     0     0  8.093633380E+01  1.108769826E+02 -4.049894650E+01  1.900251564E+02  1.250000000E+02  0.00000E+00  9.000E+00
      21     1     1     2   511   501  2.256564049E+01  4.188758094E+01 -1.819285020E+02  1.880472212E+02  2.697398305E-06  0.00000E+00  9.000E+00
#rwgt            1           1   2.4134405965340593E-002          10       97897           0
</event>
<event>
      5   9999  3.19816E-02  1.21261E+01 -1.00000E+00  1.86552E-01
      21    -1     0     0   502   501  0.000000000E+00  0.000000000E+00  3.973828116E+02  3.973828116E+02  0.000000000E+00  0.00000E+00  9.000E+00
      21    -1     0     0   501   512  0.000000000E+00  0.000000000E+00 -1.633695166E+03  1.633695166E+03  0.000000000E+00  0.00000E+00  9.000E+00
      25     1     1     2     0     0  1.174193707E+01  2.238518456E+02  2.928665555E+02  3.894140998E+02  1.250000000E+02  0.00000E+00  9.000E+00
      25     1     1     2     0     0 -1.009411094E+01 -2.118382769E+02 -2.132990738E+02  3.257281712E+02  1.250000000E+02  0.00000E+00  9.000E+00
      21     1     1     2   502   512 -1.647826129E+00 -1.201356873E+01 -1.315879836E+03  1.315935707E+03  1.525878906E-05  0.00000E+00  9.000E+00
#rwgt            1           1   2.7372815014602415E-002          10       98013           0
</event>
<event>
      5   9999  3.19816E-02  1.25632E+02 -1.00000E+00  1.19529E-01
      21    -1     0     0   502   501  0.000000000E+00  0.000000000E+00  1.787760884E+02  1.787760884E+02  0.000000000E+00  0.00000E+00  9.000E+00
      21    -1     0     0   511   502  0.000000000E+00  0.000000000E+00 -9.243389241E+02  9.243389241E+02  0.000000000E+00  0.00000E+00  9.000E+00
      25     1     1     2     0     0 -1.214724299E+02 -2.412893851E+02 -2.384292873E+01  2.986127992E+02  1.250000000E+02  0.00000E+00  9.000E+00
      25     1     1     2     0     0  1.588519901E+01  1.732102354E+02 -5.610439113E+02  6.005409192E+02  1.250000000E+02  0.00000E+00  9.000E+00
      21     1     1     2   511   501  1.055872309E+02  6.807914970E+01 -1.606759956E+02  2.039612942E+02  2.697398305E-06  0.00000E+00  9.000E+00
#rwgt            1           1   2.6239741626381444E-002          10       98319           0
</event>
<event>
      5   9999  3.19816E-02  3.23886E+01 -1.00000E+00  1.50764E-01
      21    -1     0     0   502   512  0.000000000E+00  0.000000000E+00  1.607047404E+03  1.607047404E+03  0.000000000E+00  0.00000E+00  9.000E+00
      21    -1     0     0   501   502  0.000000000E+00  0.000000000E+00 -2.754376313E+02  2.754376313E+02  0.000000000E+00  0.00000E+00  9.000E+00
      25     1     1     2     0     0 -1.646282064E+02  1.836594482E+02  2.322269537E+02  3.610922282E+02  1.250000000E+02  0.00000E+00  9.000E+00
      25     1     1     2     0     0  1.876414647E+02 -1.608688726E+02 -1.198070278E+02  3.017728241E+02  1.250000000E+02  0.00000E+00  9.000E+00
      21     1     1     2   501   512 -2.301325835E+01 -2.279057564E+01  1.219189847E+03  1.219619983E+03  0.000000000E+00  0.00000E+00  9.000E+00
#rwgt            1           1   3.0410303751137374E-002          10       98405           0
</event>
<event>
      5   9999  3.19816E-02  1.40728E+01 -1.00000E+00  1.80035E-01
      21    -1     0     0   502   501  0.000000000E+00  0.000000000E+00  6.221544203E+02  6.221544203E+02  0.000000000E+00  0.00000E+00  9.000E+00
      21    -1     0     0   501   511  0.000000000E+00  0.000000000E+00 -2.251366182E+02  2.251366182E+02  0.000000000E+00  0.00000E+00  9.000E+00
      25     1     1     2     0     0 -6.149165616E+01 -2.241662919E+02 -1.077389287E+01  2.641454656E+02  1.250000000E+02  0.00000E+00  9.000E+00
      25     1     1     2     0     0  5.883450735E+01  2.103466631E+02  4.625659899E+02  5.265923593E+02  1.250000000E+02  0.00000E+00  9.000E+00
      21     1     1     2   502   511  2.657148808E+00  1.381962887E+01 -5.477429490E+01  5.655321355E+01  1.168007728E-06  0.00000E+00  9.000E+00
#rwgt            1           1   2.7594354461994472E-002          10       98549           0
</event>
<event>
      5   9999  3.19816E-02  2.50407E+01 -1.00000E+00  1.58698E-01
      21    -1     0     0   502   501  0.000000000E+00  0.000000000E+00  2.984096659E+02  2.984096659E+02  0.000000000E+00  0.00000E+00  9.000E+00
       2    -1     0     0   501     0  0.000000000E+00  0.000000000E+00 -4.003128267E+02  4.003128267E+02  0.000000000E+00  0.00000E+00  9.000E+00
      25     1     1     2     0     0  2.444800853E+01 -9.276810962E+01  2.372781832E+02  2.848325184E+02  1.250000000E+02  0.00000E+00  9.000E+00
      25     1     1     2     0     0 -3.571928263E+01  1.151287049E+02 -1.705113310E+02  2.433713209E+02  1.250000000E+02  0.00000E+00  9.000E+00
       2     1     1     2   502     0  1.127127410E+01 -2.236059531E+01 -1.686700131E+02  1.705186534E+02  2.697398305E-06  0.00000E+00  9.000E+00
#rwgt            1           1   2.5756840711764099E-002          10       98753           0
</event>
<event>
      5   9999  3.19816E-02  6.94177E+01 -1.00000E+00  1.31405E-01
      21    -1     0     0   502   511  0.000000000E+00  0.000000000E+00  1.099904251E+02  1.099904251E+02  0.000000000E+00  0.00000E+00  9.000E+00
      21    -1     0     0   501   502  0.000000000E+00  0.000000000E+00 -3.538642766E+03  3.538642766E+03  0.000000000E+00  0.00000E+00  9.000E+00
      25     1     1     2     0     0  6.498213386E+01  1.823979544E+02 -3.907382072E+01  2.337593954E+02  1.250000000E+02  0.00000E+00  9.000E+00
      25     1     1     2     0     0 -2.303400402E+01 -2.377077888E+02 -3.225116201E+03  3.236361393E+03  1.250000000E+02  0.00000E+00  9.000E+00
      21     1     1     2   501   511 -4.194812984E+01  5.530983441E+01 -1.644623190E+02  1.785124023E+02  2.697398305E-06  0.00000E+00  9.000E+00
#rwgt            1           1   3.5789355571509564E-002          10       98880           0
</event>
<event>
      5   9999  3.19816E-02  2.80110E+02 -1.00000E+00  1.06569E-01
      21    -1     0     0   502   512  0.000000000E+00  0.000000000E+00  3.037018389E+02  3.037018389E+02  0.000000000E+00  0.00000E+00  9.000E+00
      21    -1     0     0   501   502  0.000000000E+00  0.000000000E+00 -5.984967579E+02  5.984967579E+02  0.000000000E+00  0.00000E+00  9.000E+00
      25     1     1     2     0     0  9.115273265E+01  1.269649617E+02  9.481142852E+01  2.214568336E+02  1.250000000E+02  0.00000E+00  9.000E+00
      25     1     1     2     0     0  8.070955118E+01  9.422508782E+01 -3.578454295E+02  3.988367464E+02  1.250000000E+02  0.00000E+00  9.000E+00
      21     1     1     2   501   512 -1.718622838E+02 -2.211900495E+02 -3.176091802E+01  2.819050168E+02  1.305872339E-06  0.00000E+00  9.000E+00
#rwgt            1           1   2.6777307411743612E-002          10       99007           0
</event>
<event>
      5   9999  3.19816E-02  9.20617E+01 -1.00000E+00  1.25465E-01
      21    -1     0     0   502   501  0.000000000E+00  0.000000000E+00  9.281791673E+01  9.281791673E+01  0.000000000E+00  0.00000E+00  9.000E+00
      21    -1     0     0   501   511  0.000000000E+00  0.000000000E+00 -7.266464613E+02  7.266464613E+02  0.000000000E+00  0.00000E+00  9.000E+00
      25     1     1     2     0     0  1.662538753E+02 -1.318933318E+02 -2.455293695E+02  3.477727323E+02  1.250000000E+02  0.00000E+00  9.000E+00
      25     1     1     2     0     0 -9.186157322E+01  7.766110691E+01 -2.235509919E+02  2.829661502E+02  1.250000000E+02  0.00000E+00  9.000E+00
      21     1     1     2   502   511 -7.439230210E+01  5.423222489E+01 -1.647481831E+02  1.887254955E+02  0.000000000E+00  0.00000E+00  9.000E+00
#rwgt            1           1   2.6051946126073245E-002          10       99058           0
</event>
<event>
      5   9999  3.19816E-02  5.70846E+01 -1.00000E+00  1.35870E-01
      21    -1     0     0   502   512  0.000000000E+00  0.000000000E+00  5.849098265E+02  5.849098265E+02  0.000000000E+00  0.00000E+00  9.000E+00
      21    -1     0     0   501   502  0.000000000E+00  0.000000000E+00 -3.670525706E+02  3.670525706E+02  0.000000000E+00  0.00000E+00  9.000E+00
      25     1     1     2     0     0 -1.412231713E+02  3.173385512E+02 -1.718932697E+02  4.072100642E+02  1.250000000E+02  0.00000E+00  9.000E+00
      25     1     1     2     0     0  1.407747326E+02 -2.602557224E+02  3.508130701E+02  4.756525796E+02  1.250000000E+02  0.00000E+00  9.000E+00
      21     1     1     2   501   512  4.484387250E-01 -5.708282884E+01  3.893745556E+01  6.909975319E+01  1.846782373E-06  0.00000E+00  9.000E+00
#rwgt            1           1   2.8207080934410923E-002          10       99121           0
</event>
<event>
      5   9999  3.19816E-02  5.57525E+01 -1.00000E+00  1.36430E-01
      21    -1     0     0   502   501  0.000000000E+00  0.000000000E+00  3.884612027E+02  3.884612027E+02  0.000000000E+00  0.00000E+00  9.000E+00
      21    -1     0     0   501   511  0.000000000E+00  0.000000000E+00 -1.930027463E+02  1.930027463E+02  0.000000000E+00  0.00000E+00  9.000E+00
      25     1     1     2     0     0  1.633237795E+02 -1.430378860E+02  1.500091286E+02  2.919969734E+02  1.250000000E+02  0.00000E+00  9.000E+00
      25     1     1     2     0     0 -1.096923442E+02  1.278061559E+02  7.931144707E+01  2.242367710E+02  1.250000000E+02  0.00000E+00  9.000E+00
      21     1     1     2   502   511 -5.363143535E+01  1.523173009E+01 -3.386211934E+01  6.523020455E+01  1.261592536E-06  0.00000E+00  9.000E+00
#rwgt            1           1   2.8186027590675271E-002          10       99268           0
</event>
<event>
      5   9999  3.19816E-02  6.23335E+02 -1.00000E+00  9.62059E-02
      21    -1     0     0   502   501  0.000000000E+00  0.000000000E+00  4.955870534E+02  4.955870534E+02  0.000000000E+00  0.00000E+00  9.000E+00
       2    -1     0     0   501     0  0.000000000E+00  0.000000000E+00 -1.757862178E+03  1.757862178E+03  0.000000000E+00  0.00000E+00  9.000E+00
      25     1     1     2     0     0  2.341565286E+02  2.285497468E+02 -1.938893528E+02  4.003527792E+02  1.250000000E+02  0.00000E+00  9.000E+00
      25     1     1     2     0     0  2.336600448E+02 -6.404888698E+02 -9.840137216E+01  7.000934501E+02  1.250000000E+02  0.00000E+00  9.000E+00
       2     1     1     2   502     0 -4.678165734E+02  4.119391229E+02 -9.699843996E+02  1.153003002E+03  1.078959322E-05  0.00000E+00  9.000E+00
#rwgt            1           1   2.8956341547891649E-002          10       99350           0
</event>
<event>
      5   9999  3.19816E-02  2.04503E+02 -1.00000E+00  1.11297E-01
      21    -1     0     0   502   501  0.000000000E+00  0.000000000E+00  2.131327146E+02  2.131327146E+02  0.000000000E+00  0.00000E+00  9.000E+00
       2    -1     0     0   501     0  0.000000000E+00  0.000000000E+00 -1.205581520E+03  1.205581520E+03  0.000000000E+00  0.00000E+00  9.000E+00
      25     1     1     2     0     0  1.720086226E+02  3.727250510E+02 -7.077290771E+02  8.276571612E+02  1.250000000E+02  0.00000E+00  9.000E+00
      25     1     1     2     0     0 -3.300764404E+01 -2.227239473E+02 -2.248354259E+01  2.585071971E+02  1.250000000E+02  0.00000E+00  9.000E+00
       2     1     1     2   502     0 -1.390009786E+02 -1.500011037E+02 -2.622361857E+02  3.325498764E+02  3.814697266E-06  0.00000E+00  9.000E+00
#rwgt            2          13   5.9284732228824359E-004          10       99482           0
</event>
<event>
      5   9999  3.19816E-02  1.15378E+02 -1.00000E+00  1.21097E-01
      21    -1     0     0   502   511  0.000000000E+00  0.000000000E+00  2.316877990E+03  2.316877990E+03  0.000000000E+00  0.00000E+00  9.000E+00
      21    -1     0     0   501   502  0.000000000E+00  0.000000000E+00 -6.222197975E+02  6.222197975E+02  0.000000000E+00  0.00000E+00  9.000E+00
      25     1     1     2     0     0  2.337889279E+01 -4.742792171E+02  9.763327040E+02  1.092857675E+03  1.250000000E+02  0.00000E+00  9.000E+00
      25     1     1     2     0     0  9.047368156E+01  4.929765062E+02 -4.422061913E+02  6.799872340E+02  1.250000000E+02  0.00000E+00  9.000E+00
      21     1     1     2   501   511 -1.138525744E+02 -1.869728913E+01  1.160531679E+03  1.166252878E+03  1.525878906E-05  0.00000E+00  9.000E+00
#rwgt            1           1   3.5435969627028975E-002          10       99501           0
</event>
<event>
      5   9999  3.19816E-02  1.03159E+02 -1.00000E+00  1.23223E-01
      21    -1     0     0   502   501  0.000000000E+00  0.000000000E+00  3.222523046E+02  3.222523046E+02  0.000000000E+00  0.00000E+00  9.000E+00
      21    -1     0     0   501   512  0.000000000E+00  0.000000000E+00 -7.081601806E+02  7.081601806E+02  0.000000000E+00  0.00000E+00  9.000E+00
      25     1     1     2     0     0 -2.808073212E+02 -2.550372556E+02 -1.598312559E+02  4.301950531E+02  1.250000000E+02  0.00000E+00  9.000E+00
      25     1     1     2     0     0  1.931715363E+02  3.094598720E+02 -4.030385090E+01  3.877241999E+02  1.250000000E+02  0.00000E+00  9.000E+00
      21     1     1     2   502   512  8.763578488E+01 -5.442261640E+01 -1.857727692E+02  2.124932322E+02  0.000000000E+00  0.00000E+00  9.000E+00
#rwgt            1           1   3.0007574798523753E-002          10       99556           0
</event>
<event>
      5   9999  3.19816E-02  7.61765E+01 -1.00000E+00  1.29387E-01
      21    -1     0     0   502   501  0.000000000E+00  0.000000000E+00  3.696327733E+02  3.696327733E+02  0.000000000E+00  0.00000E+00  9.000E+00
      21    -1     0     0   511   502  0.000000000E+00  0.000000000E+00 -3.425723213E+02  3.425723213E+02  0.000000000E+00  0.00000E+00  9.000E+00
      25     1     1     2     0     0 -1.380538469E+02  8.424060265E+01  2.630103220E+02  3.330987440E+02  1.250000000E+02  0.00000E+00  9.000E+00
      25     1     1     2     0     0  1.396124800E+02 -8.080054302E+00 -7.683329039E+01  2.026950575E+02  1.250000000E+02  0.00000E+00  9.000E+00
      21     1     1     2   511   501 -1.558633072E+00 -7.616054835E+01 -1.591165795E+02  1.764112931E+02  4.264961200E-06  0.00000E+00  9.000E+00
#rwgt            1           1   2.6223480208238059E-002          10       99610           0
</event>
<event>
      5   9999  3.19816E-02  2.70357E+01 -1.00000E+00  1.56246E-01
      21    -1     0     0   502   501  0.000000000E+00  0.000000000E+00  8.335109641E+02  8.335109641E+02  0.000000000E+00  0.00000E+00  9.000E+00
      21    -1     0     0   512   502  0.000000000E+00  0.000000000E+00 -2.795525634E+02  2.795525634E+02  0.000000000E+00  0.00000E+00  9.000E+00
      25     1     1     2     0     0 -2.308535646E+02 -2.425957008E+02  2.139229121E+02  4.165741886E+02  1.250000000E+02  0.00000E+00  9.000E+00
      25     1     1     2     0     0  2.467800610E+02  2.207490877E+02  4.561063170E+02  5.773114676E+02  1.250000000E+02  0.00000E+00  9.000E+00
      21     1     1     2   512   501 -1.592649639E+01  2.184661305E+01 -1.160708284E+02  1.191778712E+02  0.000000000E+00  0.00000E+00  9.000E+00
#rwgt            1           1   2.8799506644561653E-002          10       99698           0
</event>
<event>
      5   9999  3.19816E-02  1.25466E+01 -1.00000E+00  1.85017E-01
      21    -1     0     0   511   501  0.000000000E+00  0.000000000E+00  2.154607235E+03  2.154607235E+03  0.000000000E+00  0.00000E+00  9.000E+00
      21    -1     0     0   501   502  0.000000000E+00  0.000000000E+00 -1.537434260E+02  1.537434260E+02  0.000000000E+00  0.00000E+00  9.000E+00
      25     1     1     2     0     0  1.794235560E+02  4.093185099E+02  1.635820821E+03  1.700373257E+03  1.250000000E+02  0.00000E+00  9.000E+00
      25     1     1     2     0     0 -1.918261699E+02 -4.112137595E+02  3.421825443E+02  5.819002742E+02  1.250000000E+02  0.00000E+00  9.000E+00
      21     1     1     2   511   502  1.240261389E+01  1.895249653E+00  2.286044342E+01  2.607712936E+01  3.371747881E-07  0.00000E+00  9.000E+00
#rwgt            1           1   2.4386217882226387E-002          10       99806           0
</event>
<event>
      5   9999  3.19816E-02  1.02639E+02 -1.00000E+00  1.23321E-01
      21    -1     0     0   502   512  0.000000000E+00  0.000000000E+00  3.395934040E+01  3.395934040E+01  0.000000000E+00  0.00000E+00  9.000E+00
      21    -1     0     0   501   502  0.000000000E+00  0.000000000E+00 -2.290953177E+03  2.290953177E+03  0.000000000E+00  0.00000E+00  9.000E+00
      25     1     1     2     0     0  1.110859951E+02 -1.698361033E+02 -1.234241115E+03  1.257044363E+03  1.250000000E+02  0.00000E+00  9.000E+00
      25     1     1     2     0     0 -3.203504137E+01  1.043704397E+02 -8.569043269E+02  8.728284242E+02  1.250000000E+02  0.00000E+00  9.000E+00
      21     1     1     2   501   512 -7.905095370E+01  6.546566355E+01 -1.658483945E+02  1.950397301E+02  6.031565972E-06  0.00000E+00  9.000E+00
#rwgt            1           1   9.8421784748939950E-002          10      100022           0
</event>
<event>
      5   9999  3.19816E-02  4.51720E+01 -1.00000E+00  1.41639E-01
      21    -1     0     0   502   501  0.000000000E+00  0.000000000E+00  1.125957143E+03  1.125957143E+03  0.000000000E+00  0.00000E+00  9.000E+00
      21    -1     0     0   501   511  0.000000000E+00  0.000000000E+00 -7.918087686E+02  7.918087686E+02  0.000000000E+00  0.00000E+00  9.000E+00
      25     1     1     2     0     0  3.085879928E+02 -2.781729500E+02  1.016325725E+03  1.105056433E+03  1.250000000E+02  0.00000E+00  9.000E+00
      25     1     1     2     0     0 -2.660042395E+02  2.631021377E+02 -5.853241343E+02  7.058401607E+02  1.250000000E+02  0.00000E+00  9.000E+00
      21     1     1     2   502   511 -4.258375333E+01  1.507081229E+01 -9.685321700E+01  1.068693177E+02  1.348699152E-06  0.00000E+00  9.000E+00
#rwgt            1           1   2.6376413842701868E-002          10      100083           0
</event>
<event>
      5   9999  3.19816E-02  1.47523E+01 -1.00000E+00  1.78068E-01
      21    -1     0     0   502   512  0.000000000E+00  0.000000000E+00  1.333567161E+02  1.333567161E+02  0.000000000E+00  0.00000E+00  9.000E+00
      21    -1     0     0   501   502  0.000000000E+00  0.000000000E+00 -6.739957145E+02  6.739957145E+02  0.000000000E+00  0.00000E+00  9.000E+00
      25     1     1     2     0     0  3.623316177E+01  1.041434473E+02 -5.959619890E+02  6.188330890E+02  1.250000000E+02  0.00000E+00  9.000E+00
      25     1     1     2     0     0 -4.668950809E+01 -9.373696693E+01  5.882888589E+01  1.733561852E+02  1.250000000E+02  0.00000E+00  9.000E+00
      21     1     1     2   501   512  1.045634632E+01 -1.040648042E+01 -3.505895229E+00  1.516315648E+01  3.931196320E-07  0.00000E+00  9.000E+00
#rwgt            1           1   2.6572946926896775E-002          10      100284           0
</event>
<event>
      5   9999  3.19816E-02  3.75452E+02 -1.00000E+00  1.02520E-01
       2    -1     0     0   502     0  0.000000000E+00  0.000000000E+00  2.228352460E+03  2.228352460E+03  0.000000000E+00  0.00000E+00  9.000E+00
      21    -1     0     0   501   502  0.000000000E+00  0.000000000E+00 -1.105282156E+03  1.105282156E+03  0.000000000E+00  0.00000E+00  9.000E+00
      25     1     1     2     0     0 -3.246347388E+02 -1.473223711E+02 -9.082527098E+02  9.836867283E+02  1.250000000E+02  0.00000E+00  9.000E+00
      25     1     1     2     0     0 -3.615031254E+01  4.340858081E+01 -1.100800864E+02  1.758800029E+02  1.250000000E+02  0.00000E+00  9.000E+00
       2     1     1     2   501     0  3.607850513E+02  1.039137903E+02  2.141403101E+03  2.174067885E+03  3.051757812E-05  0.00000E+00  9.000E+00
#rwgt            2          18   5.1031601722231132E-002          10      100583           0
</event>
<event>
      5   9999  3.19816E-02  1.93458E+01 -1.00000E+00  1.67570E-01
      21    -1     0     0   502   501  0.000000000E+00  0.000000000E+00  6.809544878E+02  6.809544878E+02  0.000000000E+00  0.00000E+00  9.000E+00
      21    -1     0     0   501   511  0.000000000E+00  0.000000000E+00 -1.105947169E+02  1.105947169E+02  0.000000000E+00  0.00000E+00  9.000E+00
      25     1     1     2     0     0  1.413269350E+02 -1.321562216E+02  1.276243770E+02  2.633468266E+02  1.250000000E+02  0.00000E+00  9.000E+00
      25     1     1     2     0     0 -1.574559375E+02  1.214737991E+02  4.499371943E+02  5.075595876E+02  1.250000000E+02  0.00000E+00  9.000E+00
      21     1     1     2   502   511  1.612900249E+01  1.068242247E+01 -7.201800447E+00  2.064279053E+01  0.000000000E+00  0.00000E+00  9.000E+00
#rwgt            1           1   2.8040010638464539E-002          10      100602           0
</event>
<event>
      5   9999  3.19816E-02  3.93595E+01 -1.00000E+00  1.45276E-01
      21    -1     0     0   502   501  0.000000000E+00  0.000000000E+00  3.840756342E+02  3.840756342E+02  0.000000000E+00  0.00000E+00  9.000E+00
      -1    -1     0     0     0   502  0.000000000E+00  0.000000000E+00 -1.847466634E+03  1.847466634E+03  0.000000000E+00  0.00000E+00  9.000E+00
      25     1     1     2     0     0  6.539052164E+01  1.610343430E+02  3.081964508E+02  3.752572881E+02  1.250000000E+02  0.00000E+00  9.000E+00
      25     1     1     2     0     0 -1.009665799E+02 -1.441964439E+02 -2.347167462E+02  3.189103568E+02  1.250000000E+02  0.00000E+00  9.000E+00
      -1     1     1     2     0   501  3.557605827E+01 -1.683789910E+01 -1.536870704E+03  1.537374623E+03  3.051757812E-05  0.00000E+00  9.000E+00
#rwgt            1           1   2.9505030521391040E-002          10      100717           0
</event>
<event>
      5   9999  3.19816E-02  6.80872E+01 -1.00000E+00  1.31833E-01
      21    -1     0     0   502   511  0.000000000E+00  0.000000000E+00  2.163322089E+03  2.163322089E+03  0.000000000E+00  0.00000E+00  9.000E+00
      21    -1     0     0   501   502  0.000000000E+00  0.000000000E+00 -9.429771507E+01  9.429771507E+01  0.000000000E+00  0.00000E+00  9.000E+00
      25     1     1     2     0     0  1.048938296E+02  1.450020464E+02  7.141101458E+01  2.296798684E+02  1.250000000E+02  0.00000E+00  9.000E+00
      25     1     1     2     0     0 -1.467924486E+02 -9.133290243E+01  7.867178881E+02  8.151317424E+02  1.250000000E+02  0.00000E+00  9.000E+00
      21     1     1     2   501   511  4.189861898E+01 -5.366914400E+01  1.210895471E+03  1.212808193E+03  1.525878906E-05  0.00000E+00  9.000E+00
#rwgt            1           1   2.8348683351618890E-002          10      100788           0
</event>
<event>
      5   9999  3.19816E-02  9.50569E+00 -1.00000E+00  1.98337E-01
      21    -1     0     0   502   501  0.000000000E+00  0.000000000E+00  8.197141961E+01  8.197141961E+01  0.000000000E+00  0.00000E+00  9.000E+00
      21    -1     0     0   512   502  0.000000000E+00  0.000000000E+00 -4.970045686E+02  4.970045686E+02  0.000000000E+00  0.00000E+00  9.000E+00
      25     1     1     2     0     0  4.647055563E+01  7.508156626E+01 -2.410871329E+01  1.549289650E+02  1.250000000E+02  0.00000E+00  9.000E+00
      25     1     1     2     0     0 -4.833012239E+01 -6.575953830E+01 -3.275549726E+02  3.599685788E+02  1.250000000E+02  0.00000E+00  9.000E+00
      21     1     1     2   512   501  1.859566763E+00 -9.322027965E+00 -6.336946314E+01  6.407844452E+01  6.743495762E-07  0.00000E+00  9.000E+00
#rwgt            1           1   3.3449670172790248E-002          10      100886           0
</event>
<event>
      5   9999  3.19816E-02  7.30622E+01 -1.00000E+00  1.30286E-01
      21    -1     0     0   502   511  0.000000000E+00  0.000000000E+00  2.655148981E+02  2.655148981E+02  0.000000000E+00  0.00000E+00  9.000E+00
      21    -1     0     0   501   502  0.000000000E+00  0.000000000E+00 -7.893985415E+02  7.893985415E+02  0.000000000E+00  0.00000E+00  9.000E+00
      25     1     1     2     0     0 -3.128757556E+01  1.675566438E+02 -6.733258719E+02  7.057243591E+02  1.250000000E+02  0.00000E+00  9.000E+00
      25     1     1     2     0     0  1.037510081E+02 -1.768913296E+02  1.320918331E+02  2.740949954E+02  1.250000000E+02  0.00000E+00  9.000E+00
      21     1     1     2   501   511 -7.246343252E+01  9.334685744E+00  1.735039543E+01  7.509408520E+01  1.348699152E-06  0.00000E+00  9.000E+00
#rwgt            1           1   2.8140808008506546E-002          10      101046           0
</event>
<event>
      5   9999  3.19816E-02  4.01325E+01 -1.00000E+00  1.44751E-01
      21    -1     0     0   502   501  0.000000000E+00  0.000000000E+00  2.513491882E+03  2.513491882E+03  0.000000000E+00  0.00000E+00  9.000E+00
      21    -1     0     0   512   502  0.000000000E+00  0.000000000E+00 -6.872867077E+01  6.872867077E+01  0.000000000E+00  0.00000E+00  9.000E+00
      25     1     1     2     0     0  2.530854910E+02 -1.780266767E+02  1.902375836E+03  1.931425532E+03  1.250000000E+02  0.00000E+00  9.000E+00
      25     1     1     2     0     0 -2.135727443E+02  1.710009795E+02  5.289071429E+02  6.084590520E+02  1.250000000E+02  0.00000E+00  9.000E+00
      21     1     1     2   512   501 -3.951274668E+01  7.025697109E+00  1.348023161E+01  4.233596833E+01  9.536743164E-07  0.00000E+00  9.000E+00
#rwgt            1           1   7.5550488057822718E-002          10      101112           0
</event>
<event>
      5   9999  3.19816E-02  8.70905E+01 -1.00000E+00  1.26589E-01
      21    -1     0     0   502   501  0.000000000E+00  0.000000000E+00  1.435328578E+02  1.435328578E+02  0.000000000E+00  0.00000E+00  9.000E+00
      21    -1     0     0   511   502  0.000000000E+00  0.000000000E+00 -2.128669359E+03  2.128669359E+03  0.000000000E+00  0.00000E+00  9.000E+00
      25     1     1     2     0     0 -6.219451101E+01  1.728138434E+02 -1.586625646E+03  1.602104467E+03  1.250000000E+02  0.00000E+00  9.000E+00
      25     1     1     2     0     0 -1.888926824E+01 -2.045971286E+02  2.120998937E+01  2.414366441E+02  1.250000000E+02  0.00000E+00  9.000E+00
      21     1     1     2   511   501  8.108377925E+01  3.178328517E+01 -4.197208441E+02  4.286611056E+02  7.629394531E-06  0.00000E+00  9.000E+00
#rwgt            1           1   2.7127332330508108E-002          10      101208           0
</event>
<event>
      5   9999  3.19816E-02  7.12508E+01 -1.00000E+00  1.30832E-01
      21    -1     0     0   502   501  0.000000000E+00  0.000000000E+00  8.041371867E+02  8.041371867E+02  0.000000000E+00  0.00000E+00  9.000E+00
      21    -1     0     0   512   502  0.000000000E+00  0.000000000E+00 -8.585156981E+02  8.585156981E+02  0.000000000E+00  0.00000E+00  9.000E+00
      25     1     1     2     0     0 -2.399536069E+02  1.863946014E+02 -2.589111446E+02  4.183068989E+02  1.250000000E+02  0.00000E+00  9.000E+00
      25     1     1     2     0     0  1.824232958E+02 -1.443595732E+02  6.977259666E+02  7.460324857E+02  1.250000000E+02  0.00000E+00  9.000E+00
      21     1     1     2   512   501  5.753031118E+01 -4.203502819E+01 -4.931933335E+02  4.983135002E+02  5.394796609E-06  0.00000E+00  9.000E+00
#rwgt            1           1   2.9815377049480694E-002          10      101294           0
</event>
<event>
      5   9999  3.19816E-02  1.67246E+01 -1.00000E+00  1.73044E-01
      21    -1     0     0   502   501  0.000000000E+00  0.000000000E+00  3.085229999E+02  3.085229999E+02  0.000000000E+00  0.00000E+00  9.000E+00
      21    -1     0     0   501   511  0.000000000E+00  0.000000000E+00 -5.173470415E+02  5.173470415E+02  0.000000000E+00  0.00000E+00  9.000E+00
      25     1     1     2     0     0  1.611975745E+01 -1.382741564E+01  2.824178250E+02  3.095736938E+02  1.250000000E+02  0.00000E+00  9.000E+00
      25     1     1     2     0     0 -3.279346051E+01  1.252408217E+01 -4.769211525E+02  4.942783117E+02  1.250000000E+02  0.00000E+00  9.000E+00
      21     1     1     2   502   511  1.667370306E+01  1.303333465E+00 -1.432071416E+01  2.201803592E+01  2.384185791E-07  0.00000E+00  9.000E+00
#rwgt            1           1   2.7747777368894517E-002          10      101468           0
</event>
<event>
      5   9999  3.19816E-02  8.35001E+01 -1.00000E+00  1.27456E-01
      21    -1     0     0   502   501  0.000000000E+00  0.000000000E+00  1.902789592E+03  1.902789592E+03  0.000000000E+00  0.00000E+00  9.000E+00
      21    -1     0     0   501   512  0.000000000E+00  0.000000000E+00 -5.292159102E+02  5.292159102E+02  0.000000000E+00  0.00000E+00  9.000E+00
      25     1     1     2     0     0  4.323741575E+02 -1.438967147E+02  1.167206788E+03  1.259226096E+03  1.250000000E+02  0.00000E+00  9.000E+00
      25     1     1     2     0     0 -3.516573641E+02  1.225177400E+02  6.292173565E+02  7.417634259E+02  1.250000000E+02  0.00000E+00  9.000E+00
      21     1     1     2   502   512 -8.071679347E+01  2.137897479E+01 -4.228504624E+02  4.310159798E+02  7.629394531E-06  0.00000E+00  9.000E+00
#rwgt            1           1   3.5190254431101603E-002          10      101699           0
</event>
<event>
      5   9999  3.19816E-02  2.85376E+02 -1.00000E+00  1.06302E-01
      21    -1     0     0   502   501  0.000000000E+00  0.000000000E+00  1.838422788E+03  1.838422788E+03  0.000000000E+00  0.00000E+00  9.000E+00
      21    -1     0     0   511   502  0.000000000E+00  0.000000000E+00 -6.815151106E+02  6.815151106E+02  0.000000000E+00  0.00000E+00  9.000E+00
      25     1     1     2     0     0 -5.356594108E+02  5.137442381E+02  1.043200781E+03  1.286373592E+03  1.250000000E+02  0.00000E+00  9.000E+00
      25     1     1     2     0     0  4.794584502E+02 -7.935320103E+02  2.934887194E+01  9.359806692E+02  1.250000000E+02  0.00000E+00  9.000E+00
      21     1     1     2   511   501  5.620096064E+01  2.797877722E+02  8.435802415E+01  2.975836381E+02  4.264961200E-06  0.00000E+00  9.000E+00
#rwgt            2          11   6.6257941374808036E-003          10      101842           0
</event>
<event>
      5   9999  3.19816E-02  7.09096E+01 -1.00000E+00  1.30937E-01
      21    -1     0     0   502   501  0.000000000E+00  0.000000000E+00  1.539096332E+03  1.539096332E+03  0.000000000E+00  0.00000E+00  9.000E+00
      21    -1     0     0   512   502  0.000000000E+00  0.000000000E+00 -7.711422953E+02  7.711422953E+02  0.000000000E+00  0.00000E+00  9.000E+00
      25     1     1     2     0     0 -4.841353255E+02  6.297532610E+02  4.392651871E+00  8.041271532E+02  1.250000000E+02  0.00000E+00  9.000E+00
      25     1     1     2     0     0  4.814251051E+02 -7.006110298E+02  9.652807763E+02  1.292291733E+03  1.250000000E+02  0.00000E+00  9.000E+00
      21     1     1     2   512   501  2.710220301E+00  7.085776880E+01 -2.017193914E+02  2.138197408E+02  2.697398305E-06  0.00000E+00  9.000E+00
#rwgt            1           1   2.0390631938054130E-002          10      102012           0
</event>
<event>
      5   9999  3.19816E-02  4.54109E+01 -1.00000E+00  1.41504E-01
      21    -1     0     0   502   501  0.000000000E+00  0.000000000E+00  7.584558044E+02  7.584558044E+02  0.000000000E+00  0.00000E+00  9.000E+00
      21    -1     0     0   511   502  0.000000000E+00  0.000000000E+00 -2.231101252E+02  2.231101252E+02  0.000000000E+00  0.00000E+00  9.000E+00
      25     1     1     2     0     0  1.772392205E+02  2.419457642E+02  1.462102723E+02  3.563059610E+02  1.250000000E+02  0.00000E+00  9.000E+00
      25     1     1     2     0     0 -1.779226686E+02 -2.873515405E+02  4.321728052E+02  5.626950483E+02  1.250000000E+02  0.00000E+00  9.000E+00
      21     1     1     2   511   501  6.834481255E-01  4.540577623E+01 -4.303739818E+01  6.256492035E+01  1.066240300E-06  0.00000E+00  9.000E+00
#rwgt            1           1   3.6435895682863026E-002          10      102125           0
</event>
<event>
      5   9999  3.19816E-02  8.51186E+01 -1.00000E+00  1.27059E-01
      21    -1     0     0   502   512  0.000000000E+00  0.000000000E+00  3.038072675E+02  3.038072675E+02  0.000000000E+00  0.00000E+00  9.000E+00
      21    -1     0     0   501   502  0.000000000E+00  0.000000000E+00 -1.089729628E+03  1.089729628E+03  0.000000000E+00  0.00000E+00  9.000E+00
      25     1     1     2     0     0 -1.559811837E+02  2.633341097E+02 -8.757637374E+02  9.360887280E+02  1.250000000E+02  0.00000E+00  9.000E+00
      25     1     1     2     0     0  7.494762057E+01 -2.893868664E+02  1.460848330E+02  3.554260580E+02  1.250000000E+02  0.00000E+00  9.000E+00
      21     1     1     2   501   512  8.103356308E+01  2.605275679E+01 -5.624345633E+01  1.020221097E+02  0.000000000E+00  0.00000E+00  9.000E+00
#rwgt            1           1   2.9296965430887622E-002          10      102231           0
</event>
<event>
      5   9999  3.19816E-02  1.00954E+02 -1.00000E+00  1.23643E-01
      21    -1     0     0   502   511  0.000000000E+00  0.000000000E+00  4.075740308E+02  4.075740308E+02  0.000000000E+00  0.00000E+00  9.000E+00
      21    -1     0     0   501   502  0.000000000E+00  0.000000000E+00 -6.375896742E+02  6.375896742E+02  0.000000000E+00  0.00000E+00  9.000E+00
      25     1     1     2     0     0 -2.671264224E+02 -1.476052063E+02 -3.456395124E+02  4.777399868E+02  1.250000000E+02  0.00000E+00  9.000E+00
      25     1     1     2     0     0  3.661360417E+02  1.278889459E+02 -8.330183994E+00  4.075605176E+02  1.250000000E+02  0.00000E+00  9.000E+00
      21     1     1     2   501   511 -9.900961928E+01  1.971626033E+01  1.239540531E+02  1.598632006E+02  0.000000000E+00  0.00000E+00  9.000E+00
#rwgt            1           1   2.6214548272997889E-002          10      102311           0
</event>
<event>
      5   9999  3.19816E-02  1.08063E+01 -1.00000E+00  1.91943E-01
      21    -1     0     0   502   501  0.000000000E+00  0.000000000E+00  2.866686855E+02  2.866686855E+02  0.000000000E+00  0.00000E+00  9.000E+00
      21    -1     0     0   501   512  0.000000000E+00  0.000000000E+00 -5.650665338E+02  5.650665338E+02  0.000000000E+00  0.00000E+00  9.000E+00
      25     1     1     2     0     0 -7.384398124E+01 -2.616474939E+02  1.228774524E+02  3.234752123E+02  1.250000000E+02  0.00000E+00  9.000E+00
      25     1     1     2     0     0  8.189400346E+01  2.688567465E+02 -3.112844407E+02  4.376226468E+02  1.250000000E+02  0.00000E+00  9.000E+00
      21     1     1     2   502   512 -8.050022220E+00 -7.209252610E+00 -8.999086005E+01  9.063736026E+01  9.536743164E-07  0.00000E+00  9.000E+00
#rwgt            1           1   2.7271582726441097E-002          10      102385           0
</event>
<event>
      5   9999  3.19816E-02  4.20576E+02 -1.00000E+00  1.01034E-01
      21    -1     0     0   502   501  0.000000000E+00  0.000000000E+00  2.370124666E+02  2.370124666E+02  0.000000000E+00  0.00000E+00  9.000E+00
       1    -1     0     0   501     0  0.000000000E+00  0.000000000E+00 -1.592823581E+03  1.592823581E+03  0.000000000E+00  0.00000E+00  9.000E+00
      25     1     1     2     0     0 -1.560777067E+02  4.381339767E+01 -1.350399478E+02  2.452359106E+02  1.250000000E+02  0.00000E+00  9.000E+00
      25     1     1     2     0     0  4.118674314E+02 -3.776630094E+02 -5.572160112E+02  7.989861156E+02  1.250000000E+02  0.00000E+00  9.000E+00
       1     1     1     2   502     0 -2.557897248E+02  3.338496117E+02 -6.635551557E+02  7.856140217E+02  1.525878906E-05  0.00000E+00  9.000E+00
#rwgt            1           1   2.6668108578401208E-002          10      102625           0
</event>
<event>
      5   9999  3.19816E-02  1.42956E+01 -1.00000E+00  1.79374E-01
      21    -1     0     0   502   511  0.000000000E+00  0.000000000E+00  3.422172716E+02  3.422172716E+02  0.000000000E+00  0.00000E+00  9.000E+00
      21    -1     0     0   501   502  0.000000000E+00  0.000000000E+00 -6.408754572E+02  6.408754572E+02  0.000000000E+00  0.00000E+00  9.000E+00
      25     1     1     2     0     0 -7.767859346E+01  2.827541231E+02 -2.945924328E+02  4.340432691E+02  1.250000000E+02  0.00000E+00  9.000E+00
      25     1     1     2     0     0  6.515331829E+01 -2.896448438E+02 -1.823746987E+02  3.701683686E+02  1.250000000E+02  0.00000E+00  9.000E+00
      21     1     1     2   501   511  1.252527518E+01  6.890720706E+00  1.783089460E+02  1.788810911E+02  3.303624740E-06  0.00000E+00  9.000E+00
#rwgt            1           1   2.8040590681524646E-002          10      102652           0
</event>
<event>
      5   9999  3.19816E-02  8.54584E+00 -1.00000E+00  2.03992E-01
      21    -1     0     0   502   512  0.000000000E+00  0.000000000E+00  1.063996096E+03  1.063996096E+03  0.000000000E+00  0.00000E+00  9.000E+00
      21    -1     0     0   501   502  0.000000000E+00  0.000000000E+00 -6.729771502E+02  6.729771502E+02  0.000000000E+00  0.00000E+00  9.000E+00
      25     1     1     2     0     0  7.508393984E+02  2.736306949E+02  8.807970785E+01  8.136440219E+02  1.250000000E+02  0.00000E+00  9.000E+00
      25     1     1     2     0     0 -7.529003827E+02 -2.819242865E+02  2.239394722E+02  8.438685779E+02  1.250000000E+02  0.00000E+00  9.000E+00
      21     1     1     2   501   512  2.060984300E+00  8.293591582E+00  7.899976626E+01  7.946064678E+01  1.348699152E-06  0.00000E+00  9.000E+00
#rwgt            1           1   2.5063830745106389E-002          10      102853           0
</event>
<event>
      5   9999  3.19816E-02  5.55568E+02 -1.00000E+00  9.75690E-02
      21    -1     0     0   502   501  0.000000000E+00  0.000000000E+00  1.012730633E+03  1.012730633E+03  0.000000000E+00  0.00000E+00  9.000E+00
      21    -1     0     0   511   502  0.000000000E+00  0.000000000E+00 -1.706867864E+03  1.706867864E+03  0.000000000E+00  0.00000E+00  9.000E+00
      25     1     1     2     0     0  8.867191575E+02 -5.407269315E+02  1.721897498E+02  1.060156021E+03  1.250000000E+02  0.00000E+00  9.000E+00
      25     1     1     2     0     0 -8.355605659E+02 -1.248065546E+01 -4.035144069E+02  9.363578923E+02  1.250000000E+02  0.00000E+00  9.000E+00
      21     1     1     2   511   501 -5.115859161E+01  5.532075870E+02 -4.628125742E+02  7.230845833E+02  1.321449896E-05  0.00000E+00  9.000E+00
#rwgt            2          11   2.3659204034293829E-003          10      103305           0
</event>
<event>
      5   9999  3.19816E-02  3.34888E+01 -1.00000E+00  1.49794E-01
      21    -1     0     0   502   501  0.000000000E+00  0.000000000E+00  8.901049705E+02  8.901049705E+02  0.000000000E+00  0.00000E+00  9.000E+00
      21    -1     0     0   501   512  0.000000000E+00  0.000000000E+00 -2.715989108E+02  2.715989108E+02  0.000000000E+00  0.00000E+00  9.000E+00
      25     1     1     2     0     0 -2.424978428E+02  1.238723093E+02  6.085900423E+02  6.783482825E+02  1.250000000E+02  0.00000E+00  9.000E+00
      25     1     1     2     0     0  2.717884166E+02 -1.076377562E+02  1.411943928E+02  3.478730897E+02  1.250000000E+02  0.00000E+00  9.000E+00
      21     1     1     2   502   512 -2.929057380E+01 -1.623455309E+01 -1.312783754E+02  1.354825091E+02  1.907348633E-06  0.00000E+00  9.000E+00
#rwgt            1           1   2.7144931979857949E-002          10      103325           0
</event>
<event>
      5   9999  3.19816E-02  2.77450E+01 -1.00000E+00  1.55435E-01
      21    -1     0     0   511   501  0.000000000E+00  0.000000000E+00  1.476584450E+03  1.476584450E+03  0.000000000E+00  0.00000E+00  9.000E+00
      21    -1     0     0   501   502  0.000000000E+00  0.000000000E+00 -1.011283266E+02  1.011283266E+02  0.000000000E+00  0.00000E+00  9.000E+00
      25     1     1     2     0     0 -8.077752651E+01  4.665935621E+01 -3.040018853E+01  1.589065001E+02  1.250000000E+02  0.00000E+00  9.000E+00
      25     1     1     2     0     0  5.710209996E+01 -3.219351471E+01  1.339041059E+03  1.346459442E+03  1.250000000E+02  0.00000E+00  9.000E+00
      21     1     1     2   511   502  2.367542655E+01 -1.446584150E+01  6.681525267E+01  7.234683394E+01  1.348699152E-06  0.00000E+00  9.000E+00
#rwgt            1           1   3.0058966620072597E-002          10      103439           0
</event>
<event>
      5   9999  3.24945E-02  6.91847E+01 -1.00000E+00  1.31479E-01
      21    -1     0     0   502   501  0.000000000E+00  0.000000000E+00  8.684116134E+01  8.684116134E+01  0.000000000E+00  0.00000E+00  9.000E+00
      21    -1     0     0   501   512  0.000000000E+00  0.000000000E+00 -8.733923595E+02  8.733923595E+02  0.000000000E+00  0.00000E+00  9.000E+00
      25     1     1     2     0     0  1.889057094E+02 -6.855535608E+01 -1.637070551E+02  2.877676211E+02  1.250000000E+02  0.00000E+00  9.000E+00
      25     1     1     2     0     0 -1.232108084E+02  4.685980252E+01 -4.918079937E+02  5.242869893E+02  1.250000000E+02  0.00000E+00  9.000E+00
      21     1     1     2   502   512 -6.569490099E+01  2.169555356E+01 -1.310361494E+02  1.481789105E+02  0.000000000E+00  0.00000E+00  9.000E+00
#rwgt            1           1   3.0101924346646960E-002          10      103606           0
</event>
<event>
      5   9999  3.19816E-02  1.91616E+01 -1.00000E+00  1.67918E-01
      21    -1     0     0   502   511  0.000000000E+00  0.000000000E+00  1.332929468E+02  1.332929468E+02  0.000000000E+00  0.00000E+00  9.000E+00
      21    -1     0     0   501   502  0.000000000E+00  0.000000000E+00 -2.765469827E+02  2.765469827E+02  0.000000000E+00  0.00000E+00  9.000E+00
      25     1     1     2     0     0  2.188614038E+01 -9.333349042E+01 -4.884946234E+01  1.649285104E+02  1.250000000E+02  0.00000E+00  9.000E+00
      25     1     1     2     0     0 -4.104425747E+01  9.369912892E+01 -1.280975853E+02  2.061507924E+02  1.250000000E+02  0.00000E+00  9.000E+00
      21     1     1     2   501   511  1.915811710E+01 -3.656384998E-01  3.369301172E+01  3.876062669E+01  4.768371582E-07  0.00000E+00  9.000E+00
#rwgt            1           1   2.8157101542198276E-002          10      103683           0
</event>
<event>
      5   9999  3.19816E-02  6.93494E+01 -1.00000E+00  1.31426E-01
      21    -1     0     0   502   512  0.000000000E+00  0.000000000E+00  3.601472747E+01  3.601472747E+01  0.000000000E+00  0.00000E+00  9.000E+00
      21    -1     0     0   501   502  0.000000000E+00  0.000000000E+00 -1.313690886E+03  1.313690886E+03  0.000000000E+00  0.00000E+00  9.000E+00
      25     1     1     2     0     0  6.126427360E+01 -5.378815510E+01 -2.362245361E+02  2.794163709E+02  1.250000000E+02  0.00000E+00  9.000E+00
      25     1     1     2     0     0 -1.141603105E+02  8.940049453E+00 -8.481161457E+02  8.648921885E+02  1.250000000E+02  0.00000E+00  9.000E+00
      21     1     1     2   501   512  5.289603693E+01  4.484810565E+01 -1.933354765E+02  2.053970540E+02  3.814697266E-06  0.00000E+00  9.000E+00
#rwgt            1           1   3.1462535770041121E-002          10      103757           0
</event>
<event>
      5   9999  3.19816E-02  4.12993E+01 -1.00000E+00  1.43984E-01
      21    -1     0     0   502   511  0.000000000E+00  0.000000000E+00  8.112869467E+02  8.112869467E+02  0.000000000E+00  0.00000E+00  9.000E+00
      21    -1     0     0   501   502  0.000000000E+00  0.000000000E+00 -4.793298934E+01  4.793298934E+01  0.000000000E+00  0.00000E+00  9.000E+00
      25     1     1     2     0     0 -7.226556273E+01 -5.740638936E+01  2.030647417E+02  2.556914047E+02  1.250000000E+02  0.00000E+00  9.000E+00
      25     1     1     2     0     0  1.030425837E+02  8.494557671E+01  4.642786406E+02  4.990122055E+02  1.250000000E+02  0.00000E+00  9.000E+00
      21     1     1     2   501   511 -3.077702099E+01 -2.753918735E+01  9.601057499E+01  1.045163259E+02  0.000000000E+00  0.00000E+00  9.000E+00
#rwgt            1           1   2.6491299352332808E-002          10      103839           0
</event>
<event>
      5   9999  3.19816E-02  2.45469E+01 -1.00000E+00  1.59348E-01
      21    -1     0     0   502   501  0.000000000E+00  0.000000000E+00  1.861869306E+02  1.861869306E+02  0.000000000E+00  0.00000E+00  9.000E+00
      21    -1     0     0   512   502  0.000000000E+00  0.000000000E+00 -5.213588583E+02  5.213588583E+02  0.000000000E+00  0.00000E+00  9.000E+00
      25     1     1     2     0     0  8.798951325E+01  6.530835083E+01 -3.578698874E+02  3.945924371E+02  1.250000000E+02  0.00000E+00  9.000E+00
      25     1     1     2     0     0 -1.110639935E+02 -7.368218444E+01  1.160256783E+02  2.164514564E+02  1.250000000E+02  0.00000E+00  9.000E+00
      21     1     1     2   512   501  2.307448029E+01  8.373833608E+00 -9.332771861E+01  9.650189527E+01  0.000000000E+00  0.00000E+00  9.000E+00
#rwgt            1           1   2.7780978447892686E-002          10      103907           0
</event>
<event>
      5   9999  3.19816E-02  7.32846E+01 -1.00000E+00  1.30220E-01
       2    -1     0     0   502     0  0.000000000E+00  0.000000000E+00  1.198366588E+03  1.198366588E+03  0.000000000E+00  0.00000E+00  9.000E+00
      21    -1     0     0   501   502  0.000000000E+00  0.000000000E+00 -2.826900436E+02  2.826900436E+02  0.000000000E+00  0.00000E+00  9.000E+00
      25     1     1     2     0     0  4.886948321E+01  3.308933108E+02  1.147643779E+02  3.750659568E+02  1.250000000E+02  0.00000E+00  9.000E+00
      25     1     1     2     0     0 -1.209364491E+02 -3.175897170E+02  6.677163987E+01  3.682014461E+02  1.250000000E+02  0.00000E+00  9.000E+00
       2     1     1     2   501     0  7.206696590E+01 -1.330359383E+01  7.341405264E+02  7.377892285E+02  1.078959322E-05  0.00000E+00  9.000E+00
#rwgt            1           1   2.0156681602649947E-002          10      104069           0
</event>
<event>
      5   9999  3.19816E-02  9.23492E+01 -1.00000E+00  1.25403E-01
      21    -1     0     0   502   511  0.000000000E+00  0.000000000E+00  8.682454221E+02  8.682454221E+02  0.000000000E+00  0.00000E+00  9.000E+00
      21    -1     0     0   501   502  0.000000000E+00  0.000000000E+00 -1.708985298E+03  1.708985298E+03  0.000000000E+00  0.00000E+00  9.000E+00
      25     1     1     2     0     0  2.093928896E+02 -3.541920224E+02 -1.370896983E+03  1.436760561E+03  1.250000000E+02  0.00000E+00  9.000E+00
      25     1     1     2     0     0 -1.275117793E+02  3.968987202E+02 -1.452229554E+02  4.588055740E+02  1.250000000E+02  0.00000E+00  9.000E+00
      21     1     1     2   501   511 -8.188111030E+01 -4.270669776E+01  6.753800625E+02  6.816645854E+02  7.629394531E-06  0.00000E+00  9.000E+00
#rwgt            1           1   3.1780012922054499E-002          10      104136           0
</event>
<event>
      5   9999  3.19816E-02  5.71318E+01 -1.00000E+00  1.35850E-01
      21    -1     0     0   512   501  0.000000000E+00  0.000000000E+00  1.024504233E+03  1.024504233E+03  0.000000000E+00  0.00000E+00  9.000E+00
      21    -1     0     0   501   502  0.000000000E+00  0.000000000E+00 -8.199584004E+02  8.199584004E+02  0.000000000E+00  0.00000E+00  9.000E+00
      25     1     1     2     0     0 -4.597302860E+02 -3.702586421E+02 -5.860398167E+02  8.411367693E+02  1.250000000E+02  0.00000E+00  9.000E+00
      25     1     1     2     0     0  4.288116840E+02  3.222161105E+02  6.523510466E+02  8.537502974E+02  1.250000000E+02  0.00000E+00  9.000E+00
      21     1     1     2   512   502  3.091860199E+01  4.804253162E+01  1.382346031E+02  1.495755671E+02  2.697398305E-06  0.00000E+00  9.000E+00
#rwgt            1           1   3.5224930816168912E-002          10      104259           0
</event>
<event>
      5   9999  3.19816E-02  9.29614E+01 -1.00000E+00  1.25271E-01
       1    -1     0     0   502     0  0.000000000E+00  0.000000000E+00  1.311737984E+03  1.311737984E+03  0.000000000E+00  0.00000E+00  9.000E+00
      21    -1     0     0   501   502  0.000000000E+00  0.000000000E+00 -6.636956699E+02  6.636956699E+02  0.000000000E+00  0.00000E+00  9.000E+00
      25     1     1     2     0     0  1.561110887E+02 -6.862272635E+01  8.402618677E+02  8.664552826E+02  1.250000000E+02  0.00000E+00  9.000E+00
      25     1     1     2     0     0 -1.901507697E+02 -1.788230934E+01 -6.254950383E+02  6.658424251E+02  1.250000000E+02  0.00000E+00  9.000E+00
       1     1     1     2   501     0  3.403968094E+01  8.650503568E+01  4.332754843E+02  4.431359457E+02  0.000000000E+00  0.00000E+00  9.000E+00
#rwgt            1           1   2.0609469825309798E-002          10      104393           0
</event>
<event>
      5   9999  3.19816E-02  3.27764E+01 -1.00000E+00  1.50417E-01
      21    -1     0     0   502   511  0.000000000E+00  0.000000000E+00  9.521573769E+02  9.521573769E+02  0.000000000E+00  0.00000E+00  9.000E+00
      21    -1     0     0   501   502  0.000000000E+00  0.000000000E+00 -5.446776123E+02  5.446776123E+02  0.000000000E+00  0.00000E+00  9.000E+00
      25     1     1     2     0     0  6.325465976E+02 -3.217243657E+01  4.376358668E+02  7.799361614E+02  1.250000000E+02  0.00000E+00  9.000E+00
      25     1     1     2     0     0 -6.017729479E+02  4.345396137E+01 -1.142390709E+02  6.266534073E+02  1.250000000E+02  0.00000E+00  9.000E+00
      21     1     1     2   501   511 -3.077364977E+01 -1.128152479E+01  8.408296863E+01  9.024542058E+01  9.536743164E-07  0.00000E+00  9.000E+00
#rwgt            1           1   3.1440814773963474E-002          10      104502           0
</event>
<event>
      5   9999  3.19816E-02  3.50525E+01 -1.00000E+00  1.48488E-01
       2    -1     0     0   502     0  0.000000000E+00  0.000000000E+00  2.722388239E+03  2.722388239E+03  0.000000000E+00  0.00000E+00  9.000E+00
      21    -1     0     0   501   502  0.000000000E+00  0.000000000E+00 -1.575804293E+03  1.575804293E+03  0.000000000E+00  0.00000E+00  9.000E+00
      25     1     1     2     0     0 -5.823657993E+02 -1.631490823E+02 -4.015668851E+02  7.366468017E+02  1.250000000E+02  0.00000E+00  9.000E+00
      25     1     1     2     0     0  5.511483117E+02  1.790911116E+02 -9.192809620E+02  1.093864971E+03  1.250000000E+02  0.00000E+00  9.000E+00
       2     1     1     2   501     0  3.121748757E+01 -1.594202931E+01  2.467431792E+03  2.467680759E+03  0.000000000E+00  0.00000E+00  9.000E+00
#rwgt            1           1   2.9482829357115357E-002          10      104736           0
</event>
<event>
      5   9999  3.19816E-02  1.74335E+01 -1.00000E+00  1.71446E-01
       1    -1     0     0   502     0  0.000000000E+00  0.000000000E+00  8.643891674E+02  8.643891674E+02  0.000000000E+00  0.00000E+00  9.000E+00
      21    -1     0     0   501   502  0.000000000E+00  0.000000000E+00 -2.339967514E+02  2.339967514E+02  0.000000000E+00  0.00000E+00  9.000E+00
      25     1     1     2     0     0  8.261396163E+01 -2.274263171E+02  5.408203676E+02  6.055241253E+02  1.250000000E+02  0.00000E+00  9.000E+00
      25     1     1     2     0     0 -9.758050807E+01  2.363665896E+02 -1.006031177E+02  3.018892305E+02  1.250000000E+02  0.00000E+00  9.000E+00
       1     1     1     2   501     0  1.496654644E+01 -8.940272439E+00  1.901751662E+02  1.909725630E+02  0.000000000E+00  0.00000E+00  9.000E+00
#rwgt            1           1   2.8393723035450191E-002          10      104930           0
</event>
<event>
      5   9999  3.19816E-02  1.43718E+02 -1.00000E+00  1.17135E-01
      21    -1     0     0   502   501  0.000000000E+00  0.000000000E+00  1.900016488E+02  1.900016488E+02  0.000000000E+00  0.00000E+00  9.000E+00
      21    -1     0     0   511   502  0.000000000E+00  0.000000000E+00 -4.311514723E+02  4.311514723E+02  0.000000000E+00  0.00000E+00  9.000E+00
      25     1     1     2     0     0  1.726989723E+01 -3.363386856E+01 -1.661393830E+02  2.113215111E+02  1.250000000E+02  0.00000E+00  9.000E+00
      25     1     1     2     0     0  6.673640823E+01 -8.297619005E+01  9.301937247E+01  1.887230774E+02  1.250000000E+02  0.00000E+00  9.000E+00
      21     1     1     2   511   501 -8.400630546E+01  1.166100586E+02 -1.680298130E+02  2.211085326E+02  3.814697266E-06  0.00000E+00  9.000E+00
#rwgt            1           1   2.6802440539898147E-002          10      105154           0
</event>
<event>
      5   9999  3.19816E-02  8.41925E+01 -1.00000E+00  1.27285E-01
      21    -1     0     0   502   501  0.000000000E+00  0.000000000E+00  1.398116486E+03  1.398116486E+03  0.000000000E+00  0.00000E+00  9.000E+00
      -2    -1     0     0     0   502  0.000000000E+00  0.000000000E+00 -1.028907306E+02  1.028907306E+02  0.000000000E+00  0.00000E+00  9.000E+00
      25     1     1     2     0     0 -1.979364880E+02  2.699367994E+01  9.460471825E+02  9.749552726E+02  1.250000000E+02  0.00000E+00  9.000E+00
      25     1     1     2     0     0  2.763449601E+02 -5.766094304E+01  2.629202153E+02  4.055161661E+02  1.250000000E+02  0.00000E+00  9.000E+00
      -2     1     1     2     0   501 -7.840847211E+01  3.066726310E+01  8.625835746E+01  1.205357779E+02  2.697398305E-06  0.00000E+00  9.000E+00
#rwgt            1           1   2.8925012645222157E-002          10      105200           0
</event>
<event>
      5   9999  3.19816E-02  2.24724E+02 -1.00000E+00  1.09836E-01
      21    -1     0     0   502   501  0.000000000E+00  0.000000000E+00  6.071464425E+02  6.071464425E+02  0.000000000E+00  0.00000E+00  9.000E+00
      21    -1     0     0   511   502  0.000000000E+00  0.000000000E+00 -2.582620826E+02  2.582620826E+02  0.000000000E+00  0.00000E+00  9.000E+00
      25     1     1     2     0     0  2.311590109E+02 -9.073199787E+01  2.688685999E+02  3.867584618E+02  1.250000000E+02  0.00000E+00  9.000E+00
      25     1     1     2     0     0 -1.575037793E+01  1.547639536E+02  1.427166351E+02  2.453426047E+02  1.250000000E+02  0.00000E+00  9.000E+00
      21     1     1     2   511   501 -2.154086330E+02 -6.403195569E+01 -6.270087504E+01  2.333074586E+02  2.336015456E-06  0.00000E+00  9.000E+00
#rwgt            1           1   2.9513475313373890E-002          10      105279           0
</event>
<event>
      5   9999  3.19816E-02  5.40898E+01 -1.00000E+00  1.37155E-01
      21    -1     0     0   502   501  0.000000000E+00  0.000000000E+00  4.162332613E+02  4.162332613E+02  0.000000000E+00  0.00000E+00  9.000E+00
       2    -1     0     0   501     0  0.000000000E+00  0.000000000E+00 -1.732490102E+03  1.732490102E+03  0.000000000E+00  0.00000E+00  9.000E+00
      25     1     1     2     0     0 -5.420351324E+02  3.388357504E+02 -2.297953169E+02  6.906827334E+02  1.250000000E+02  0.00000E+00  9.000E+00
      25     1     1     2     0     0  5.594859736E+02 -3.900331864E+02 -4.664496037E+02  8.356737844E+02  1.250000000E+02  0.00000E+00  9.000E+00
       2     1     1     2   502     0 -1.745084119E+01  5.119743605E+01 -6.200119199E+02  6.223668454E+02  7.629394531E-06  0.00000E+00  9.000E+00
#rwgt            1           1   2.4188283297620707E-002          10      105313           0
</event>
<event>
      5   9999  3.19816E-02  7.54011E+01 -1.00000E+00  1.29606E-01
      21    -1     0     0   511   501  0.000000000E+00  0.000000000E+00  6.727399406E+02  6.727399406E+02  0.000000000E+00  0.00000E+00  9.000E+00
      21    -1     0     0   501   502  0.000000000E+00  0.000000000E+00 -1.640667539E+02  1.640667539E+02  0.000000000E+00  0.00000E+00  9.000E+00
      25     1     1     2     0     0  2.053797904E+02 -5.151037446E+01  1.058239380E+02  2.676899005E+02  1.250000000E+02  0.00000E+00  9.000E+00
      25     1     1     2     0     0 -2.793720648E+02  6.601801751E+01  2.575506917E+02  4.054189044E+02  1.250000000E+02  0.00000E+00  9.000E+00
      21     1     1     2   511   502  7.399227435E+01 -1.450764305E+01  1.452985571E+02  1.636978896E+02  2.697398305E-06  0.00000E+00  9.000E+00
#rwgt            1           1   2.2299132120906971E-002          10      105471           0
</event>
<event>
      5   9999  3.19816E-02  1.95380E+02 -1.00000E+00  1.12019E-01
      21    -1     0     0   502   501  0.000000000E+00  0.000000000E+00  1.640398870E+03  1.640398870E+03  0.000000000E+00  0.00000E+00  9.000E+00
      21    -1     0     0   512   502  0.000000000E+00  0.000000000E+00 -3.677789276E+02  3.677789276E+02  0.000000000E+00  0.00000E+00  9.000E+00
      25     1     1     2     0     0 -4.416169872E+02  2.155883026E+02  3.416831743E+02  6.114542266E+02  1.250000000E+02  0.00000E+00  9.000E+00
      25     1     1     2     0     0  4.892223890E+02 -2.609654413E+01  1.051775536E+03  1.166994582E+03  1.250000000E+02  0.00000E+00  9.000E+00
      21     1     1     2   512   501 -4.760540187E+01 -1.894917584E+02 -1.208387678E+02  2.297289895E+02  4.264961200E-06  0.00000E+00  9.000E+00
#rwgt            2          11   4.7665740647051848E-003          10      105582           0
</event>
<event>
      5   9999  3.19816E-02  6.28877E+01 -1.00000E+00  1.33621E-01
      21    -1     0     0   511   501  0.000000000E+00  0.000000000E+00  5.060738512E+02  5.060738512E+02  0.000000000E+00  0.00000E+00  9.000E+00
      21    -1     0     0   501   502  0.000000000E+00  0.000000000E+00 -4.114099890E+02  4.114099890E+02  0.000000000E+00  0.00000E+00  9.000E+00
      25     1     1     2     0     0  6.989473185E+01 -2.744374650E+02  3.140600808E+02  4.409761105E+02  1.250000000E+02  0.00000E+00  9.000E+00
      25     1     1     2     0     0 -1.433196869E+01  3.038931523E+02 -2.434196661E+02  4.091877163E+02  1.250000000E+02  0.00000E+00  9.000E+00
      21     1     1     2   511   502 -5.556276316E+01 -2.945568731E+01  2.402344761E+01  6.732001336E+01  1.651812370E-06  0.00000E+00  9.000E+00
#rwgt            1           1   3.3192710900907918E-002          10      105602           0
</event>
<event>
      5   9999  3.19816E-02  1.20391E+01 -1.00000E+00  1.86880E-01
      21    -1     0     0   502   501  0.000000000E+00  0.000000000E+00  7.287970261E+02  7.287970261E+02  0.000000000E+00  0.00000E+00  9.000E+00
      21    -1     0     0   501   512  0.000000000E+00  0.000000000E+00 -1.140193236E+03  1.140193236E+03  0.000000000E+00  0.00000E+00  9.000E+00
      25     1     1     2     0     0 -4.864445323E+02 -6.919512813E+02  6.847084061E+01  8.577517792E+02  1.250000000E+02  0.00000E+00  9.000E+00
      25     1     1     2     0     0  4.773457940E+02  6.840676062E+02 -4.054497059E+02  9.358536001E+02  1.250000000E+02  0.00000E+00  9.000E+00
      21     1     1     2   502   512  9.098738302E+00  7.883675176E+00 -7.441734438E+01  7.538488255E+01  9.536743164E-07  0.00000E+00  9.000E+00
#rwgt            1           1   2.0248773394002682E-002          10      105700           0
</event>
<event>
      5   9999  3.19816E-02  5.75750E+01 -1.00000E+00  1.35668E-01
      21    -1     0     0   502   501  0.000000000E+00  0.000000000E+00  7.166205002E+02  7.166205002E+02  0.000000000E+00  0.00000E+00  9.000E+00
       2    -1     0     0   501     0  0.000000000E+00  0.000000000E+00 -7.261739222E+02  7.261739222E+02  0.000000000E+00  0.00000E+00  9.000E+00
      25     1     1     2     0     0  8.999019160E+01 -3.734471904E+02 -2.078276835E+02  4.542888780E+02  1.250000000E+02  0.00000E+00  9.000E+00
      25     1     1     2     0     0 -1.334426243E+02  4.112197345E+02  5.049954597E+02  6.764273932E+02  1.250000000E+02  0.00000E+00  9.000E+00
       2     1     1     2   502     0  4.345243269E+01 -3.777254410E+01 -3.067211983E+02  3.120781512E+02  6.607249480E-06  0.00000E+00  9.000E+00
#rwgt            1           1   2.7841264041518633E-002          10      106014           0
</event>
<event>
      5   9999  3.19816E-02  2.16129E+01 -1.00000E+00  1.63637E-01
      21    -1     0     0   502   511  0.000000000E+00  0.000000000E+00  1.624076367E+02  1.624076367E+02  0.000000000E+00  0.00000E+00  9.000E+00
      21    -1     0     0   501   502  0.000000000E+00  0.000000000E+00 -3.240933642E+02  3.240933642E+02  0.000000000E+00  0.00000E+00  9.000E+00
      25     1     1     2     0     0 -5.520997929E+01  1.456787376E+02 -7.129296809E+01  2.120804652E+02  1.250000000E+02  0.00000E+00  9.000E+00
      25     1     1     2     0     0  6.918314992E+01 -1.291902812E+02 -1.278422115E+02  2.311818938E+02  1.250000000E+02  0.00000E+00  9.000E+00
      21     1     1     2   501   511 -1.397317063E+01 -1.648845645E+01  3.744945209E+01  4.323864193E+01  4.768371582E-07  0.00000E+00  9.000E+00
#rwgt            1           1   2.8663835014611849E-002          10      106129           0
</event>
<event>
      5   9999  3.19816E-02  5.51865E+01 -1.00000E+00  1.36673E-01
      21    -1     0     0   502   512  0.000000000E+00  0.000000000E+00  3.340834392E+02  3.340834392E+02  0.000000000E+00  0.00000E+00  9.000E+00
      21    -1     0     0   501   502  0.000000000E+00  0.000000000E+00 -3.679965341E+02  3.679965341E+02  0.000000000E+00  0.00000E+00  9.000E+00
      25     1     1     2     0     0  1.156270156E+02  3.814945312E+01 -2.123445670E+02  2.748457798E+02  1.250000000E+02  0.00000E+00  9.000E+00
      25     1     1     2     0     0 -1.494899444E+02 -8.172524304E+01 -2.836225733E+01  2.132033688E+02  1.250000000E+02  0.00000E+00  9.000E+00
      21     1     1     2   501   512  3.386292885E+01  4.357578992E+01  2.067937294E+02  2.140308247E+02  3.814697266E-06  0.00000E+00  9.000E+00
#rwgt            1           1   2.8394790720587825E-002          10      106285           0
</event>
<event>
      5   9999  3.19816E-02  2.91136E+01 -1.00000E+00  1.53950E-01
      21    -1     0     0   502   501  0.000000000E+00  0.000000000E+00  1.227450638E+02  1.227450638E+02  0.000000000E+00  0.00000E+00  9.000E+00
      21    -1     0     0   501   511  0.000000000E+00  0.000000000E+00 -3.463026433E+02  3.463026433E+02  0.000000000E+00  0.00000E+00  9.000E+00
      25     1     1     2     0     0 -2.389508238E+01  6.799706053E+01 -1.920637097E+02  2.402249858E+02  1.250000000E+02  0.00000E+00  9.000E+00
      25     1     1     2     0     0  3.881528102E+01 -9.299687731E+01  2.762798599E+01  1.629213026E+02  1.250000000E+02  0.00000E+00  9.000E+00
      21     1     1     2   502   511 -1.492019864E+01  2.499981677E+01 -5.912185577E+01  6.590141877E+01  6.743495762E-07  0.00000E+00  9.000E+00
#rwgt            1           1   2.6159161626530369E-002          10      106428           0
</event>
<event>
      5   9999  3.19816E-02  4.18343E+02 -1.00000E+00  1.01103E-01
       1    -1     0     0   502     0  0.000000000E+00  0.000000000E+00  6.938747376E+02  6.938747376E+02  0.000000000E+00  0.00000E+00  9.000E+00
      21    -1     0     0   501   502  0.000000000E+00  0.000000000E+00 -1.460456971E+03  1.460456971E+03  0.000000000E+00  0.00000E+00  9.000E+00
      25     1     1     2     0     0  5.842329103E+02 -4.019890151E+01 -1.803005295E+02  6.253617561E+02  1.250000000E+02  0.00000E+00  9.000E+00
      25     1     1     2     0     0 -3.365268901E+02  3.773222914E+02 -8.766804682E+02  1.019713736E+03  1.250000000E+02  0.00000E+00  9.000E+00
       1     1     1     2   501     0 -2.477060201E+02 -3.371233899E+02  2.903987640E+02  5.092562170E+02  5.394796609E-06  0.00000E+00  9.000E+00
#rwgt            2          17   4.2725238300072731E-004          10      106547           0
</event>
<event>
      5   9999  3.19816E-02  3.45680E+01 -1.00000E+00  1.48884E-01
      21    -1     0     0   511   501  0.000000000E+00  0.000000000E+00  4.823308215E+02  4.823308215E+02  0.000000000E+00  0.00000E+00  9.000E+00
      21    -1     0     0   501   502  0.000000000E+00  0.000000000E+00 -3.612109979E+02  3.612109979E+02  0.000000000E+00  0.00000E+00  9.000E+00
      25     1     1     2     0     0  2.701371138E+02 -5.008129720E+01  1.481212954E+01  3.022029049E+02  1.250000000E+02  0.00000E+00  9.000E+00
      25     1     1     2     0     0 -2.355701658E+02  5.035288140E+01 -1.311206929E+02  3.014072855E+02  1.250000000E+02  0.00000E+00  9.000E+00
      21     1     1     2   511   502 -3.456694798E+01 -2.715842039E-01  2.374283869E+02  2.399316289E+02  0.000000000E+00  0.00000E+00  9.000E+00
#rwgt            1           1   2.9409496808257749E-002          10      106581           0
</event>
<event>
      5   9999  3.19816E-02  1.10851E+03 -1.00000E+00  8.99300E-02
       2    -1     0     0   502     0  0.000000000E+00  0.000000000E+00  1.194995318E+03  1.194995318E+03  0.000000000E+00  0.00000E+00  9.000E+00
      21    -1     0     0   501   502  0.000000000E+00  0.000000000E+00 -1.617521259E+03  1.617521259E+03  0.000000000E+00  0.00000E+00  9.000E+00
      25     1     1     2     0     0 -2.106507295E+02 -3.642357163E+02  1.232696220E+02  4.559186184E+02  1.250000000E+02  0.00000E+00  9.000E+00
      25     1     1     2     0     0  2.484550702E+01 -7.285883822E+02 -9.256015623E+02  1.184829769E+03  1.250000000E+02  0.00000E+00  9.000E+00
       2     1     1     2   501     0  1.858052225E+02  1.092824099E+03  3.798059992E+02  1.171768189E+03  2.803218547E-05  0.00000E+00  9.000E+00
#rwgt            2          18   5.6421399913419057E-004          10      106989           0
</event>
<event>
      5   9999  3.19816E-02  8.08219E+02 -1.00000E+00  9.32673E-02
      21    -1     0     0   502   501  0.000000000E+00  0.000000000E+00  4.219039651E+02  4.219039651E+02  0.000000000E+00  0.00000E+00  9.000E+00
      21    -1     0     0   511   502  0.000000000E+00  0.000000000E+00 -2.520965985E+03  2.520965985E+03  0.000000000E+00  0.00000E+00  9.000E+00
      25     1     1     2     0     0 -5.667391956E+01  8.719006319E+01  1.097245080E+02  1.961593942E+02  1.250000000E+02  0.00000E+00  9.000E+00
      25     1     1     2     0     0 -6.615084161E+02 -4.579094218E+02 -1.262315294E+03  1.502111622E+03  1.250000000E+02  0.00000E+00  9.000E+00
      21     1     1     2   511   501  7.181823357E+02  3.707193586E+02 -9.464712342E+02  1.244598934E+03  1.525878906E-05  0.00000E+00  9.000E+00
#rwgt            2          11   7.5766029619573716E-004          10      107158           0
</event>
<event>
      5   9999  3.19816E-02  1.21620E+01 -1.00000E+00  1.86418E-01
      21    -1     0     0   502   501  0.000000000E+00  0.000000000E+00  2.627024564E+03  2.627024564E+03  0.000000000E+00  0.00000E+00  9.000E+00
      21    -1     0     0   512   502  0.000000000E+00  0.000000000E+00 -1.030864042E+02  1.030864042E+02  0.000000000E+00  0.00000E+00  9.000E+00
      25     1     1     2     0     0 -4.507410305E+02 -7.002800830E+01  1.039350494E+03  1.141904483E+03  1.250000000E+02  0.00000E+00  9.000E+00
      25     1     1     2     0     0  4.398256334E+02  6.466435561E+01  1.499480324E+03  1.568978747E+03  1.250000000E+02  0.00000E+00  9.000E+00
      21     1     1     2   512   501  1.091539708E+01  5.363652690E+00 -1.489265804E+01  1.922773848E+01  2.920019320E-07  0.00000E+00  9.000E+00
#rwgt            1           1   7.3556433526569556E-002          10      107193           0
</event>
<event>
      5   9999  3.19816E-02  8.32097E+01 -1.00000E+00  1.27528E-01
      21    -1     0     0   502   501  0.000000000E+00  0.000000000E+00  2.546924893E+02  2.546924893E+02  0.000000000E+00  0.00000E+00  9.000E+00
      21    -1     0     0   501   511  0.000000000E+00  0.000000000E+00 -1.552124867E+03  1.552124867E+03  0.000000000E+00  0.00000E+00  9.000E+00
      25     1     1     2     0     0 -1.165511355E+01  3.988553207E+02 -1.104150702E+03  1.180675730E+03  1.250000000E+02  0.00000E+00  9.000E+00
      25     1     1     2     0     0 -3.944445843E+01 -4.645263732E+02 -8.582804855E+01  4.902367495E+02  1.250000000E+02  0.00000E+00  9.000E+00
      21     1     1     2   502   511  5.109957197E+01  6.567105243E+01 -1.074536279E+02  1.359048768E+02  1.907348633E-06  0.00000E+00  9.000E+00
#rwgt            1           1   1.5621183659652363E-002          10      107459           0
</event>
<event>
      5   9999  3.19816E-02  4.08018E+01 -1.00000E+00  1.44308E-01
      21    -1     0     0   502   512  0.000000000E+00  0.000000000E+00  2.027477177E+03  2.027477177E+03  0.000000000E+00  0.00000E+00  9.000E+00
      21    -1     0     0   501   502  0.000000000E+00  0.000000000E+00 -3.770182501E+02  3.770182501E+02  0.000000000E+00  0.00000E+00  9.000E+00
      25     1     1     2     0     0 -1.334464580E+02  1.525789379E+02 -3.285479138E+02  4.057795228E+02  1.250000000E+02  0.00000E+00  9.000E+00
      25     1     1     2     0     0  1.432925042E+02 -1.129829053E+02  1.855665083E+03  1.868800626E+03  1.250000000E+02  0.00000E+00  9.000E+00
      21     1     1     2   501   512 -9.846046144E+00 -3.959603263E+01  1.233417576E+02  1.299152785E+02  2.697398305E-06  0.00000E+00  9.000E+00
#rwgt            1           1   3.4017765968966086E-002          10      107590           0
</event>
<event>
      5   9999  3.19816E-02  2.03337E+02 -1.00000E+00  1.11387E-01
       1    -1     0     0   502     0  0.000000000E+00  0.000000000E+00  1.697019657E+03  1.697019657E+03  0.000000000E+00  0.00000E+00  9.000E+00
      21    -1     0     0   501   502  0.000000000E+00  0.000000000E+00 -1.657862770E+02  1.657862770E+02  0.000000000E+00  0.00000E+00  9.000E+00
      25     1     1     2     0     0  4.266792048E+02 -1.800882886E+01  4.089015620E+02  6.043218920E+02  1.250000000E+02  0.00000E+00  9.000E+00
      25     1     1     2     0     0 -2.233615033E+02  2.077752091E+01  2.348174650E+02  3.479745801E+02  1.250000000E+02  0.00000E+00  9.000E+00
       1     1     1     2   501     0 -2.033177015E+02 -2.768692052E+00  8.875143535E+02  9.105094624E+02  2.157918644E-05  0.00000E+00  9.000E+00
#rwgt            2          17   5.4545296916604568E-004          10      108029           0
</event>
<event>
      5   9999  3.19816E-02  6.24603E+01 -1.00000E+00  1.33777E-01
      21    -1     0     0   511   501  0.000000000E+00  0.000000000E+00  1.318258517E+02  1.318258517E+02  0.000000000E+00  0.00000E+00  9.000E+00
      21    -1     0     0   501   502  0.000000000E+00  0.000000000E+00 -1.563755868E+03  1.563755868E+03  0.000000000E+00  0.00000E+00  9.000E+00
      25     1     1     2     0     0 -2.825149391E+02  2.115343468E+02 -4.841790940E+02  6.120587110E+02  1.250000000E+02  0.00000E+00  9.000E+00
      25     1     1     2     0     0  2.609844527E+02 -2.701665266E+02 -9.407693365E+02  1.020673690E+03  1.250000000E+02  0.00000E+00  9.000E+00
      21     1     1     2   511   502  2.153048648E+01  5.863217980E+01 -6.981585909E+00  6.284931899E+01  9.424321831E-07  0.00000E+00  9.000E+00
#rwgt            1           1   2.6676768168832014E-002          10      108078           0
</event>
<event>
      5   9999  3.19816E-02  2.73512E+01 -1.00000E+00  1.55881E-01
      21    -1     0     0   502   501  0.000000000E+00  0.000000000E+00  2.140633576E+03  2.140633576E+03  0.000000000E+00  0.00000E+00  9.000E+00
      21    -1     0     0   512   502  0.000000000E+00  0.000000000E+00 -3.363308528E+02  3.363308528E+02  0.000000000E+00  0.00000E+00  9.000E+00
      25     1     1     2     0     0  3.705380051E+02 -3.248156244E+02  2.275310764E+02  5.569551093E+02  1.250000000E+02  0.00000E+00  9.000E+00
      25     1     1     2     0     0 -3.838563428E+02  3.009260878E+02  1.710728414E+03  1.783288790E+03  1.250000000E+02  0.00000E+00  9.000E+00
      21     1     1     2   512   501  1.331833769E+01  2.388953659E+01 -1.339567665E+02  1.367205302E+02  3.303624740E-06  0.00000E+00  9.000E+00
#rwgt            1           1   2.3443582080354998E-002          10      108161           0
</event>
<event>
      5   9999  3.19816E-02  2.95027E+01 -1.00000E+00  1.53546E-01
       2    -1     0     0   502     0  0.000000000E+00  0.000000000E+00  1.601983071E+03  1.601983071E+03  0.000000000E+00  0.00000E+00  9.000E+00
      21    -1     0     0   501   502  0.000000000E+00  0.000000000E+00 -1.451920636E+02  1.451920636E+02  0.000000000E+00  0.00000E+00  9.000E+00
      25     1     1     2     0     0 -1.580260331E+02 -2.517381745E+01  1.361497065E+02  2.444743152E+02  1.250000000E+02  0.00000E+00  9.000E+00
      25     1     1     2     0     0  1.352767209E+02  6.388769067E+00  2.586380578E+00  1.843157534E+02  1.250000000E+02  0.00000E+00  9.000E+00
       2     1     1     2   501     0  2.274931215E+01  1.878504838E+01  1.318054920E+03  1.318385065E+03  1.525878906E-05  0.00000E+00  9.000E+00
#rwgt            1           1   2.9804925731924545E-002          10      108349           0
</event>
<event>
      5   9999  3.19816E-02  1.20846E+02 -1.00000E+00  1.20239E-01
      21    -1     0     0   502   511  0.000000000E+00  0.000000000E+00  3.569157759E+02  3.569157759E+02  0.000000000E+00  0.00000E+00  9.000E+00
      21    -1     0     0   501   502  0.000000000E+00  0.000000000E+00 -5.529634187E+02  5.529634187E+02  0.000000000E+00  0.00000E+00  9.000E+00
      25     1     1     2     0     0 -5.659109099E+01  3.895520180E+01  5.500135703E+01  1.528731782E+02  1.250000000E+02  0.00000E+00  9.000E+00
      25     1     1     2     0     0 -6.159260084E+01 -1.373111601E+01 -4.789762478E+02  4.990244863E+02  1.250000000E+02  0.00000E+00  9.000E+00
      21     1     1     2   501   511  1.181836918E+02 -2.522408579E+01  2.279272480E+02  2.579815301E+02  0.000000000E+00  0.00000E+00  9.000E+00
#rwgt            1           1   2.8487536613503488E-002          10      108468           0
</event>
<event>
      5   9999  3.19816E-02  5.92551E+01 -1.00000E+00  1.34994E-01
      21    -1     0     0   512   501  0.000000000E+00  0.000000000E+00  5.822255067E+02  5.822255067E+02  0.000000000E+00  0.00000E+00  9.000E+00
      21    -1     0     0   501   502  0.000000000E+00  0.000000000E+00 -1.684612690E+03  1.684612690E+03  0.000000000E+00  0.00000E+00  9.000E+00
      25     1     1     2     0     0 -2.089929554E+02 -8.039650308E+02 -1.097222310E+03  1.381868165E+03  1.250000000E+02  0.00000E+00  9.000E+00
      25     1     1     2     0     0  2.571770609E+02  7.694765722E+02 -2.825418879E+01  8.213753923E+02  1.250000000E+02  0.00000E+00  9.000E+00
      21     1     1     2   512   502 -4.818410555E+01  3.448845858E+01  2.308931519E+01  6.359464034E+01  1.168007728E-06  0.00000E+00  9.000E+00
#rwgt            1           1   3.2462385370220830E-002          10      108540           0
</event>
<event>
      5   9999  3.19816E-02  3.41872E+02 -1.00000E+00  1.03781E-01
       2    -1     0     0   502     0  0.000000000E+00  0.000000000E+00  3.330306469E+03  3.330306469E+03  0.000000000E+00  0.00000E+00  9.000E+00
      21    -1     0     0   501   502  0.000000000E+00  0.000000000E+00 -5.511283802E+01  5.511283802E+01  0.000000000E+00  0.00000E+00  9.000E+00
      25     1     1     2     0     0 -5.827538196E+01 -6.280805258E+01  7.486066566E+02  7.637917242E+02  1.250000000E+02  0.00000E+00  9.000E+00
      25     1     1     2     0     0 -2.464554151E+02 -9.216264007E+01  6.250002614E+02  6.895538779E+02  1.250000000E+02  0.00000E+00  9.000E+00
       2     1     1     2   501     0  3.047307970E+02  1.549706926E+02  1.901586713E+03  1.932073705E+03  3.051757812E-05  0.00000E+00  9.000E+00
#rwgt            2          18   5.0389239387269606E-003          10      108671           0
</event>
<event>
      5   9999  3.19816E-02  2.41345E+02 -1.00000E+00  1.08756E-01
       2    -1     0     0   502     0  0.000000000E+00  0.000000000E+00  1.215951542E+03  1.215951542E+03  0.000000000E+00  0.00000E+00  9.000E+00
      21    -1     0     0   501   502  0.000000000E+00  0.000000000E+00 -1.203506766E+02  1.203506766E+02  0.000000000E+00  0.00000E+00  9.000E+00
      25     1     1     2     0     0  1.349913713E+02  4.905455843E+01  2.021753923E+02  2.777209198E+02  1.250000000E+02  0.00000E+00  9.000E+00
      25     1     1     2     0     0 -7.579819634E+01 -2.830277596E+02  5.937445379E+02  6.738009021E+02  1.250000000E+02  0.00000E+00  9.000E+00
       2     1     1     2   501     0 -5.919317493E+01  2.339732012E+02  2.996809347E+02  3.847803964E+02  3.814697266E-06  0.00000E+00  9.000E+00
#rwgt            1           1   1.3636240605506941E-002          10      108690           0
</event>
<event>
      5   9999  3.19816E-02  1.89325E+02 -1.00000E+00  1.12522E-01
      21    -1     0     0   502   501  0.000000000E+00  0.000000000E+00  2.425218149E+02  2.425218149E+02  0.000000000E+00  0.00000E+00  9.000E+00
       1    -1     0     0   501     0  0.000000000E+00  0.000000000E+00 -1.319556380E+03  1.319556380E+03  0.000000000E+00  0.00000E+00  9.000E+00
      25     1     1     2     0     0 -1.824009148E+02 -1.141731437E+02 -1.133606982E+03  1.160601305E+03  1.250000000E+02  0.00000E+00  9.000E+00
      25     1     1     2     0     0  9.327139472E+01 -5.285936885E+01 -6.437917375E+01  1.768144337E+02  1.250000000E+02  0.00000E+00  9.000E+00
       1     1     1     2   502     0  8.912952005E+01  1.670325125E+02  1.209515910E+02  2.246624556E+02  4.264961200E-06  0.00000E+00  9.000E+00
#rwgt            1           1   2.8797099334362423E-002          10      108768           0
</event>
<event>
      5   9999  3.19816E-02  1.85871E+01 -1.00000E+00  1.69038E-01
      21    -1     0     0   511   501  0.000000000E+00  0.000000000E+00  3.855430781E+02  3.855430781E+02  0.000000000E+00  0.00000E+00  9.000E+00
      21    -1     0     0   501   502  0.000000000E+00  0.000000000E+00 -2.714464179E+02  2.714464179E+02  0.000000000E+00  0.00000E+00  9.000E+00
      25     1     1     2     0     0  1.159560020E+02 -1.388915103E+02  1.649996144E+02  2.749300252E+02  1.250000000E+02  0.00000E+00  9.000E+00
      25     1     1     2     0     0 -1.345298001E+02  1.395954613E+02 -1.539640435E+02  2.773356930E+02  1.250000000E+02  0.00000E+00  9.000E+00
      21     1     1     2   511   502  1.857379809E+01 -7.039510071E-01  1.030610892E+02  1.047237778E+02  0.000000000E+00  0.00000E+00  9.000E+00
#rwgt            1           1   3.3153259487131888E-002          10      108823           0
</event>
<event>
      5   9999  3.19816E-02  9.10537E+01 -1.00000E+00  1.25687E-01
      21    -1     0     0   502   501  0.000000000E+00  0.000000000E+00  6.815574784E+02  6.815574784E+02  0.000000000E+00  0.00000E+00  9.000E+00
      21    -1     0     0   512   502  0.000000000E+00  0.000000000E+00 -4.067525271E+02  4.067525271E+02  0.000000000E+00  0.00000E+00  9.000E+00
      25     1     1     2     0     0  1.254883041E+02 -8.908151938E+01  4.639066322E+01  2.036171044E+02  1.250000000E+02  0.00000E+00  9.000E+00
      25     1     1     2     0     0 -1.413139101E+02  1.787493415E+02  5.188586198E+02  5.803104476E+02  1.250000000E+02  0.00000E+00  9.000E+00
      21     1     1     2   512   501  1.582560599E+01 -8.966782216E+01 -2.904443317E+02  3.043824535E+02  7.629394531E-06  0.00000E+00  9.000E+00
#rwgt            1           1   2.3247118839124677E-002          10      109025           0
</event>
<event>
      5   9999  3.19816E-02  7.32523E+01 -1.00000E+00  1.30230E-01
      21    -1     0     0   511   501  0.000000000E+00  0.000000000E+00  1.959511219E+03  1.959511219E+03  0.000000000E+00  0.00000E+00  9.000E+00
      21    -1     0     0   501   502  0.000000000E+00  0.000000000E+00 -1.370022166E+02  1.370022166E+02  0.000000000E+00  0.00000E+00  9.000E+00
      25     1     1     2     0     0  3.852306063E+02 -2.120486429E+02  8.118755265E+02  9.317371505E+02  1.250000000E+02  0.00000E+00  9.000E+00
      25     1     1     2     0     0 -3.478881168E+02  1.490293510E+02  4.573076781E+02  6.066227837E+02  1.250000000E+02  0.00000E+00  9.000E+00
      21     1     1     2   511   502 -3.734248955E+01  6.301929195E+01  5.533257973E+02  5.581535010E+02  7.629394531E-06  0.00000E+00  9.000E+00
#rwgt            2          11   1.3802978988650438E-003          10      109231           0
</event>
<event>
      5   9999  3.19816E-02  1.24654E+02 -1.00000E+00  1.19671E-01
      21    -1     0     0   502   501  0.000000000E+00  0.000000000E+00  8.357202612E+02  8.357202612E+02  0.000000000E+00  0.00000E+00  9.000E+00
      21    -1     0     0   501   512  0.000000000E+00  0.000000000E+00 -1.173466028E+03  1.173466028E+03  0.000000000E+00  0.00000E+00  9.000E+00
      25     1     1     2     0     0 -3.221893174E+02  8.114914898E+02 -1.249546610E+02  8.908215655E+02  1.250000000E+02  0.00000E+00  9.000E+00
      25     1     1     2     0     0  2.726286387E+02 -9.258697466E+02 -1.854030464E+02  9.907373274E+02  1.250000000E+02  0.00000E+00  9.000E+00
      21     1     1     2   502   512  4.956067872E+01  1.143782568E+02 -2.738805947E+01  1.276273963E+02  2.739220927E-06  0.00000E+00  9.000E+00
#rwgt            1           1   2.8702910614866368E-002          10      109251           0
</event>
<event>
      5   9999  3.19816E-02  1.07100E+02 -1.00000E+00  1.22503E-01
       2    -1     0     0   502     0  0.000000000E+00  0.000000000E+00  8.459645436E+02  8.459645436E+02  0.000000000E+00  0.00000E+00  9.000E+00
      21    -1     0     0   501   502  0.000000000E+00  0.000000000E+00 -7.343429987E+01  7.343429987E+01  0.000000000E+00  0.00000E+00  9.000E+00
      25     1     1     2     0     0  2.797882404E+01  1.216481169E+02  1.356019140E+02  2.226970095E+02  1.250000000E+02  0.00000E+00  9.000E+00
      25     1     1     2     0     0 -8.052848528E+01 -2.832631263E+01  2.257202975E+02  2.717754029E+02  1.250000000E+02  0.00000E+00  9.000E+00
       2     1     1     2   501     0  5.254966123E+01 -9.332180431E+01  4.112080322E+02  4.249264311E+02  5.394796609E-06  0.00000E+00  9.000E+00
#rwgt            1           1   2.5813058547037405E-002          10      109391           0
</event>
<event>
      5   9999  3.19816E-02  7.04827E+01 -1.00000E+00  1.31070E-01
      21    -1     0     0   502   511  0.000000000E+00  0.000000000E+00  3.511925573E+03  3.511925573E+03  0.000000000E+00  0.00000E+00  9.000E+00
      21    -1     0     0   501   502  0.000000000E+00  0.000000000E+00 -2.249142497E+02  2.249142497E+02  0.000000000E+00  0.00000E+00  9.000E+00
      25     1     1     2     0     0  1.990053747E+02  4.695508699E+02  1.114585217E+03  1.232074009E+03  1.250000000E+02  0.00000E+00  9.000E+00
      25     1     1     2     0     0 -1.916132176E+02 -3.994568491E+02  1.544401354E+02  4.855493331E+02  1.250000000E+02  0.00000E+00  9.000E+00
      21     1     1     2   501   511 -7.392157093E+00 -7.009402081E+01  2.017985970E+03  2.019216480E+03  4.315837288E-05  0.00000E+00  9.000E+00
#rwgt            1           1   2.9170384016494671E-002          10      109449           0
</event>
<event>
      5   9999  3.19816E-02  3.33301E+02 -1.00000E+00  1.04128E-01
      21    -1     0     0   502   501  0.000000000E+00  0.000000000E+00  4.317362347E+02  4.317362347E+02  0.000000000E+00  0.00000E+00  9.000E+00
       2    -1     0     0   501     0  0.000000000E+00  0.000000000E+00 -8.322572646E+02  8.322572646E+02  0.000000000E+00  0.00000E+00  9.000E+00
      25     1     1     2     0     0 -1.563604181E+02  1.973282165E+02  2.282625280E+02  3.620991399E+02  1.250000000E+02  0.00000E+00  9.000E+00
      25     1     1     2     0     0 -1.526473661E+02 -7.241459220E+01 -2.424069052E+01  2.115601631E+02  1.250000000E+02  0.00000E+00  9.000E+00
       2     1     1     2   502     0  3.090077842E+02 -1.249136243E+02 -6.045428673E+02  6.903341964E+02  7.629394531E-06  0.00000E+00  9.000E+00
#rwgt            2          13   1.7515570214170996E-003          10      109568           0
</event>
<event>
      5   9999  3.19816E-02  2.40179E+01 -1.00000E+00  1.60066E-01
      21    -1     0     0   502   501  0.000000000E+00  0.000000000E+00  2.416990510E+03  2.416990510E+03  0.000000000E+00  0.00000E+00  9.000E+00
      21    -1     0     0   501   511  0.000000000E+00  0.000000000E+00 -2.665827767E+02  2.665827767E+02  0.000000000E+00  0.00000E+00  9.000E+00
      25     1     1     2     0     0 -4.829231123E+02 -4.097321606E+02  9.312412063E+02  1.133106509E+03  1.250000000E+02  0.00000E+00  9.000E+00
      25     1     1     2     0     0  5.028151520E+02  3.962723051E+02  1.306289842E+03  1.460093479E+03  1.250000000E+02  0.00000E+00  9.000E+00
      21     1     1     2   502   511 -1.989203970E+01  1.345985550E+01 -8.712331546E+01  9.037329833E+01  2.132480600E-06  0.00000E+00  9.000E+00
#rwgt            1           1   3.9247028417127218E-002          10      109587           0
</event>
<event>
      5   9999  3.19816E-02  1.40685E+02 -1.00000E+00  1.17508E-01
      21    -1     0     0   512   501  0.000000000E+00  0.000000000E+00  7.888800637E+02  7.888800637E+02  0.000000000E+00  0.00000E+00  9.000E+00
      21    -1     0     0   501   502  0.000000000E+00  0.000000000E+00 -1.179597322E+02  1.179597322E+02  0.000000000E+00  0.00000E+00  9.000E+00
      25     1     1     2     0     0 -1.756400280E+01  2.828215643E+01 -1.497057731E+01  1.302209382E+02  1.250000000E+02  0.00000E+00  9.000E+00
      25     1     1     2     0     0  7.863309019E+01 -1.550215684E+02  3.240627706E+02  3.884025345E+02  1.250000000E+02  0.00000E+00  9.000E+00
      21     1     1     2   512   502 -6.106908740E+01  1.267394120E+02  3.618281382E+02  3.882163231E+02  0.000000000E+00  0.00000E+00  9.000E+00
#rwgt            1           1   3.0113171272303663E-002          10      109725           0
</event>
<event>
      5   9999  3.19816E-02  2.92380E+01 -1.00000E+00  1.53820E-01
      21    -1     0     0   502   501  0.000000000E+00  0.000000000E+00  4.352017984E+01  4.352017984E+01  0.000000000E+00  0.00000E+00  9.000E+00
      21    -1     0     0   511   502  0.000000000E+00  0.000000000E+00 -2.849805280E+03  2.849805280E+03  0.000000000E+00  0.00000E+00  9.000E+00
      25     1     1     2     0     0 -1.914422979E+02  1.742485318E+02 -6.324769397E+02  6.947408031E+02  1.250000000E+02  0.00000E+00  9.000E+00
      25     1     1     2     0     0  2.122406862E+02 -1.536989129E+02 -1.763861419E+03  1.787596590E+03  1.250000000E+02  0.00000E+00  9.000E+00
      21     1     1     2   511   501 -2.079838826E+01 -2.054961889E+01 -4.099467416E+02  4.109880664E+02  0.000000000E+00  0.00000E+00  9.000E+00
#rwgt            1           1   6.2556643081385727E-002          10      109848           0
</event>
<event>
      5   9999  3.19816E-02  2.73444E+02 -1.00000E+00  1.06917E-01
       2    -1     0     0   502     0  0.000000000E+00  0.000000000E+00  5.864696816E+02  5.864696816E+02  0.000000000E+00  0.00000E+00  9.000E+00
      21    -1     0     0   501   502  0.000000000E+00  0.000000000E+00 -8.312209071E+02  8.312209071E+02  0.000000000E+00  0.00000E+00  9.000E+00
      25     1     1     2     0     0 -2.599623162E+02  1.824519450E+02 -4.660704892E+02  5.776814165E+02  1.250000000E+02  0.00000E+00  9.000E+00
      25     1     1     2     0     0  1.639369681E+01 -3.067347445E+02 -1.620540204E+02  3.691090114E+02  1.250000000E+02  0.00000E+00  9.000E+00
       2     1     1     2   501     0  2.435686194E+02  1.242827995E+02  3.833732841E+02  4.709001609E+02  5.394796609E-06  0.00000E+00  9.000E+00
#rwgt            2          18   9.8504168487109937E-004          10      110150           0
</event>
<event>
      5   9999  3.19816E-02  1.38016E+02 -1.00000E+00  1.17845E-01
      21    -1     0     0   502   501  0.000000000E+00  0.000000000E+00  6.562094846E+01  6.562094846E+01  0.000000000E+00  0.00000E+00  9.000E+00
       2    -1     0     0   501     0  0.000000000E+00  0.000000000E+00 -2.896814339E+03  2.896814339E+03  0.000000000E+00  0.00000E+00  9.000E+00
      25     1     1     2     0     0  1.916582362E+02 -6.255772066E+01 -1.828689670E+02  2.995202948E+02  1.250000000E+02  0.00000E+00  9.000E+00
      25     1     1     2     0     0 -5.993147905E+01  2.136844093E+01 -1.299282248E+03  1.306831187E+03  1.250000000E+02  0.00000E+00  9.000E+00
       2     1     1     2   502     0 -1.317267572E+02  4.118927973E+01 -1.349042175E+03  1.356083805E+03  1.525878906E-05  0.00000E+00  9.000E+00
#rwgt            1           1   3.4360859285095850E-002          10      110169           0
</event>
<event>
      5   9999  3.19816E-02  5.03798E+01 -1.00000E+00  1.38888E-01
       2    -1     0     0   502     0  0.000000000E+00  0.000000000E+00  8.855553533E+02  8.855553533E+02  0.000000000E+00  0.00000E+00  9.000E+00
      21    -1     0     0   501   502  0.000000000E+00  0.000000000E+00 -7.102068998E+02  7.102068998E+02  0.000000000E+00  0.00000E+00  9.000E+00
      25     1     1     2     0     0  1.855585453E+02  1.350550053E+02  6.587974571E+01  2.695124655E+02  1.250000000E+02  0.00000E+00  9.000E+00
      25     1     1     2     0     0 -1.626995137E+02 -1.799503649E+02 -5.768160447E+02  6.381183393E+02  1.250000000E+02  0.00000E+00  9.000E+00
       2     1     1     2   501     0 -2.285903156E+01  4.489535962E+01  6.862847524E+02  6.881314482E+02  7.629394531E-06  0.00000E+00  9.000E+00
#rwgt            1           1   2.7768204265447939E-002          10      110246           0
</event>
<event>
      5   9999  3.19816E-02  1.48829E+02 -1.00000E+00  1.16529E-01
      21    -1     0     0   502   511  0.000000000E+00  0.000000000E+00  2.687825921E+03  2.687825921E+03  0.000000000E+00  0.00000E+00  9.000E+00
      21    -1     0     0   501   502  0.000000000E+00  0.000000000E+00 -4.103907192E+01  4.103907192E+01  0.000000000E+00  0.00000E+00  9.000E+00
      25     1     1     2     0     0  5.068735551E+01 -2.236644774E+02  1.726831580E+03  1.746472820E+03  1.250000000E+02  0.00000E+00  9.000E+00
      25     1     1     2     0     0 -3.638351139E+01  7.552436701E+01  2.184897593E+02  2.653120141E+02  1.250000000E+02  0.00000E+00  9.000E+00
      21     1     1     2   501   511 -1.430384412E+01  1.481401104E+02  7.014655094E+02  7.170801581E+02  0.000000000E+00  0.00000E+00  9.000E+00
#rwgt            2          11   5.2911195944977405E-003          10      110664           0
</event>
<event>
      5   9999  3.19816E-02  5.21292E+01 -1.00000E+00  1.38050E-01
      21    -1     0     0   512   501  0.000000000E+00  0.000000000E+00  4.805089803E+02  4.805089803E+02  0.000000000E+00  0.00000E+00  9.000E+00
      21    -1     0     0   501   502  0.000000000E+00  0.000000000E+00 -6.783034023E+02  6.783034023E+02  0.000000000E+00  0.00000E+00  9.000E+00
      25     1     1     2     0     0 -3.830012732E+02  1.187156948E+02 -4.536743844E+02  6.182465839E+02  1.250000000E+02  0.00000E+00  9.000E+00
      25     1     1     2     0     0  3.331456255E+02 -1.339427775E+02  1.258685591E+02  4.004929083E+02  1.250000000E+02  0.00000E+00  9.000E+00
      21     1     1     2   512   502  4.985564776E+01  1.522708270E+01  1.300114033E+02  1.400728905E+02  2.697398305E-06  0.00000E+00  9.000E+00
#rwgt            1           1   2.9195543131552076E-002          10      110684           0
</event>
<event>
      5   9999  3.19816E-02  8.57844E+01 -1.00000E+00  1.26899E-01
      21    -1     0     0   511   501  0.000000000E+00  0.000000000E+00  4.705137190E+02  4.705137190E+02  0.000000000E+00  0.00000E+00  9.000E+00
      21    -1     0     0   501   502  0.000000000E+00  0.000000000E+00 -6.954045265E+02  6.954045265E+02  0.000000000E+00  0.00000E+00  9.000E+00
      25     1     1     2     0     0 -4.960126679E+02 -5.134783745E+01 -1.236763898E+02  5.287589399E+02  1.250000000E+02  0.00000E+00  9.000E+00
      25     1     1     2     0     0  4.226191922E+02  6.936572793E+00 -2.184137321E+02  4.919193593E+02  1.250000000E+02  0.00000E+00  9.000E+00
      21     1     1     2   511   502  7.339347576E+01  4.441126466E+01  1.171993144E+02  1.452399463E+02  1.907348633E-06  0.00000E+00  9.000E+00
#rwgt            1           1   3.2159955551039413E-002          10      110806           0
</event>
<event>
      5   9999  3.19816E-02  1.57322E+02 -1.00000E+00  1.15579E-01
      21    -1     0     0   502   501  0.000000000E+00  0.000000000E+00  3.148483821E+03  3.148483821E+03  0.000000000E+00  0.00000E+00  9.000E+00
       2    -1     0     0   501     0  0.000000000E+00  0.000000000E+00 -9.613355467E+02  9.613355467E+02  0.000000000E+00  0.00000E+00  9.000E+00
      25     1     1     2     0     0  6.385577867E+02 -8.656791523E+02  8.735201627E+02  1.391337097E+03  1.250000000E+02  0.00000E+00  9.000E+00
      25     1     1     2     0     0 -7.377419476E+02  7.435609550E+02  1.866334016E+03  2.143822226E+03  1.250000000E+02  0.00000E+00  9.000E+00
       2     1     1     2   502     0  9.918416092E+01  1.221181973E+02 -5.527059041E+02  5.746600459E+02  0.000000000E+00  0.00000E+00  9.000E+00
#rwgt            1           1   2.9432801546473267E-002          10      110908           0
</event>
<event>
      5   9999  3.19816E-02  1.58241E+01 -1.00000E+00  1.75223E-01
      21    -1     0     0   502   501  0.000000000E+00  0.000000000E+00  9.314067270E+01  9.314067270E+01  0.000000000E+00  0.00000E+00  9.000E+00
      21    -1     0     0   501   511  0.000000000E+00  0.000000000E+00 -4.347289412E+02  4.347289412E+02  0.000000000E+00  0.00000E+00  9.000E+00
      25     1     1     2     0     0  3.360315207E+01  1.490163903E+02 -1.434122071E+02  2.439817976E+02  1.250000000E+02  0.00000E+00  9.000E+00
      25     1     1     2     0     0 -2.517167202E+01 -1.356256127E+02 -1.728682004E+02  2.540400256E+02  1.250000000E+02  0.00000E+00  9.000E+00
      21     1     1     2   502   511 -8.431480048E+00 -1.339077764E+01 -2.530786091E+01  2.984779063E+01  3.371747881E-07  0.00000E+00  9.000E+00
#rwgt            1           1   2.5877345805518395E-002          10      111011           0
</event>
<event>
      5   9999  3.19816E-02  7.44495E+01 -1.00000E+00  1.29879E-01
      21    -1     0     0   502   512  0.000000000E+00  0.000000000E+00  2.779756649E+02  2.779756649E+02  0.000000000E+00  0.00000E+00  9.000E+00
      21    -1     0     0   501   502  0.000000000E+00  0.000000000E+00 -3.588629153E+02  3.588629153E+02  0.000000000E+00  0.00000E+00  9.000E+00
      25     1     1     2     0     0 -1.369505513E+02 -5.014021214E+01  1.322580773E+02  2.332095482E+02  1.250000000E+02  0.00000E+00  9.000E+00
      25     1     1     2     0     0  9.903701181E+01  1.142127996E+02 -2.522428552E+02  3.195377150E+02  1.250000000E+02  0.00000E+00  9.000E+00
      21     1     1     2   501   512  3.791353947E+01 -6.407258743E+01  3.909752752E+01  8.409131699E+01  1.719260824E-06  0.00000E+00  9.000E+00
#rwgt            1           1   2.8089083807123008E-002          10      111133           0
</event>
<event>
      5   9999  3.19816E-02  3.91232E+01 -1.00000E+00  1.45440E-01
      21    -1     0     0   511   501  0.000000000E+00  0.000000000E+00  4.602654335E+01  4.602654335E+01  0.000000000E+00  0.00000E+00  9.000E+00
      21    -1     0     0   501   502  0.000000000E+00  0.000000000E+00 -1.119411767E+03  1.119411767E+03  0.000000000E+00  0.00000E+00  9.000E+00
      25     1     1     2     0     0  1.107754414E+02 -1.312905630E+02 -4.960793837E+02  5.396555988E+02  1.250000000E+02  0.00000E+00  9.000E+00
      25     1     1     2     0     0 -7.242455280E+01  1.235552341E+02 -5.368130792E+02  5.694773865E+02  1.250000000E+02  0.00000E+00  9.000E+00
      21     1     1     2   511   502 -3.835088860E+01  7.735328918E+00 -4.049276109E+01  5.630532542E+01  6.743495762E-07  0.00000E+00  9.000E+00
#rwgt            1           1   3.0053823435939511E-002          10      111203           0
</event>
<event>
      5   9999  3.19816E-02  1.71035E+01 -1.00000E+00  1.72177E-01
      21    -1     0     0   512   501  0.000000000E+00  0.000000000E+00  1.915295624E+02  1.915295624E+02  0.000000000E+00  0.00000E+00  9.000E+00
      21    -1     0     0   501   502  0.000000000E+00  0.000000000E+00 -5.848199305E+02  5.848199305E+02  0.000000000E+00  0.00000E+00  9.000E+00
      25     1     1     2     0     0 -1.932821913E+02 -8.267756500E+01  1.949768714E+01  2.453543254E+02  1.250000000E+02  0.00000E+00  9.000E+00
      25     1     1     2     0     0  2.103783786E+02  8.217776383E+01 -4.332514365E+02  5.043253457E+02  1.250000000E+02  0.00000E+00  9.000E+00
      21     1     1     2   512   502 -1.709618737E+01  4.998011704E-01  2.046338120E+01  2.666982178E+01  3.371747881E-07  0.00000E+00  9.000E+00
#rwgt            1           1   2.8073045690436848E-002          10      111337           0
</event>
<event>
      5   9999  3.19816E-02  6.94877E+01 -1.00000E+00  1.31382E-01
      21    -1     0     0   502   501  0.000000000E+00  0.000000000E+00  8.472951191E+02  8.472951191E+02  0.000000000E+00  0.00000E+00  9.000E+00
      21    -1     0     0   511   502  0.000000000E+00  0.000000000E+00 -1.096408013E+02  1.096408013E+02  0.000000000E+00  0.00000E+00  9.000E+00
      25     1     1     2     0     0 -1.748759765E+02 -1.031403281E+02  5.936918907E+02  6.397769889E+02  1.250000000E+02  0.00000E+00  9.000E+00
      25     1     1     2     0     0  1.112738447E+02  1.311280201E+02  1.001633591E+02  2.350194134E+02  1.250000000E+02  0.00000E+00  9.000E+00
      21     1     1     2   511   501  6.360213185E+01 -2.798769207E+01  4.379906799E+01  8.213951814E+01  4.768371582E-07  0.00000E+00  9.000E+00
#rwgt            1           1   2.7499173642941622E-002          10      111519           0
</event>
<event>
      5   9999  3.19816E-02  1.43099E+01 -1.00000E+00  1.79333E-01
      21    -1     0     0   512   501  0.000000000E+00  0.000000000E+00  1.331812681E+03  1.331812681E+03  0.000000000E+00  0.00000E+00  9.000E+00
      21    -1     0     0   501   502  0.000000000E+00  0.000000000E+00 -1.243794363E+02  1.243794363E+02  0.000000000E+00  0.00000E+00  9.000E+00
      25     1     1     2     0     0 -2.376052019E+02 -2.746349285E+02  7.167010979E+02  8.131211716E+02  1.250000000E+02  0.00000E+00  9.000E+00
      25     1     1     2     0     0  2.398651975E+02  2.887652229E+02  4.464928361E+02  5.965748232E+02  1.250000000E+02  0.00000E+00  9.000E+00
      21     1     1     2   512   502 -2.259995550E+00 -1.413029444E+01  4.423931091E+01  4.649612275E+01  9.536743164E-07  0.00000E+00  9.000E+00
#rwgt            1           1   3.1360495921525088E-002          10      111617           0
</event>
<event>
      5   9999  3.19816E-02  3.67544E+01 -1.00000E+00  1.47157E-01
      21    -1     0     0   502   511  0.000000000E+00  0.000000000E+00  3.316058808E+02  3.316058808E+02  0.000000000E+00  0.00000E+00  9.000E+00
      21    -1     0     0   501   502  0.000000000E+00  0.000000000E+00 -3.261917576E+02  3.261917576E+02  0.000000000E+00  0.00000E+00  9.000E+00
      25     1     1     2     0     0 -4.171317408E+01  2.348891568E+02 -1.371970533E+02  3.022597167E+02  1.250000000E+02  0.00000E+00  9.000E+00
      25     1     1     2     0     0  1.433406724E+01 -2.594099515E+02  1.193365190E+02  3.120339616E+02  1.250000000E+02  0.00000E+00  9.000E+00
      21     1     1     2   501   511  2.737910684E+01  2.452079467E+01  2.327465754E+01  4.350396012E+01  6.743495762E-07  0.00000E+00  9.000E+00
#rwgt            1           1   2.5311174588924075E-002          10      111814           0
</event>
<event>
      5   9999  3.19816E-02  1.18863E+02 -1.00000E+00  1.20544E-01
      21    -1     0     0   502   501  0.000000000E+00  0.000000000E+00  6.444753781E+02  6.444753781E+02  0.000000000E+00  0.00000E+00  9.000E+00
      21    -1     0     0   501   512  0.000000000E+00  0.000000000E+00 -1.483466285E+03  1.483466285E+03  0.000000000E+00  0.00000E+00  9.000E+00
      25     1     1     2     0     0  5.085083046E+02 -1.105997189E+02 -1.201191951E+03  1.315028553E+03  1.250000000E+02  0.00000E+00  9.000E+00
      25     1     1     2     0     0 -4.495881173E+02  7.367459536E+00  4.627495817E+02  6.572259353E+02  1.250000000E+02  0.00000E+00  9.000E+00
      21     1     1     2   502   512 -5.892018721E+01  1.032322594E+02 -1.005485380E+02  1.556871746E+02  1.348699152E-06  0.00000E+00  9.000E+00
#rwgt            1           1   1.9342596783799643E-002          10      111947           0
</event>
<event>
      5   9999  3.19816E-02  6.10163E+01 -1.00000E+00  1.34315E-01
      21    -1     0     0   502   501  0.000000000E+00  0.000000000E+00  2.805798962E+02  2.805798962E+02  0.000000000E+00  0.00000E+00  9.000E+00
      21    -1     0     0   511   502  0.000000000E+00  0.000000000E+00 -7.632881126E+02  7.632881126E+02  0.000000000E+00  0.00000E+00  9.000E+00
      25     1     1     2     0     0 -2.818964772E+02 -1.780579340E+02  3.894639382E+01  3.582067466E+02  1.250000000E+02  0.00000E+00  9.000E+00
      25     1     1     2     0     0  2.557415391E+02  1.229316676E+02 -2.257758450E+02  3.835565954E+02  1.250000000E+02  0.00000E+00  9.000E+00
      21     1     1     2   511   501  2.615493812E+01  5.512626639E+01 -2.958787652E+02  3.021046668E+02  6.607249480E-06  0.00000E+00  9.000E+00
#rwgt            1           1   2.8561261067231076E-002          10      112084           0
</event>
<event>
      5   9999  3.19816E-02  4.39648E+02 -1.00000E+00  1.00465E-01
      21    -1     0     0   502   501  0.000000000E+00  0.000000000E+00  2.059763759E+03  2.059763759E+03  0.000000000E+00  0.00000E+00  9.000E+00
      21    -1     0     0   512   502  0.000000000E+00  0.000000000E+00 -1.779901940E+03  1.779901940E+03  0.000000000E+00  0.00000E+00  9.000E+00
      25     1     1     2     0     0 -2.102575801E+02  1.395805620E+03  2.378780446E+02  1.436903804E+03  1.250000000E+02  0.00000E+00  9.000E+00
      25     1     1     2     0     0  4.620734421E+00 -1.784397646E+03  4.033181507E+02  1.833681227E+03  1.250000000E+02  0.00000E+00  9.000E+00
      21     1     1     2   512   501  2.056368456E+02  3.885920265E+02 -3.613343761E+02  5.690806680E+02  6.607249480E-06  0.00000E+00  9.000E+00
#rwgt            2          11   7.5430470703162370E-003          10      112255           0
</event>
<event>
      5   9999  3.19816E-02  1.94674E+01 -1.00000E+00  1.67342E-01
      21    -1     0     0   511   501  0.000000000E+00  0.000000000E+00  1.197406971E+02  1.197406971E+02  0.000000000E+00  0.00000E+00  9.000E+00
      21    -1     0     0   501   502  0.000000000E+00  0.000000000E+00 -1.046700456E+03  1.046700456E+03  0.000000000E+00  0.00000E+00  9.000E+00
      25     1     1     2     0     0  1.564809205E+02  9.589018055E+01 -5.145573000E+02  5.604243216E+02  1.250000000E+02  0.00000E+00  9.000E+00
      25     1     1     2     0     0 -1.386795921E+02 -1.037699329E+02 -4.854791408E+02  5.303915765E+02  1.250000000E+02  0.00000E+00  9.000E+00
      21     1     1     2   511   502 -1.780132844E+01  7.879752397E+00  7.307668186E+01  7.562525520E+01  2.861022949E-06  0.00000E+00  9.000E+00
#rwgt            1           1   2.6158006027118097E-002          10      112275           0
</event>
<event>
      5   9999  3.19816E-02  2.43956E+02 -1.00000E+00  1.08595E-01
      21    -1     0     0   502   501  0.000000000E+00  0.000000000E+00  2.215217178E+02  2.215217178E+02  0.000000000E+00  0.00000E+00  9.000E+00
      21    -1     0     0   512   502  0.000000000E+00  0.000000000E+00 -5.467222747E+02  5.467222747E+02  0.000000000E+00  0.00000E+00  9.000E+00
      25     1     1     2     0     0 -1.341263913E+02 -7.085065791E+01 -2.174973830E+02  2.931549354E+02  1.250000000E+02  0.00000E+00  9.000E+00
      25     1     1     2     0     0 -1.095350141E+02  5.887265778E+01  5.161360524E+01  1.837195509E+02  1.250000000E+02  0.00000E+00  9.000E+00
      21     1     1     2   512   501  2.436614054E+02  1.197800013E+01 -1.593167792E+02  2.913695061E+02  1.907348633E-06  0.00000E+00  9.000E+00
#rwgt            2          11   3.2363050523576422E-003          10      112432           0
</event>
<event>
      5   9999  3.19816E-02  2.06726E+02 -1.00000E+00  1.11128E-01
      21    -1     0     0   502   501  0.000000000E+00  0.000000000E+00  3.698613545E+02  3.698613545E+02  0.000000000E+00  0.00000E+00  9.000E+00
      21    -1     0     0   501   511  0.000000000E+00  0.000000000E+00 -1.113005829E+03  1.113005829E+03  0.000000000E+00  0.00000E+00  9.000E+00
      25     1     1     2     0     0  3.256598306E+02 -1.792593587E+02 -6.319144658E+01  3.972485392E+02  1.250000000E+02  0.00000E+00  9.000E+00
      25     1     1     2     0     0 -5.221500057E+02  1.150143571E+02 -2.394596944E+02  5.990282765E+02  1.250000000E+02  0.00000E+00  9.000E+00
      21     1     1     2   502   511  1.964901751E+02  6.424500161E+01 -4.404933331E+02  4.865903674E+02  9.344061824E-06  0.00000E+00  9.000E+00
#rwgt            1           1   3.0229957867052942E-002          10      112452           0
</event>
<event>
      5   9999  3.19816E-02  1.14442E+02 -1.00000E+00  1.21249E-01
      21    -1     0     0   502   501  0.000000000E+00  0.000000000E+00  9.027260703E+02  9.027260703E+02  0.000000000E+00  0.00000E+00  9.000E+00
      21    -1     0     0   512   502  0.000000000E+00  0.000000000E+00 -2.172177459E+02  2.172177459E+02  0.000000000E+00  0.00000E+00  9.000E+00
      25     1     1     2     0     0 -1.070202395E+02 -2.140072316E+02 -4.098549063E+01  2.730517117E+02  1.250000000E+02  0.00000E+00  9.000E+00
      25     1     1     2     0     0  8.287087320E-01  2.566719828E+02  6.480427530E+02  7.081423609E+02  1.250000000E+02  0.00000E+00  9.000E+00
      21     1     1     2   512   501  1.061915308E+02 -4.266475127E+01  7.845106198E+01  1.387497436E+02  3.162979880E-06  0.00000E+00  9.000E+00
#rwgt            2          11   4.5773287559463830E-003          10      112520           0
</event>
<event>
      5   9999  3.19816E-02  2.47404E+02 -1.00000E+00  1.08385E-01
      21    -1     0     0   502   501  0.000000000E+00  0.000000000E+00  1.427071496E+03  1.427071496E+03  0.000000000E+00  0.00000E+00  9.000E+00
       5    -1     0     0   501     0  0.000000000E+00  0.000000000E+00 -3.867991463E+02  3.867991463E+02  0.000000000E+00  0.00000E+00  9.000E+00
      25     1     1     2     0     0 -1.826043689E+02  1.768698346E+02  1.025446625E+03  1.063857639E+03  1.250000000E+02  0.00000E+00  9.000E+00
      25     1     1     2     0     0  4.209596511E+02 -2.431674220E+02 -3.004639942E+00  5.019675795E+02  1.250000000E+02  0.00000E+00  9.000E+00
       5     1     1     2   502     0 -2.383552822E+02  6.629758735E+01  1.783036456E+01  2.480454244E+02  2.880822652E-06  0.00000E+00  9.000E+00
#rwgt            2          16   1.8297946260434095E-005          10      112705           0
</event>
<event>
      5   9999  3.19816E-02  1.02817E+02 -1.00000E+00  1.23288E-01
      21    -1     0     0   502   501  0.000000000E+00  0.000000000E+00  2.452308819E+02  2.452308819E+02  0.000000000E+00  0.00000E+00  9.000E+00
      21    -1     0     0   501   511  0.000000000E+00  0.000000000E+00 -1.709685990E+03  1.709685990E+03  0.000000000E+00  0.00000E+00  9.000E+00
      25     1     1     2     0     0 -3.695610137E+02 -6.729233047E+01 -2.778474517E+01  3.968634434E+02  1.250000000E+02  0.00000E+00  9.000E+00
      25     1     1     2     0     0  3.182386164E+02  1.563838358E+02 -5.547045157E+02  6.701147818E+02  1.250000000E+02  0.00000E+00  9.000E+00
      21     1     1     2   502   511  5.132239729E+01 -8.909150531E+01 -8.819658471E+02  8.879386466E+02  1.078959322E-05  0.00000E+00  9.000E+00
#rwgt            1           1   2.9460462964055783E-002          10      112754           0
</event>
<event>
      5   9999  3.19816E-02  2.95024E+01 -1.00000E+00  1.53546E-01
      21    -1     0     0   502   501  0.000000000E+00  0.000000000E+00  8.182257875E+02  8.182257875E+02  0.000000000E+00  0.00000E+00  9.000E+00
      21    -1     0     0   501   512  0.000000000E+00  0.000000000E+00 -9.088397612E+01  9.088397612E+01  0.000000000E+00  0.00000E+00  9.000E+00
      25     1     1     2     0     0 -1.782795741E+02  4.467366503E+01  1.282480538E+02  2.566162625E+02  1.250000000E+02  0.00000E+00  9.000E+00
      25     1     1     2     0     0  1.863890064E+02 -1.630768752E+01  5.600049332E+02  6.035207764E+02  1.250000000E+02  0.00000E+00  9.000E+00
      21     1     1     2   502   512 -8.109432324E+00 -2.836597750E+01  3.908882434E+01  4.897272466E+01  4.768371582E-07  0.00000E+00  9.000E+00
#rwgt            1           1   2.9013212966587699E-002          10      112814           0
</event>
<event>
      5   9999  3.19816E-02  2.74073E+01 -1.00000E+00  1.55817E-01
      21    -1     0     0   502   501  0.000000000E+00  0.000000000E+00  2.736549158E+02  2.736549158E+02  0.000000000E+00  0.00000E+00  9.000E+00
      21    -1     0     0   501   511  0.000000000E+00  0.000000000E+00 -5.070351626E+02  5.070351626E+02  0.000000000E+00  0.00000E+00  9.000E+00
      25     1     1     2     0     0 -1.076432711E+02 -9.875287829E+01  1.996672190E+02  2.771844208E+02  1.250000000E+02  0.00000E+00  9.000E+00
      25     1     1     2     0     0  1.128976633E+02  1.256517492E+02 -2.916142533E+02  3.594413960E+02  1.250000000E+02  0.00000E+00  9.000E+00
      21     1     1     2   502   511 -5.254392136E+00 -2.689887089E+01 -1.414332125E+02  1.440642616E+02  0.000000000E+00  0.00000E+00  9.000E+00
#rwgt            1           1   2.8314488483356978E-002          10      112896           0
</event>
<event>
      5   9999  3.19816E-02  9.86063E+01 -1.00000E+00  1.24103E-01
      21    -1     0     0   502   501  0.000000000E+00  0.000000000E+00  6.624139290E+02  6.624139290E+02  0.000000000E+00  0.00000E+00  9.000E+00
      21    -1     0     0   501   512  0.000000000E+00  0.000000000E+00 -4.069127157E+02  4.069127157E+02  0.000000000E+00  0.00000E+00  9.000E+00
      25     1     1     2     0     0 -1.005347506E+02  5.803332670E+00 -6.288101387E+01  1.723947118E+02  1.250000000E+02  0.00000E+00  9.000E+00
      25     1     1     2     0     0  8.945599700E+00 -4.233602560E+01  5.917340783E+02  6.063386696E+02  1.250000000E+02  0.00000E+00  9.000E+00
      21     1     1     2   502   512  9.158915095E+01  3.653269293E+01 -2.733518511E+02  2.905932634E+02  3.814697266E-06  0.00000E+00  9.000E+00
#rwgt            1           1   2.6770481995505014E-002          10      113010           0
</event>
<event>
      5   9999  3.19816E-02  1.42753E+02 -1.00000E+00  1.17252E-01
      21    -1     0     0   502   501  0.000000000E+00  0.000000000E+00  1.496452075E+03  1.496452075E+03  0.000000000E+00  0.00000E+00  9.000E+00
      21    -1     0     0   511   502  0.000000000E+00  0.000000000E+00 -4.185925094E+02  4.185925094E+02  0.000000000E+00  0.00000E+00  9.000E+00
      25     1     1     2     0     0  6.455121884E+02  1.534617111E+02  4.170490630E+02  7.935939788E+02  1.250000000E+02  0.00000E+00  9.000E+00
      25     1     1     2     0     0 -5.044811141E+02 -1.755664070E+02  7.673817690E+02  9.433051135E+02  1.250000000E+02  0.00000E+00  9.000E+00
      21     1     1     2   511   501 -1.410310743E+02  2.210469598E+01 -1.065712665E+02  1.781454921E+02  2.697398305E-06  0.00000E+00  9.000E+00
#rwgt            1           1   3.0681087261827413E-002          10      113072           0
</event>
<event>
      5   9999  3.19816E-02  1.15001E+02 -1.00000E+00  1.21158E-01
      21    -1     0     0   502   501  0.000000000E+00  0.000000000E+00  1.345540392E+03  1.345540392E+03  0.000000000E+00  0.00000E+00  9.000E+00
       2    -1     0     0   501     0  0.000000000E+00  0.000000000E+00 -3.161087606E+02  3.161087606E+02  0.000000000E+00  0.00000E+00  9.000E+00
      25     1     1     2     0     0  5.412949037E+01 -1.158529181E+01  1.805090194E+02  2.264348180E+02  1.250000000E+02  0.00000E+00  9.000E+00
      25     1     1     2     0     0  5.931385864E+01 -7.281345409E+00  1.126379362E+03  1.134868547E+03  1.250000000E+02  0.00000E+00  9.000E+00
       2     1     1     2   502     0 -1.134433490E+02  1.886663722E+01 -2.774567505E+02  3.003457871E+02  9.344061824E-06  0.00000E+00  9.000E+00
#rwgt            1           1   3.6235993805894894E-002          10      113143           0
</event>
<event>
      5   9999  3.19816E-02  4.93253E+01 -1.00000E+00  1.39413E-01
      21    -1     0     0   502   501  0.000000000E+00  0.000000000E+00  1.308980962E+02  1.308980962E+02  0.000000000E+00  0.00000E+00  9.000E+00
       4    -1     0     0   501     0  0.000000000E+00  0.000000000E+00 -6.818260394E+02  6.818260394E+02  0.000000000E+00  0.00000E+00  9.000E+00
      25     1     1     2     0     0  4.304629952E+01 -3.074686427E+00 -3.310786681E+02  3.565116016E+02  1.250000000E+02  0.00000E+00  9.000E+00
      25     1     1     2     0     0 -3.554757873E+01  5.182663864E+01  7.398504275E+01  1.582669181E+02  1.250000000E+02  0.00000E+00  9.000E+00
       4     1     1     2   502     0 -7.498720792E+00 -4.875195221E+01 -2.938343178E+02  2.979456158E+02  6.607249480E-06  0.00000E+00  9.000E+00
#rwgt            1           1   2.6713031515296828E-002          10      113185           0
</event>
<event>
      5   9999  3.19816E-02  2.68747E+01 -1.00000E+00  1.56434E-01
      21    -1     0     0   502   501  0.000000000E+00  0.000000000E+00  3.788860082E+01  3.788860082E+01  0.000000000E+00  0.00000E+00  9.000E+00
      21    -1     0     0   501   511  0.000000000E+00  0.000000000E+00 -1.073283200E+03  1.073283200E+03  0.000000000E+00  0.00000E+00  9.000E+00
      25     1     1     2     0     0  1.466018233E+01 -5.118929861E+01 -1.247644113E+02  1.844625262E+02  1.250000000E+02  0.00000E+00  9.000E+00
      25     1     1     2     0     0  2.430858867E+00  7.192921940E+01 -7.967709125E+02  8.097213155E+02  1.250000000E+02  0.00000E+00  9.000E+00
      21     1     1     2   502   511 -1.709104119E+01 -2.073992079E+01 -1.138592751E+02  1.169879589E+02  1.348699152E-06  0.00000E+00  9.000E+00
#rwgt            1           1   3.0170025411424165E-002          10      113305           0
</event>
<event>
      5   9999  3.19816E-02  4.98183E+02 -1.00000E+00  9.88970E-02
      21    -1     0     0   502   501  0.000000000E+00  0.000000000E+00  2.658385115E+02  2.658385115E+02  0.000000000E+00  0.00000E+00  9.000E+00
      21    -1     0     0   512   502  0.000000000E+00  0.000000000E+00 -1.451368851E+03  1.451368851E+03  0.000000000E+00  0.00000E+00  9.000E+00
      25     1     1     2     0     0  3.441994322E+01 -1.130051773E+02  1.886177817E+01  1.730192743E+02  1.250000000E+02  0.00000E+00  9.000E+00
      25     1     1     2     0     0 -3.108292877E+02 -3.014628280E+02 -4.268671283E+02  6.207537579E+02  1.250000000E+02  0.00000E+00  9.000E+00
      21     1     1     2   512   501  2.764093445E+02  4.144680054E+02 -7.775249892E+02  9.234343301E+02  0.000000000E+00  0.00000E+00  9.000E+00
#rwgt            1           1   2.6927371746827265E-002          10      113405           0
</event>
<event>
      5   9999  3.19816E-02  8.05731E+01 -1.00000E+00  1.28200E-01
      21    -1     0     0   502   501  0.000000000E+00  0.000000000E+00  3.001893293E+02  3.001893293E+02  0.000000000E+00  0.00000E+00  9.000E+00
      21    -1     0     0   501   511  0.000000000E+00  0.000000000E+00 -2.359303723E+03  2.359303723E+03  0.000000000E+00  0.00000E+00  9.000E+00
      25     1     1     2     0     0 -2.340559814E+02  3.653198247E+01 -3.103851988E+02  4.099765357E+02  1.250000000E+02  0.00000E+00  9.000E+00
      25     1     1     2     0     0  2.707953539E+02  3.517748354E+01  1.591857499E+02  3.399009885E+02  1.250000000E+02  0.00000E+00  9.000E+00
      21     1     1     2   502   511 -3.673937243E+01 -7.170946601E+01 -1.907914945E+03  1.909615529E+03  2.157918644E-05  0.00000E+00  9.000E+00
#rwgt            1           1   2.9938273193176282E-002          10      113486           0
</event>
<event>
      5   9999  3.19816E-02  4.14814E+01 -1.00000E+00  1.43867E-01
       2    -1     0     0   502     0  0.000000000E+00  0.000000000E+00  1.432133293E+03  1.432133293E+03  0.000000000E+00  0.00000E+00  9.000E+00
      21    -1     0     0   501   502  0.000000000E+00  0.000000000E+00 -7.050611863E+01  7.050611863E+01  0.000000000E+00  0.00000E+00  9.000E+00
      25     1     1     2     0     0 -9.906507064E+01 -1.753301191E+02  2.646482142E+02  3.552720312E+02  1.250000000E+02  0.00000E+00  9.000E+00
      25     1     1     2     0     0  1.191329438E+02  2.116342117E+02  7.551488586E+02  8.030295739E+02  1.250000000E+02  0.00000E+00  9.000E+00
       2     1     1     2   501     0 -2.006787315E+01 -3.630409256E+01  3.418301016E+02  3.443378066E+02  0.000000000E+00  0.00000E+00  9.000E+00
#rwgt            1           1   2.7270191481810330E-002          10      113567           0
</event>
<event>
      5   9999  3.19816E-02  6.04089E+01 -1.00000E+00  1.34546E-01
      21    -1     0     0   502   501  0.000000000E+00  0.000000000E+00  4.199706771E+02  4.199706771E+02  0.000000000E+00  0.00000E+00  9.000E+00
       1    -1     0     0   501     0  0.000000000E+00  0.000000000E+00 -9.882427598E+02  9.882427598E+02  0.000000000E+00  0.00000E+00  9.000E+00
      25     1     1     2     0     0  2.382872268E+02  4.092740533E+02 -1.235811933E+02  5.051567722E+02  1.250000000E+02  0.00000E+00  9.000E+00
      25     1     1     2     0     0 -2.470798608E+02 -3.495084353E+02  8.374473811E+00  4.459817662E+02  1.250000000E+02  0.00000E+00  9.000E+00
       1     1     1     2   502     0  8.792634042E+00 -5.976561801E+01 -4.530653632E+02  4.570748985E+02  0.000000000E+00  0.00000E+00  9.000E+00
#rwgt            1           1   2.5568928187033629E-002          10      113646           0
</event>
<event>
      5   9999  3.19816E-02  7.80283E+01 -1.00000E+00  1.28876E-01
       2    -1     0     0   502     0  0.000000000E+00  0.000000000E+00  4.107486564E+02  4.107486564E+02  0.000000000E+00  0.00000E+00  9.000E+00
      21    -1     0     0   501   502  0.000000000E+00  0.000000000E+00 -2.274314809E+02  2.274314809E+02  0.000000000E+00  0.00000E+00  9.000E+00
      25     1     1     2     0     0  4.448644687E+01 -1.744975773E+02  7.938404811E+01  2.331421788E+02  1.250000000E+02  0.00000E+00  9.000E+00
      25     1     1     2     0     0 -1.210602576E+02  1.595022003E+02 -4.180382598E+01  2.397271319E+02  1.250000000E+02  0.00000E+00  9.000E+00
       2     1     1     2   501     0  7.657381077E+01  1.499537698E+01  1.457369534E+02  1.653108266E+02  1.907348633E-06  0.00000E+00  9.000E+00
#rwgt            1           1   3.4142218578223762E-002          10      113747           0
</event>
<event>
      5   9999  3.19816E-02  4.94918E+01 -1.00000E+00  1.39329E-01
      21    -1     0     0   502   501  0.000000000E+00  0.000000000E+00  2.423945665E+02  2.423945665E+02  0.000000000E+00  0.00000E+00  9.000E+00
      21    -1     0     0   501   511  0.000000000E+00  0.000000000E+00 -8.934602255E+02  8.934602255E+02  0.000000000E+00  0.00000E+00  9.000E+00
      25     1     1     2     0     0 -2.222401052E+02 -1.404313542E+02  8.641136792E+01  3.036503814E+02  1.250000000E+02  0.00000E+00  9.000E+00
      25     1     1     2     0     0  2.677721741E+02  1.210337163E+02 -7.022755896E+02  7.714707392E+02  1.250000000E+02  0.00000E+00  9.000E+00
      21     1     1     2   502   511 -4.553206892E+01  1.939763790E+01 -3.520143733E+01  6.073367144E+01  1.430511475E-06  0.00000E+00  9.000E+00
#rwgt            1           1   2.6875344492629221E-002          10      113826           0
</event>
<event>
      5   9999  3.19816E-02  9.30422E+01 -1.00000E+00  1.25253E-01
      21    -1     0     0   512   501  0.000000000E+00  0.000000000E+00  1.355346172E+03  1.355346172E+03  0.000000000E+00  0.00000E+00  9.000E+00
      21    -1     0     0   501   502  0.000000000E+00  0.000000000E+00 -7.064599909E+02  7.064599909E+02  0.000000000E+00  0.00000E+00  9.000E+00
      25     1     1     2     0     0 -2.300951090E+02 -6.632736423E+02  6.272859061E+02  9.497306417E+02  1.250000000E+02  0.00000E+00  9.000E+00
      25     1     1     2     0     0  2.356680519E+02  7.561487992E+02 -2.379206528E+02  8.363801016E+02  1.250000000E+02  0.00000E+00  9.000E+00
      21     1     1     2   512   502 -5.572942949E+00 -9.287515689E+01  2.595209277E+02  2.756954196E+02  0.000000000E+00  0.00000E+00  9.000E+00
#rwgt            2          11   4.1084721343312459E-003          10      113956           0
</event>
<event>
      5   9999  3.19816E-02  1.39098E+01 -1.00000E+00  1.80528E-01
      21    -1     0     0   502   511  0.000000000E+00  0.000000000E+00  1.142512213E+02  1.142512213E+02  0.000000000E+00  0.00000E+00  9.000E+00
      21    -1     0     0   501   502  0.000000000E+00  0.000000000E+00 -2.230277650E+03  2.230277650E+03  0.000000000E+00  0.00000E+00  9.000E+00
      25     1     1     2     0     0  5.670660956E+01  4.749042590E+02 -9.349160724E+02  1.057564540E+03  1.250000000E+02  0.00000E+00  9.000E+00
      25     1     1     2     0     0 -6.691309829E+01 -4.654539037E+02 -1.175021366E+03  1.271780213E+03  1.250000000E+02  0.00000E+00  9.000E+00
      21     1     1     2   501   511  1.020648873E+01 -9.450355297E+00 -6.088989844E+00  1.518411752E+01  3.264680848E-07  0.00000E+00  9.000E+00
#rwgt            1           1   2.4375070115535268E-002          10      113976           0
</event>
<event>
      5   9999  3.19816E-02  3.06155E+02 -1.00000E+00  1.05306E-01
      21    -1     0     0   512   501  0.000000000E+00  0.000000000E+00  4.737591772E+02  4.737591772E+02  0.000000000E+00  0.00000E+00  9.000E+00
      21    -1     0     0   501   502  0.000000000E+00  0.000000000E+00 -5.884817268E+02  5.884817268E+02  0.000000000E+00  0.00000E+00  9.000E+00
      25     1     1     2     0     0  1.592546726E+02 -1.166898823E+02  3.983642614E+00  2.337080417E+02  1.250000000E+02  0.00000E+00  9.000E+00
      25     1     1     2     0     0 -1.314581217E+02  4.215801908E+02 -2.160693426E+02  5.072692144E+02  1.250000000E+02  0.00000E+00  9.000E+00
      21     1     1     2   512   502 -2.779655083E+01 -3.048903085E+02  9.736315040E+01  3.212636479E+02  4.862803949E-06  0.00000E+00  9.000E+00
#rwgt            2          11   3.4483363830480700E-003          10      114221           0
</event>
<event>
      5   9999  3.19816E-02  9.42916E+01 -1.00000E+00  1.24987E-01
      21    -1     0     0   502   511  0.000000000E+00  0.000000000E+00  5.461238014E+02  5.461238014E+02  0.000000000E+00  0.00000E+00  9.000E+00
      21    -1     0     0   501   502  0.000000000E+00  0.000000000E+00 -8.578032890E+02  8.578032890E+02  0.000000000E+00  0.00000E+00  9.000E+00
      25     1     1     2     0     0 -2.315837220E+02 -3.781383702E+02 -3.109402181E+01  4.617482924E+02  1.250000000E+02  0.00000E+00  9.000E+00
      25     1     1     2     0     0  2.785941184E+02  4.598753170E+02 -4.736159855E+02  7.273493602E+02  1.250000000E+02  0.00000E+00  9.000E+00
      21     1     1     2   501   511 -4.701039641E+01 -8.173694676E+01  1.930305197E+02  2.148294379E+02  0.000000000E+00  0.00000E+00  9.000E+00
#rwgt            1           1   3.0679544753286284E-002          10      114256           0
</event>
<event>
      5   9999  3.19816E-02  1.70728E+02 -1.00000E+00  1.14209E-01
      21    -1     0     0   502   501  0.000000000E+00  0.000000000E+00  1.111556761E+03  1.111556761E+03  0.000000000E+00  0.00000E+00  9.000E+00
      21    -1     0     0   512   502  0.000000000E+00  0.000000000E+00 -7.321556039E+02  7.321556039E+02  0.000000000E+00  0.00000E+00  9.000E+00
      25     1     1     2     0     0 -1.354821736E+02  4.563748091E+02  6.467457934E+02  8.127352010E+02  1.250000000E+02  0.00000E+00  9.000E+00
      25     1     1     2     0     0  2.954419817E+02 -5.160469312E+02  1.093566411E+02  6.173931282E+02  1.250000000E+02  0.00000E+00  9.000E+00
      21     1     1     2   512   501 -1.599598081E+02  5.967212213E+01 -3.767012772E+02  4.135840358E+02  5.394796609E-06  0.00000E+00  9.000E+00
#rwgt            1           1   3.0841532057415105E-002          10      114391           0
</event>
<event>
      5   9999  3.19816E-02  4.86201E+01 -1.00000E+00  1.39773E-01
      21    -1     0     0   511   501  0.000000000E+00  0.000000000E+00  8.626840041E+02  8.626840041E+02  0.000000000E+00  0.00000E+00  9.000E+00
      21    -1     0     0   501   502  0.000000000E+00  0.000000000E+00 -2.182233391E+02  2.182233391E+02  0.000000000E+00  0.00000E+00  9.000E+00
      25     1     1     2     0     0  1.733659787E+02 -9.894860488E+01 -3.174376291E+00  2.355454641E+02  1.250000000E+02  0.00000E+00  9.000E+00
      25     1     1     2     0     0 -2.166623836E+02  7.682760393E+01  7.714379560E+01  2.728025557E+02  1.250000000E+02  0.00000E+00  9.000E+00
      21     1     1     2   511   502  4.329640490E+01  2.212100095E+01  5.704912458E+02  5.725593234E+02  7.629394531E-06  0.00000E+00  9.000E+00
#rwgt            1           1   2.7652392472921686E-002          10      114531           0
</event>
<event>
      5   9999  3.19816E-02  1.38093E+02 -1.00000E+00  1.17835E-01
      21    -1     0     0   512   501  0.000000000E+00  0.000000000E+00  2.973280091E+02  2.973280091E+02  0.000000000E+00  0.00000E+00  9.000E+00
      21    -1     0     0   501   502  0.000000000E+00  0.000000000E+00 -1.558917341E+03  1.558917341E+03  0.000000000E+00  0.00000E+00  9.000E+00
      25     1     1     2     0     0 -3.083659650E+02  2.705607144E+02 -2.098816748E+02  4.774599313E+02  1.250000000E+02  0.00000E+00  9.000E+00
      25     1     1     2     0     0  1.702756985E+02 -2.714600124E+02 -1.155774270E+03  1.205870439E+03  1.250000000E+02  0.00000E+00  9.000E+00
      21     1     1     2   512   502  1.380902665E+02  8.992979978E-01  1.040666128E+02  1.729149801E+02  4.264961200E-06  0.00000E+00  9.000E+00
#rwgt            1           1   2.5332322010772002E-002          10      114649           0
</event>
<event>
      5   9999  3.19816E-02  2.00274E+01 -1.00000E+00  1.66320E-01
      21    -1     0     0   502   501  0.000000000E+00  0.000000000E+00  2.579684869E+02  2.579684869E+02  0.000000000E+00  0.00000E+00  9.000E+00
      21    -1     0     0   511   502  0.000000000E+00  0.000000000E+00 -8.147011756E+02  8.147011756E+02  0.000000000E+00  0.00000E+00  9.000E+00
      25     1     1     2     0     0 -4.883473520E+01 -7.794582418E+01  1.462893752E+02  2.132743870E+02  1.250000000E+02  0.00000E+00  9.000E+00
      25     1     1     2     0     0  5.125424862E+01  9.782649715E+01 -1.108375771E+01  1.671671954E+02  1.250000000E+02  0.00000E+00  9.000E+00
      21     1     1     2   511   501 -2.419513420E+00 -1.988067297E+01 -6.919383062E+02  6.922280801E+02  0.000000000E+00  0.00000E+00  9.000E+00
#rwgt            1           1   2.7520630065741018E-002          10      114704           0
</event>
<event>
      5   9999  3.19816E-02  5.12727E+00 -1.00000E+00  2.36624E-01
      21    -1     0     0   512   501  0.000000000E+00  0.000000000E+00  5.825135183E+02  5.825135183E+02  0.000000000E+00  0.00000E+00  9.000E+00
      21    -1     0     0   501   502  0.000000000E+00  0.000000000E+00 -1.243092634E+02  1.243092634E+02  0.000000000E+00  0.00000E+00  9.000E+00
      25     1     1     2     0     0  1.294449175E+02 -1.091730643E+01  2.252960552E+02  2.885454673E+02  1.250000000E+02  0.00000E+00  9.000E+00
      25     1     1     2     0     0 -1.332227615E+02  7.450777722E+00 -2.461215077E+00  1.828520600E+02  1.250000000E+02  0.00000E+00  9.000E+00
      21     1     1     2   512   502  3.777844056E+00  3.466528711E+00  2.353694149E+02  2.354252543E+02  3.814697266E-06  0.00000E+00  9.000E+00
#rwgt            1           1   2.8844513348289132E-002          10      114829           0
</event>
<event>
      5   9999  3.19816E-02  4.55033E+01 -1.00000E+00  1.41452E-01
       1    -1     0     0   502     0  0.000000000E+00  0.000000000E+00  3.232389441E+03  3.232389441E+03  0.000000000E+00  0.00000E+00  9.000E+00
      21    -1     0     0   501   502  0.000000000E+00  0.000000000E+00 -2.619365960E+02  2.619365960E+02  0.000000000E+00  0.00000E+00  9.000E+00
      25     1     1     2     0     0 -2.795298140E+02 -2.966034663E+02  2.244282554E+02  4.817712891E+02  1.250000000E+02  0.00000E+00  9.000E+00
      25     1     1     2     0     0  2.984485587E+02  2.552194696E+02  1.860221584E+02  4.521479440E+02  1.250000000E+02  0.00000E+00  9.000E+00
       1     1     1     2   501     0 -1.891874467E+01  4.138399672E+01  2.560002431E+03  2.560406804E+03  4.315837288E-05  0.00000E+00  9.000E+00
#rwgt            1           1   2.8747393362047603E-002          10      115130           0
</event>
<event>
      5   9999  3.19816E-02  1.04329E+02 -1.00000E+00  1.23006E-01
      21    -1     0     0   502   501  0.000000000E+00  0.000000000E+00  1.704051908E+03  1.704051908E+03  0.000000000E+00  0.00000E+00  9.000E+00
      21    -1     0     0   501   511  0.000000000E+00  0.000000000E+00 -3.029799901E+02  3.029799901E+02  0.000000000E+00  0.00000E+00  9.000E+00
      25     1     1     2     0     0 -1.290110394E+02  4.011570598E+02  1.466833372E+03  1.531272665E+03  1.250000000E+02  0.00000E+00  9.000E+00
      25     1     1     2     0     0  5.119969786E+01 -3.316592068E+02 -1.181225823E+01  3.583068071E+02  1.250000000E+02  0.00000E+00  9.000E+00
      21     1     1     2   502   511  7.781134156E+01 -6.949785294E+01 -5.394919615E+01  1.174524253E+02  2.431401974E-06  0.00000E+00  9.000E+00
#rwgt            1           1   2.8369842088428857E-002          10      115231           0
</event>
<event>
      5   9999  3.50391E-02  1.49714E+02 -1.00000E+00  1.16427E-01
      21    -1     0     0   502   501  0.000000000E+00  0.000000000E+00  3.376086960E+02  3.376086960E+02  0.000000000E+00  0.00000E+00  9.000E+00
      21    -1     0     0   501   512  0.000000000E+00  0.000000000E+00 -1.368114582E+03  1.368114582E+03  0.000000000E+00  0.00000E+00  9.000E+00
      25     1     1     2     0     0  2.660601509E+02  2.136840426E+02 -4.062445447E+02  5.450766039E+02  1.250000000E+02  0.00000E+00  9.000E+00
      25     1     1     2     0     0 -3.440341253E+02 -3.414894832E+02  1.824159703E+01  5.009314348E+02  1.250000000E+02  0.00000E+00  9.000E+00
      21     1     1     2   502   512  7.797397439E+01  1.278054406E+02 -6.425029387E+02  6.597152397E+02  0.000000000E+00  0.00000E+00  9.000E+00
#rwgt            1           1   3.5579223704396451E-002          10      115416           0
</event>
<event>
      5   9999  3.19816E-02  4.72228E+01 -1.00000E+00  1.40506E-01
      21    -1     0     0   502   501  0.000000000E+00  0.000000000E+00  1.100059109E+03  1.100059109E+03  0.000000000E+00  0.00000E+00  9.000E+00
       2    -1     0     0   501     0  0.000000000E+00  0.000000000E+00 -8.534408978E+02  8.534408978E+02  0.000000000E+00  0.00000E+00  9.000E+00
      25     1     1     2     0     0 -3.631182714E+02  2.454806217E+02  1.463451424E+02  4.787039955E+02  1.250000000E+02  0.00000E+00  9.000E+00
      25     1     1     2     0     0  4.067435056E+02 -2.274021219E+02  7.126458843E+02  8.606051132E+02  1.250000000E+02  0.00000E+00  9.000E+00
       2     1     1     2   502     0 -4.362523426E+01 -1.807849977E+01 -6.123728159E+02  6.141908977E+02  1.321449896E-05  0.00000E+00  9.000E+00
#rwgt            1           1   2.9058983242221396E-002          10      115464           0
</event>
<event>
      5   9999  3.19816E-02  3.07643E+01 -1.00000E+00  1.52285E-01
      21    -1     0     0   502   501  0.000000000E+00  0.000000000E+00  4.706821476E+02  4.706821476E+02  0.000000000E+00  0.00000E+00  9.000E+00
      -3    -1     0     0     0   502  0.000000000E+00  0.000000000E+00 -1.286791806E+03  1.286791806E+03  0.000000000E+00  0.00000E+00  9.000E+00
      25     1     1     2     0     0 -2.999759060E+02  3.697812780E+02 -1.100098334E+02  5.044312650E+02  1.250000000E+02  0.00000E+00  9.000E+00
      25     1     1     2     0     0  3.219655239E+02 -3.482662019E+02  5.298095134E+01  4.933387550E+02  1.250000000E+02  0.00000E+00  9.000E+00
      -3     1     1     2     0   501 -2.198961789E+01 -2.151507605E+01 -7.590807762E+02  7.597039336E+02  0.000000000E+00  0.00000E+00  9.000E+00
#rwgt            1           1   2.6794143396922144E-002          10      115538           0
</event>
<event>
      5   9999  3.19816E-02  2.43136E+02 -1.00000E+00  1.08645E-01
      -1    -1     0     0     0   501  0.000000000E+00  0.000000000E+00  2.664884508E+03  2.664884508E+03  0.000000000E+00  0.00000E+00  9.000E+00
      21    -1     0     0   501   502  0.000000000E+00  0.000000000E+00 -9.466283855E+01  9.466283855E+01  0.000000000E+00  0.00000E+00  9.000E+00
      25     1     1     2     0     0  1.134535812E+02  1.819858063E+02  5.135498706E+02  5.703937398E+02  1.250000000E+02  0.00000E+00  9.000E+00
      25     1     1     2     0     0 -1.586498403E+02  5.691277670E+01  1.292427796E+02  2.464498571E+02  1.250000000E+02  0.00000E+00  9.000E+00
      -1     1     1     2     0   502  4.519625906E+01 -2.388985830E+02  1.927429019E+03  1.942703749E+03  2.157918644E-05  0.00000E+00  9.000E+00
#rwgt            1           1   3.0899106280791976E-002          10      115653           0
</event>
<event>
      5   9999  3.19816E-02  1.90686E+01 -1.00000E+00  1.68096E-01
      21    -1     0     0   502   501  0.000000000E+00  0.000000000E+00  4.240866182E+02  4.240866182E+02  0.000000000E+00  0.00000E+00  9.000E+00
      21    -1     0     0   511   502  0.000000000E+00  0.000000000E+00 -1.089892542E+03  1.089892542E+03  0.000000000E+00  0.00000E+00  9.000E+00
      25     1     1     2     0     0 -4.388735725E+02  4.599020003E+02 -2.815899608E+02  7.064260532E+02  1.250000000E+02  0.00000E+00  9.000E+00
      25     1     1     2     0     0  4.246971306E+02 -4.471489553E+02 -2.582754987E+02  6.801772373E+02  1.250000000E+02  0.00000E+00  9.000E+00
      21     1     1     2   511   501  1.417644197E+01 -1.275304503E+01 -1.259404638E+02  1.273758694E+02  0.000000000E+00  0.00000E+00  9.000E+00
#rwgt            1           1   2.8524087548600221E-002          10      115690           0
</event>
<event>
      5   9999  3.19816E-02  3.52566E+01 -1.00000E+00  1.48324E-01
      21    -1     0     0   512   501  0.000000000E+00  0.000000000E+00  1.547950916E+03  1.547950916E+03  0.000000000E+00  0.00000E+00  9.000E+00
      21    -1     0     0   501   502  0.000000000E+00  0.000000000E+00 -7.687396022E+02  7.687396022E+02  0.000000000E+00  0.00000E+00  9.000E+00
      25     1     1     2     0     0  2.065572833E+02 -5.041109224E+01  4.987362248E+02  5.563901611E+02  1.250000000E+02  0.00000E+00  9.000E+00
      25     1     1     2     0     0 -2.339083585E+02  7.265846165E+01 -7.140400448E+02  7.651604785E+02  1.250000000E+02  0.00000E+00  9.000E+00
      21     1     1     2   512   502  2.735107520E+01 -2.224736941E+01  9.945151338E+02  9.951398787E+02  1.525878906E-05  0.00000E+00  9.000E+00
#rwgt            1           1   2.7636950437959985E-002          10      115952           0
</event>
<event>
      5   9999  3.19816E-02  5.03556E+01 -1.00000E+00  1.38900E-01
      21    -1     0     0   502   511  0.000000000E+00  0.000000000E+00  8.321978634E+02  8.321978634E+02  0.000000000E+00  0.00000E+00  9.000E+00
      21    -1     0     0   501   502  0.000000000E+00  0.000000000E+00 -4.116088103E+02  4.116088103E+02  0.000000000E+00  0.00000E+00  9.000E+00
      25     1     1     2     0     0 -2.674162820E+02 -4.927888645E+02  2.383262066E+02  6.219137509E+02  1.250000000E+02  0.00000E+00  9.000E+00
      25     1     1     2     0     0  2.744403085E+02  4.429255169E+02  1.344435653E+02  5.524496074E+02  1.250000000E+02  0.00000E+00  9.000E+00
      21     1     1     2   501   511 -7.024026574E+00  4.986334760E+01  4.781928124E+01  6.944331531E+01  9.536743164E-07  0.00000E+00  9.000E+00
#rwgt            1           1   2.8365789432045579E-002          10      116128           0
</event>
<event>
      5   9999  3.19816E-02  5.06080E+01 -1.00000E+00  1.38777E-01
      21    -1     0     0   512   501  0.000000000E+00  0.000000000E+00  6.430258880E+02  6.430258880E+02  0.000000000E+00  0.00000E+00  9.000E+00
      21    -1     0     0   501   502  0.000000000E+00  0.000000000E+00 -2.289603363E+02  2.289603363E+02  0.000000000E+00  0.00000E+00  9.000E+00
      25     1     1     2     0     0  3.912792147E+01 -1.598323754E+02 -1.325211397E+02  2.454877491E+02  1.250000000E+02  0.00000E+00  9.000E+00
      25     1     1     2     0     0 -2.848425097E+01  2.093084190E+02  3.798660973E+02  4.522660928E+02  1.250000000E+02  0.00000E+00  9.000E+00
      21     1     1     2   512   502 -1.064367050E+01 -4.947604355E+01  1.667205941E+02  1.742323825E+02  1.907348633E-06  0.00000E+00  9.000E+00
#rwgt            1           1   2.5722397001311823E-002          10      116255           0
</event>
<event>
      5   9999  3.19816E-02  1.87465E+02 -1.00000E+00  1.12681E-01
      21    -1     0     0   502   501  0.000000000E+00  0.000000000E+00  1.453420859E+03  1.453420859E+03  0.000000000E+00  0.00000E+00  9.000E+00
      21    -1     0     0   511   502  0.000000000E+00  0.000000000E+00 -1.194869977E+03  1.194869977E+03  0.000000000E+00  0.00000E+00  9.000E+00
      25     1     1     2     0     0  6.587841450E+02 -6.135131817E+02  9.670328080E+02  1.327091717E+03  1.250000000E+02  0.00000E+00  9.000E+00
      25     1     1     2     0     0 -7.294348357E+02  4.398708032E+02 -3.758706492E+02  9.393962146E+02  1.250000000E+02  0.00000E+00  9.000E+00
      21     1     1     2   511   501  7.065069067E+01  1.736423785E+02 -3.326112767E+02  3.818029035E+02  3.814697266E-06  0.00000E+00  9.000E+00
#rwgt            1           1   3.5758916657523725E-002          10      116401           0
</event>
<event>
      5   9999  3.19816E-02  8.63125E+01 -1.00000E+00  1.26773E-01
      21    -1     0     0   502   501  0.000000000E+00  0.000000000E+00  1.175714292E+03  1.175714292E+03  0.000000000E+00  0.00000E+00  9.000E+00
      21    -1     0     0   512   502  0.000000000E+00  0.000000000E+00 -1.774372487E+02  1.774372487E+02  0.000000000E+00  0.00000E+00  9.000E+00
      25     1     1     2     0     0 -1.743725725E+02  2.656613710E+02  7.767703507E+02  8.485157251E+02  1.250000000E+02  0.00000E+00  9.000E+00
      25     1     1     2     0     0  1.091308082E+02 -3.221711675E+02  2.062832307E+02  4.169910859E+02  1.250000000E+02  0.00000E+00  9.000E+00
      21     1     1     2   512   501  6.524176428E+01  5.650979641E+01  1.522346223E+01  8.764473002E+01  2.920019320E-07  0.00000E+00  9.000E+00
#rwgt            1           1   2.5439047162476972E-002          10      116525           0
</event>
<event>
      5   9999  3.19816E-02  6.49242E+01 -1.00000E+00  1.32898E-01
      21    -1     0     0   511   501  0.000000000E+00  0.000000000E+00  1.319878514E+02  1.319878514E+02  0.000000000E+00  0.00000E+00  9.000E+00
      21    -1     0     0   501   502  0.000000000E+00  0.000000000E+00 -5.004932135E+02  5.004932135E+02  0.000000000E+00  0.00000E+00  9.000E+00
      25     1     1     2     0     0  1.282630076E+02 -3.355943292E+01 -2.449532585E+02  3.052945029E+02  1.250000000E+02  0.00000E+00  9.000E+00
      25     1     1     2     0     0 -1.930633461E+02  2.955078454E+01 -1.224962593E+02  2.622537665E+02  1.250000000E+02  0.00000E+00  9.000E+00
      21     1     1     2   511   502  6.480033846E+01  4.008648383E+00 -1.055844272E+00  6.493279552E+01  1.209750384E-06  0.00000E+00  9.000E+00
#rwgt            1           1   2.8663181157242604E-002          10      116666           0
</event>
<event>
      5   9999  3.41774E-02  5.65327E+01 -1.00000E+00  1.36100E-01
      21    -1     0     0   512   501  0.000000000E+00  0.000000000E+00  4.062097226E+01  4.062097226E+01  0.000000000E+00  0.00000E+00  9.000E+00
      21    -1     0     0   501   502  0.000000000E+00  0.000000000E+00 -1.974275536E+03  1.974275536E+03  0.000000000E+00  0.00000E+00  9.000E+00
      25     1     1     2     0     0 -5.067141141E+01  7.785803220E+00 -1.239286207E+03  1.246628860E+03  1.250000000E+02  0.00000E+00  9.000E+00
      25     1     1     2     0     0  8.581623916E+01 -5.206657971E+01 -6.934373585E+02  7.117272833E+02  1.250000000E+02  0.00000E+00  9.000E+00
      21     1     1     2   512   502 -3.514482776E+01  4.428077649E+01 -9.309975644E-01  5.654036471E+01  4.886808494E-07  0.00000E+00  9.000E+00
#rwgt            1           1  0.18406933499667211               10      116712           0
</event>
<event>
      5   9999  3.19816E-02  4.47132E+01 -1.00000E+00  1.41902E-01
      21    -1     0     0   511   501  0.000000000E+00  0.000000000E+00  1.387019211E+02  1.387019211E+02  0.000000000E+00  0.00000E+00  9.000E+00
      21    -1     0     0   501   502  0.000000000E+00  0.000000000E+00 -1.269617824E+03  1.269617824E+03  0.000000000E+00  0.00000E+00  9.000E+00
      25     1     1     2     0     0  1.918552862E+02 -9.113442263E+01 -1.071277745E+03  1.099261089E+03  1.250000000E+02  0.00000E+00  9.000E+00
      25     1     1     2     0     0 -1.688742637E+02  1.294898806E+02 -8.066285805E+01  2.596490763E+02  1.250000000E+02  0.00000E+00  9.000E+00
      21     1     1     2   511   502 -2.298102245E+01 -3.835545798E+01  2.102470063E+01  4.940957990E+01  1.327458468E-06  0.00000E+00  9.000E+00
#rwgt            1           1   2.6264312017749678E-002          10      116787           0
</event>
<event>
      5   9999  3.19816E-02  9.41690E+01 -1.00000E+00  1.25013E-01
      21    -1     0     0   512   501  0.000000000E+00  0.000000000E+00  1.640425137E+02  1.640425137E+02  0.000000000E+00  0.00000E+00  9.000E+00
      21    -1     0     0   501   502  0.000000000E+00  0.000000000E+00 -4.151976609E+02  4.151976609E+02  0.000000000E+00  0.00000E+00  9.000E+00
      25     1     1     2     0     0 -1.805316482E+02  6.042437168E+01 -9.485294826E+01  2.467080511E+02  1.250000000E+02  0.00000E+00  9.000E+00
      25     1     1     2     0     0  1.410594859E+02  2.507267977E+01 -1.419431509E+02  2.372746845E+02  1.250000000E+02  0.00000E+00  9.000E+00
      21     1     1     2   512   502  3.947216228E+01 -8.549705146E+01 -1.435904798E+01  9.525743888E+01  2.660264206E-06  0.00000E+00  9.000E+00
#rwgt            1           1   2.5952777567233125E-002          10      116858           0
</event>
<event>
      5   9999  3.19816E-02  5.52838E+01 -1.00000E+00  1.36631E-01
      21    -1     0     0   502   511  0.000000000E+00  0.000000000E+00  4.643479315E+02  4.643479315E+02  0.000000000E+00  0.00000E+00  9.000E+00
      21    -1     0     0   501   502  0.000000000E+00  0.000000000E+00 -5.171151730E+02  5.171151730E+02  0.000000000E+00  0.00000E+00  9.000E+00
      25     1     1     2     0     0 -1.771473721E+01  2.404995656E+01 -4.176097082E+02  4.369383030E+02  1.250000000E+02  0.00000E+00  9.000E+00
      25     1     1     2     0     0 -5.142675889E+00  2.628731159E+01 -4.152598489E+01  1.344130845E+02  1.250000000E+02  0.00000E+00  9.000E+00
      21     1     1     2   501   511  2.285741309E+01 -5.033726815E+01  4.063684516E+02  4.101117169E+02  5.394796609E-06  0.00000E+00  9.000E+00
#rwgt            1           1   2.8942659237618275E-002          10      116907           0
</event>
<event>
      5   9999  3.19816E-02  2.29095E+01 -1.00000E+00  1.61645E-01
      21    -1     0     0   502   501  0.000000000E+00  0.000000000E+00  5.160419833E+01  5.160419833E+01  0.000000000E+00  0.00000E+00  9.000E+00
      21    -1     0     0   501   512  0.000000000E+00  0.000000000E+00 -1.263390865E+03  1.263390865E+03  0.000000000E+00  0.00000E+00  9.000E+00
      25     1     1     2     0     0 -3.218586389E+01  1.104987089E+02 -1.228174762E+02  2.096545420E+02  1.250000000E+02  0.00000E+00  9.000E+00
      25     1     1     2     0     0  1.657021103E+01 -9.373581731E+01 -7.886318568E+02  8.041306989E+02  1.250000000E+02  0.00000E+00  9.000E+00
      21     1     1     2   502   512  1.561565286E+01 -1.676289161E+01 -3.003373341E+02  3.012098229E+02  3.814697266E-06  0.00000E+00  9.000E+00
#rwgt            1           1   3.0937402379070774E-002          10      116978           0
</event>
<event>
      5   9999  3.19816E-02  9.15613E+01 -1.00000E+00  1.25575E-01
      21    -1     0     0   502   501  0.000000000E+00  0.000000000E+00  1.805289157E+02  1.805289157E+02  0.000000000E+00  0.00000E+00  9.000E+00
      21    -1     0     0   501   511  0.000000000E+00  0.000000000E+00 -1.381483044E+03  1.381483044E+03  0.000000000E+00  0.00000E+00  9.000E+00
      25     1     1     2     0     0  1.487334793E+02 -6.555174442E+01  8.923518565E+01  2.236215496E+02  1.250000000E+02  0.00000E+00  9.000E+00
      25     1     1     2     0     0 -1.623234240E+02  1.560988545E+02 -1.055521932E+03  1.086493118E+03  1.250000000E+02  0.00000E+00  9.000E+00
      21     1     1     2   502   511  1.358994462E+01 -9.054711005E+01 -2.346673820E+02  2.518972924E+02  5.394796609E-06  0.00000E+00  9.000E+00
#rwgt            1           1   2.4243261103474127E-002          10      117117           0
</event>
<event>
      5   9999  3.19816E-02  5.38314E+01 -1.00000E+00  1.37270E-01
      21    -1     0     0   502   501  0.000000000E+00  0.000000000E+00  1.392623903E+02  1.392623903E+02  0.000000000E+00  0.00000E+00  9.000E+00
       3    -1     0     0   501     0  0.000000000E+00  0.000000000E+00 -7.644209263E+02  7.644209263E+02  0.000000000E+00  0.00000E+00  9.000E+00
      25     1     1     2     0     0  1.116907358E+02 -1.155654847E+02 -6.219166494E+02  6.543970664E+02  1.250000000E+02  0.00000E+00  9.000E+00
      25     1     1     2     0     0 -6.198193993E+01  1.362258657E+02  3.534155371E+00  1.950300941E+02  1.250000000E+02  0.00000E+00  9.000E+00
       3     1     1     2   502     0 -4.970879588E+01 -2.066038095E+01 -6.776041896E+00  5.425615608E+01  1.460009660E-07  0.00000E+00  9.000E+00
#rwgt            1           1   2.8237363453740984E-002          10      117222           0
</event>
<event>
      5   9999  3.19816E-02  1.73373E+01 -1.00000E+00  1.71657E-01
      21    -1     0     0   502   501  0.000000000E+00  0.000000000E+00  2.210599541E+02  2.210599541E+02  0.000000000E+00  0.00000E+00  9.000E+00
      21    -1     0     0   501   511  0.000000000E+00  0.000000000E+00 -2.944672704E+02  2.944672704E+02  0.000000000E+00  0.00000E+00  9.000E+00
      25     1     1     2     0     0  3.351315234E+01  2.064132898E+02  3.012456288E+01  2.454833332E+02  1.250000000E+02  0.00000E+00  9.000E+00
      25     1     1     2     0     0 -2.168749026E+01 -1.937351423E+02 -9.179991709E+01  2.491101712E+02  1.250000000E+02  0.00000E+00  9.000E+00
      21     1     1     2   502   511 -1.182566209E+01 -1.267814749E+01 -1.173196202E+01  2.093372017E+01  1.685873940E-07  0.00000E+00  9.000E+00
#rwgt            1           1   2.8223580600703211E-002          10      117363           0
</event>
<event>
      5   9999  3.19816E-02  9.65649E+01 -1.00000E+00  1.24515E-01
      21    -1     0     0   502   501  0.000000000E+00  0.000000000E+00  1.708623508E+03  1.708623508E+03  0.000000000E+00  0.00000E+00  9.000E+00
      21    -1     0     0   512   502  0.000000000E+00  0.000000000E+00 -9.536067420E+02  9.536067420E+02  0.000000000E+00  0.00000E+00  9.000E+00
      25     1     1     2     0     0  2.324783818E+02  7.502255871E+02 -5.600437576E+02  9.727068623E+02  1.250000000E+02  0.00000E+00  9.000E+00
      25     1     1     2     0     0 -2.111583501E+02 -8.444075212E+02  1.327330686E+03  1.592182044E+03  1.250000000E+02  0.00000E+00  9.000E+00
      21     1     1     2   512   501 -2.132003170E+01  9.418193413E+01 -1.227016185E+01  9.734134446E+01  1.479348379E-06  0.00000E+00  9.000E+00
#rwgt            1           1   5.8995260481270337E-002          10      117499           0
</event>
<event>
      5   9999  3.19816E-02  4.52238E+02 -1.00000E+00  1.00107E-01
      21    -1     0     0   502   501  0.000000000E+00  0.000000000E+00  1.762094990E+03  1.762094990E+03  0.000000000E+00  0.00000E+00  9.000E+00
      21    -1     0     0   511   502  0.000000000E+00  0.000000000E+00 -1.580831760E+03  1.580831760E+03  0.000000000E+00  0.00000E+00  9.000E+00
      25     1     1     2     0     0 -7.814218394E+01 -9.531982912E+02  5.668740337E+02  1.118778063E+03  1.250000000E+02  0.00000E+00  9.000E+00
      25     1     1     2     0     0  9.246694430E+01  5.011874339E+02  7.991350284E+02  9.560234167E+02  1.250000000E+02  0.00000E+00  9.000E+00
      21     1     1     2   511   501 -1.432476036E+01  4.520108574E+02 -1.184745833E+03  1.268125271E+03  2.642899792E-05  0.00000E+00  9.000E+00
#rwgt            1           1   3.6202583574514224E-002          10      117603           0
</event>
<event>
      5   9999  3.19816E-02  2.82210E+01 -1.00000E+00  1.54907E-01
      21    -1     0     0   512   501  0.000000000E+00  0.000000000E+00  1.464737925E+02  1.464737925E+02  0.000000000E+00  0.00000E+00  9.000E+00
      21    -1     0     0   501   502  0.000000000E+00  0.000000000E+00 -1.773450894E+03  1.773450894E+03  0.000000000E+00  0.00000E+00  9.000E+00
      25     1     1     2     0     0 -3.024999330E+02  3.283665311E+02 -9.833216726E+02  1.087141803E+03  1.250000000E+02  0.00000E+00  9.000E+00
      25     1     1     2     0     0  3.020301639E+02 -3.565836232E+02 -6.428871561E+02  8.045514251E+02  1.250000000E+02  0.00000E+00  9.000E+00
      21     1     1     2   512   502  4.697690607E-01  2.821709202E+01 -7.682722868E-01  2.823145776E+01  6.344815748E-07  0.00000E+00  9.000E+00
#rwgt            1           1   3.1479794145736831E-002          10      117645           0
</event>
<event>
      5   9999  3.19816E-02  1.07508E+02 -1.00000E+00  1.22430E-01
      -1    -1     0     0     0   501  0.000000000E+00  0.000000000E+00  7.929043592E+01  7.929043592E+01  0.000000000E+00  0.00000E+00  9.000E+00
      21    -1     0     0   501   502  0.000000000E+00  0.000000000E+00 -1.567172561E+03  1.567172561E+03  0.000000000E+00  0.00000E+00  9.000E+00
      25     1     1     2     0     0  1.450062155E+02 -1.393107426E+02 -5.465909311E+02  5.956684745E+02  1.250000000E+02  0.00000E+00  9.000E+00
      25     1     1     2     0     0 -4.074175371E+01  1.131004666E+02 -9.261234288E+02  9.422214238E+02  1.250000000E+02  0.00000E+00  9.000E+00
      -1     1     1     2     0   502 -1.042644618E+02  2.621027605E+01 -1.516776473E+01  1.085730982E+02  2.448873351E-06  0.00000E+00  9.000E+00
#rwgt            1           1   3.7927417284061668E-002          10      117766           0
</event>
<event>
      5   9999  3.19816E-02  3.07184E+01 -1.00000E+00  1.52329E-01
      21    -1     0     0   511   501  0.000000000E+00  0.000000000E+00  2.501777902E+02  2.501777902E+02  0.000000000E+00  0.00000E+00  9.000E+00
      21    -1     0     0   501   502  0.000000000E+00  0.000000000E+00 -1.554661897E+02  1.554661897E+02  0.000000000E+00  0.00000E+00  9.000E+00
      25     1     1     2     0     0  7.614771542E+01 -9.798695009E+01  5.949633281E+01  1.859159234E+02  1.250000000E+02  0.00000E+00  9.000E+00
      25     1     1     2     0     0 -7.524669798E+01  6.728179497E+01 -1.446605628E+01  1.613169931E+02  1.250000000E+02  0.00000E+00  9.000E+00
      21     1     1     2   511   502 -9.010174361E-01  3.070515511E+01  4.968132394E+01  5.841106343E+01  9.536743164E-07  0.00000E+00  9.000E+00
#rwgt            1           1   2.2106094405879528E-002          10      117797           0
</event>
<event>
      5   9999  3.19816E-02  1.04802E+02 -1.00000E+00  1.22919E-01
      -2    -1     0     0     0   501  0.000000000E+00  0.000000000E+00  2.047778809E+02  2.047778809E+02  0.000000000E+00  0.00000E+00  9.000E+00
      21    -1     0     0   501   502  0.000000000E+00  0.000000000E+00 -5.768420304E+02  5.768420304E+02  0.000000000E+00  0.00000E+00  9.000E+00
      25     1     1     2     0     0 -1.182187389E+02  1.400987138E+02 -2.729789354E+02  3.517752393E+02  1.250000000E+02  0.00000E+00  9.000E+00
      25     1     1     2     0     0  1.550610321E+02 -2.382114777E+02 -5.150736605E+01  3.147485354E+02  1.250000000E+02  0.00000E+00  9.000E+00
      -2     1     1     2     0   502 -3.684229324E+01  9.811276394E+01 -4.757784804E+01  1.150961365E+02  1.784161275E-06  0.00000E+00  9.000E+00
#rwgt            1           1   2.9628292306252330E-002          10      117899           0
</event>
<event>
      5   9999  3.19816E-02  1.09478E+02 -1.00000E+00  1.22085E-01
       3    -1     0     0   502     0  0.000000000E+00  0.000000000E+00  2.202411955E+02  2.202411955E+02  0.000000000E+00  0.00000E+00  9.000E+00
      21    -1     0     0   501   502  0.000000000E+00  0.000000000E+00 -6.042883028E+02  6.042883028E+02  0.000000000E+00  0.00000E+00  9.000E+00
      25     1     1     2     0     0 -9.417155449E+01  1.736805364E+02 -6.879805993E+01  2.437034744E+02  1.250000000E+02  0.00000E+00  9.000E+00
      25     1     1     2     0     0  3.868142478E+01 -2.680538827E+02 -3.556079271E+02  4.641455963E+02  1.250000000E+02  0.00000E+00  9.000E+00
       3     1     1     2   501     0  5.549012971E+01  9.437334635E+01  4.035887975E+01  1.166804275E+02  1.651812370E-06  0.00000E+00  9.000E+00
#rwgt            1           1   2.7579813996454039E-002          10      117968           0
</event>
<event>
      5   9999  3.19816E-02  3.64766E+01 -1.00000E+00  1.47368E-01
       1    -1     0     0   502     0  0.000000000E+00  0.000000000E+00  1.456423742E+03  1.456423742E+03  0.000000000E+00  0.00000E+00  9.000E+00
      21    -1     0     0   501   502  0.000000000E+00  0.000000000E+00 -4.698162087E+02  4.698162087E+02  0.000000000E+00  0.00000E+00  9.000E+00
      25     1     1     2     0     0 -3.402819099E+02  2.711687501E+02  2.405208792E+02  5.126397981E+02  1.250000000E+02  0.00000E+00  9.000E+00
      25     1     1     2     0     0  3.747926983E+02 -2.593556888E+02 -1.659017610E+02  5.008825554E+02  1.250000000E+02  0.00000E+00  9.000E+00
       1     1     1     2   501     0 -3.451078839E+01 -1.181306133E+01  9.119884153E+02  9.127175974E+02  1.078959322E-05  0.00000E+00  9.000E+00
#rwgt            1           1   2.9830774876892084E-002          10      118048           0
</event>
<event>
      5   9999  3.19816E-02  2.57620E+02 -1.00000E+00  1.07787E-01
       2    -1     0     0   502     0  0.000000000E+00  0.000000000E+00  2.265374489E+03  2.265374489E+03  0.000000000E+00  0.00000E+00  9.000E+00
      21    -1     0     0   501   502  0.000000000E+00  0.000000000E+00 -1.181518908E+03  1.181518908E+03  0.000000000E+00  0.00000E+00  9.000E+00
      25     1     1     2     0     0  4.321138595E+02  1.845888687E+02 -9.630996127E+02  1.078879651E+03  1.250000000E+02  0.00000E+00  9.000E+00
      25     1     1     2     0     0 -2.201697118E+02 -3.310398503E+02  1.339724394E+02  4.377621489E+02  1.250000000E+02  0.00000E+00  9.000E+00
       2     1     1     2   501     0 -2.119441477E+02  1.464509816E+02  1.912982754E+03  1.930251597E+03  2.157918644E-05  0.00000E+00  9.000E+00
#rwgt            2          18   6.0922708274828725E-003          10      118189           0
</event>
<event>
      5   9999  3.19816E-02  2.23580E+02 -1.00000E+00  1.09914E-01
      21    -1     0     0   502   511  0.000000000E+00  0.000000000E+00  8.552712154E+02  8.552712154E+02  0.000000000E+00  0.00000E+00  9.000E+00
      21    -1     0     0   501   502  0.000000000E+00  0.000000000E+00 -4.032532771E+02  4.032532771E+02  0.000000000E+00  0.00000E+00  9.000E+00
      25     1     1     2     0     0 -1.275096445E+01  1.197980992E+02  1.934211709E+02  2.599056002E+02  1.250000000E+02  0.00000E+00  9.000E+00
      25     1     1     2     0     0  1.827524338E+02 -2.650133824E+02 -2.610597665E+02  4.329061637E+02  1.250000000E+02  0.00000E+00  9.000E+00
      21     1     1     2   501   511 -1.700014694E+02  1.452152832E+02  5.196565339E+02  5.657127286E+02  0.000000000E+00  0.00000E+00  9.000E+00
#rwgt            2          11   2.7885736181381109E-003          10      118283           0
</event>
<event>
      5   9999  3.19816E-02  2.65100E+01 -1.00000E+00  1.56867E-01
      21    -1     0     0   502   501  0.000000000E+00  0.000000000E+00  1.318371839E+03  1.318371839E+03  0.000000000E+00  0.00000E+00  9.000E+00
      21    -1     0     0   512   502  0.000000000E+00  0.000000000E+00 -2.069981914E+02  2.069981914E+02  0.000000000E+00  0.00000E+00  9.000E+00
      25     1     1     2     0     0  3.366996735E+02 -1.076579701E+01  1.425587958E+02  3.865625212E+02  1.250000000E+02  0.00000E+00  9.000E+00
      25     1     1     2     0     0 -3.468188518E+02 -1.373686846E+01  1.018081902E+03  1.082860922E+03  1.250000000E+02  0.00000E+00  9.000E+00
      21     1     1     2   512   501  1.011917824E+01  2.450266547E+01 -4.926705007E+01  5.594658709E+01  1.168007728E-06  0.00000E+00  9.000E+00
#rwgt            1           1   2.9844134732138320E-002          10      118303           0
</event>
<event>
      5   9999  3.19816E-02  1.89037E+02 -1.00000E+00  1.12547E-01
      21    -1     0     0   511   501  0.000000000E+00  0.000000000E+00  2.225441548E+03  2.225441548E+03  0.000000000E+00  0.00000E+00  9.000E+00
      21    -1     0     0   501   502  0.000000000E+00  0.000000000E+00 -7.477076721E+01  7.477076721E+01  0.000000000E+00  0.00000E+00  9.000E+00
      25     1     1     2     0     0  3.241279715E+01 -1.763118898E+02  5.877063024E+02  6.270248558E+02  1.250000000E+02  0.00000E+00  9.000E+00
      25     1     1     2     0     0 -8.107773252E+01  3.589778800E+02  8.341386394E+02  9.202450688E+02  1.250000000E+02  0.00000E+00  9.000E+00
      21     1     1     2   511   502  4.866493537E+01 -1.826659902E+02  7.288258389E+02  7.529423904E+02  0.000000000E+00  0.00000E+00  9.000E+00
#rwgt            2          11   2.5130020388993424E-003          10      118419           0
</event>
<event>
      5   9999  3.19816E-02  8.90822E+01 -1.00000E+00  1.26129E-01
       1    -1     0     0   502     0  0.000000000E+00  0.000000000E+00  1.846101639E+03  1.846101639E+03  0.000000000E+00  0.00000E+00  9.000E+00
      21    -1     0     0   501   502  0.000000000E+00  0.000000000E+00 -1.100310639E+02  1.100310639E+02  0.000000000E+00  0.00000E+00  9.000E+00
      25     1     1     2     0     0 -7.770207355E+01 -9.027194426E+00 -4.977074343E+01  1.556317107E+02  1.250000000E+02  0.00000E+00  9.000E+00
      25     1     1     2     0     0  1.216693178E+01 -5.131174435E+01  8.961892771E+02  9.064001047E+02  1.250000000E+02  0.00000E+00  9.000E+00
       1     1     1     2   501     0  6.553514177E+01  6.033893877E+01  8.896520417E+02  8.941008879E+02  0.000000000E+00  0.00000E+00  9.000E+00
#rwgt            2          17   3.5861391147322961E-004          10      118529           0
</event>
<event>
      5   9999  3.19816E-02  1.92599E+01 -1.00000E+00  1.67732E-01
      21    -1     0     0   502   511  0.000000000E+00  0.000000000E+00  1.190584044E+02  1.190584044E+02  0.000000000E+00  0.00000E+00  9.000E+00
      21    -1     0     0   501   502  0.000000000E+00  0.000000000E+00 -2.634549832E+02  2.634549832E+02  0.000000000E+00  0.00000E+00  9.000E+00
      25     1     1     2     0     0 -2.861554738E+01 -1.044444000E+02 -4.602409898E+01  1.716703234E+02  1.250000000E+02  0.00000E+00  9.000E+00
      25     1     1     2     0     0  2.396158466E+01  8.575525586E+01 -1.095649082E+02  1.885672043E+02  1.250000000E+02  0.00000E+00  9.000E+00
      21     1     1     2   501   511  4.653962722E+00  1.868914415E+01  1.119242842E+01  2.227585985E+01  1.192092896E-07  0.00000E+00  9.000E+00
#rwgt            1           1   1.9589360611686542E-002          10      118563           0
</event>
<event>
      5   9999  3.19816E-02  8.95955E+01 -1.00000E+00  1.26013E-01
      -1    -1     0     0     0   501  0.000000000E+00  0.000000000E+00  3.534289672E+02  3.534289672E+02  0.000000000E+00  0.00000E+00  9.000E+00
      21    -1     0     0   501   502  0.000000000E+00  0.000000000E+00 -4.890924482E+02  4.890924482E+02  0.000000000E+00  0.00000E+00  9.000E+00
      25     1     1     2     0     0  2.559075910E+02 -1.240338052E+02 -2.688823486E+02  4.108476571E+02  1.250000000E+02  0.00000E+00  9.000E+00
      25     1     1     2     0     0 -2.102413367E+02  2.011178725E+02  7.696102258E+01  3.258800658E+02  1.250000000E+02  0.00000E+00  9.000E+00
      -1     1     1     2     0   502 -4.566625431E+01 -7.708406734E+01  5.625784507E+01  1.057936924E+02  1.348699152E-06  0.00000E+00  9.000E+00
#rwgt            1           1   2.8007272413167607E-002          10      118714           0
</event>
<event>
      5   9999  3.19816E-02  6.44275E+01 -1.00000E+00  1.33072E-01
       2    -1     0     0   502     0  0.000000000E+00  0.000000000E+00  9.928579505E+02  9.928579505E+02  0.000000000E+00  0.00000E+00  9.000E+00
      21    -1     0     0   501   502  0.000000000E+00  0.000000000E+00 -3.507454458E+02  3.507454458E+02  0.000000000E+00  0.00000E+00  9.000E+00
      25     1     1     2     0     0 -3.628412149E+02  2.500102616E+02 -2.541545676E+01  4.587263058E+02  1.250000000E+02  0.00000E+00  9.000E+00
      25     1     1     2     0     0  3.823459291E+02 -1.886060735E+02  3.633230741E+02  5.739244869E+02  1.250000000E+02  0.00000E+00  9.000E+00
       2     1     1     2   501     0 -1.950471415E+01 -6.140418812E+01  3.042048874E+02  3.109526037E+02  6.607249480E-06  0.00000E+00  9.000E+00
#rwgt            1           1   2.5974652194280950E-002          10      118832           0
</event>
<event>
      5   9999  3.19816E-02  1.82528E+02 -1.00000E+00  1.13113E-01
      21    -1     0     0   502   501  0.000000000E+00  0.000000000E+00  1.539174703E+03  1.539174703E+03  0.000000000E+00  0.00000E+00  9.000E+00
      21    -1     0     0   501   511  0.000000000E+00  0.000000000E+00 -3.535753819E+03  3.535753819E+03  0.000000000E+00  0.00000E+00  9.000E+00
      25     1     1     2     0     0  6.426412530E+02  1.362036278E+02  5.130208340E+01  6.706684069E+02  1.250000000E+02  0.00000E+00  9.000E+00
      25     1     1     2     0     0 -6.489492043E+02  4.621532322E+01  1.082190765E+03  1.268870670E+03  1.250000000E+02  0.00000E+00  9.000E+00
      21     1     1     2   502   511  6.307951263E+00 -1.824189510E+02 -3.130071964E+03  3.135389444E+03  4.315837288E-05  0.00000E+00  9.000E+00
#rwgt            1           1   3.0776642151481313E-002          10      118937           0
</event>
<event>
      5   9999  3.19816E-02  3.99036E+01 -1.00000E+00  1.44905E-01
      21    -1     0     0   502   501  0.000000000E+00  0.000000000E+00  3.966629808E+02  3.966629808E+02  0.000000000E+00  0.00000E+00  9.000E+00
      21    -1     0     0   512   502  0.000000000E+00  0.000000000E+00 -2.680310231E+03  2.680310231E+03  0.000000000E+00  0.00000E+00  9.000E+00
      25     1     1     2     0     0 -4.344046483E+02 -4.647199211E+02 -1.312784194E+03  1.464137748E+03  1.250000000E+02  0.00000E+00  9.000E+00
      25     1     1     2     0     0  4.036654569E+02  4.392759264E+02  3.086118164E+01  6.103167646E+02  1.250000000E+02  0.00000E+00  9.000E+00
      21     1     1     2   512   501  3.073919142E+01  2.544399464E+01 -1.001724237E+03  1.002518699E+03  1.078959322E-05  0.00000E+00  9.000E+00
#rwgt            1           1   3.6609055589024365E-002          10      119026           0
</event>
<event>
      5   9999  3.19816E-02  1.33048E+02 -1.00000E+00  1.18496E-01
      21    -1     0     0   502   501  0.000000000E+00  0.000000000E+00  6.622856273E+02  6.622856273E+02  0.000000000E+00  0.00000E+00  9.000E+00
       2    -1     0     0   501     0  0.000000000E+00  0.000000000E+00 -1.956932338E+03  1.956932338E+03  0.000000000E+00  0.00000E+00  9.000E+00
      25     1     1     2     0     0  2.214145100E+02  2.318789901E+02  4.326927585E+02  5.528474243E+02  1.250000000E+02  0.00000E+00  9.000E+00
      25     1     1     2     0     0 -8.937115711E+01 -2.482009755E+02  3.945643431E+01  2.945721273E+02  1.250000000E+02  0.00000E+00  9.000E+00
       2     1     1     2   502     0 -1.320433529E+02  1.632198540E+01 -1.766795903E+03  1.771798414E+03  3.737624730E-05  0.00000E+00  9.000E+00
#rwgt            1           1   2.0144491309147295E-002          10      119142           0
</event>
<event>
      5   9999  3.19816E-02  1.94960E+02  7.55638E-03  1.12053E-01
       2    -1     0     0   501     0  0.000000000E+00  0.000000000E+00  3.053770716E+03  3.053770716E+03  0.000000000E+00  0.00000E+00  9.000E+00
      -2    -1     0     0     0   502  0.000000000E+00  0.000000000E+00 -5.662321258E+01  5.662321258E+01  0.000000000E+00  0.00000E+00  9.000E+00
      25     1     1     2     0     0 -8.122299071E+01  1.498415209E+02  3.373858048E+02  3.981254035E+02  1.250000000E+02  0.00000E+00  9.000E+00
      25     1     1     2     0     0  2.753172656E+01  3.757941592E+01  2.293277179E+03  2.297153767E+03  1.250000000E+02  0.00000E+00  9.000E+00
      21     1     1     2   501   502  5.369126415E+01 -1.874209369E+02  3.664845193E+02  4.151147580E+02  0.000000000E+00  0.00000E+00  9.000E+00
#rwgt            3           7   8.5691504812127840E-005          10      119220           0
</event>
<event>
      5   9999  3.19816E-02  5.52609E+01 -1.00000E+00  1.36641E-01
       3    -1     0     0   502     0  0.000000000E+00  0.000000000E+00  6.295074008E+02  6.295074008E+02  0.000000000E+00  0.00000E+00  9.000E+00
      21    -1     0     0   501   502  0.000000000E+00  0.000000000E+00 -1.821882760E+02  1.821882760E+02  0.000000000E+00  0.00000E+00  9.000E+00
      25     1     1     2     0     0  1.144475469E+02 -2.689537156E+02  2.882108992E+02  4.290977331E+02  1.250000000E+02  0.00000E+00  9.000E+00
      25     1     1     2     0     0 -1.362075194E+02  2.181573381E+02  1.032511382E+02  3.040245221E+02  1.250000000E+02  0.00000E+00  9.000E+00
       3     1     1     2   501     0  2.175997244E+01  5.079637748E+01  5.585708740E+01  7.857342159E+01  1.348699152E-06  0.00000E+00  9.000E+00
#rwgt            1           1   2.7294595789414903E-002          10      119254           0
</event>
<event>
      5   9999  3.19816E-02  3.46354E+01 -1.00000E+00  1.48829E-01
      21    -1     0     0   502   511  0.000000000E+00  0.000000000E+00  3.557397602E+02  3.557397602E+02  0.000000000E+00  0.00000E+00  9.000E+00
      21    -1     0     0   501   502  0.000000000E+00  0.000000000E+00 -6.808581675E+02  6.808581675E+02  0.000000000E+00  0.00000E+00  9.000E+00
      25     1     1     2     0     0  1.584985716E+02  2.639904603E+01 -1.477305619E+02  2.515313614E+02  1.250000000E+02  0.00000E+00  9.000E+00
      25     1     1     2     0     0 -1.881491461E+02 -4.430037198E+01 -4.525519984E+02  5.077311645E+02  1.250000000E+02  0.00000E+00  9.000E+00
      21     1     1     2   501   511  2.965057452E+01  1.790132594E+01  2.751641530E+02  2.773354019E+02  3.814697266E-06  0.00000E+00  9.000E+00
#rwgt            1           1   3.0921813320848233E-002          10      119415           0
</event>
<event>
      5   9999  3.19816E-02  1.09897E+01 -1.00000E+00  1.91135E-01
      21    -1     0     0   502   512  0.000000000E+00  0.000000000E+00  1.024752897E+02  1.024752897E+02  0.000000000E+00  0.00000E+00  9.000E+00
      21    -1     0     0   501   502  0.000000000E+00  0.000000000E+00 -1.122421048E+03  1.122421048E+03  0.000000000E+00  0.00000E+00  9.000E+00
      25     1     1     2     0     0 -1.230589344E+02  1.359341754E+02 -8.975400547E+02  9.245673318E+02  1.250000000E+02  0.00000E+00  9.000E+00
      25     1     1     2     0     0  1.267808578E+02 -1.255939060E+02 -1.540438615E+02  2.668365163E+02  1.250000000E+02  0.00000E+00  9.000E+00
      21     1     1     2   501   512 -3.721923423E+00 -1.034026932E+01  3.163815745E+01  3.349249006E+01  8.259061849E-07  0.00000E+00  9.000E+00
#rwgt            1           1   2.4375607129264173E-002          10      119529           0
</event>
<event>
      5   9999  3.19816E-02  1.28381E+02 -1.00000E+00  1.19137E-01
      21    -1     0     0   511   501  0.000000000E+00  0.000000000E+00  1.120672598E+03  1.120672598E+03  0.000000000E+00  0.00000E+00  9.000E+00
      21    -1     0     0   501   502  0.000000000E+00  0.000000000E+00 -1.569224640E+02  1.569224640E+02  0.000000000E+00  0.00000E+00  9.000E+00
      25     1     1     2     0     0  3.691283252E+02 -5.353428949E+01  6.071175036E+02  7.234212492E+02  1.250000000E+02  0.00000E+00  9.000E+00
      25     1     1     2     0     0 -2.611558013E+02 -1.591816098E+01  2.030037053E+02  3.539650333E+02  1.250000000E+02  0.00000E+00  9.000E+00
      21     1     1     2   511   502 -1.079725239E+02  6.945245046E+01  1.536289254E+02  2.002087798E+02  2.697398305E-06  0.00000E+00  9.000E+00
#rwgt            1           1   2.7386518744403222E-002          10      119751           0
</event>
<event>
      5   9999  3.19816E-02  1.64645E+01 -1.00000E+00  1.73655E-01
      21    -1     0     0   512   501  0.000000000E+00  0.000000000E+00  5.117555331E+02  5.117555331E+02  0.000000000E+00  0.00000E+00  9.000E+00
      21    -1     0     0   501   502  0.000000000E+00  0.000000000E+00 -8.638878382E+01  8.638878382E+01  0.000000000E+00  0.00000E+00  9.000E+00
      25     1     1     2     0     0 -5.172183779E+01  2.653355354E+01 -7.170138685E+00  1.380419822E+02  1.250000000E+02  0.00000E+00  9.000E+00
      25     1     1     2     0     0  4.676298747E+01 -4.223350293E+01  3.964208065E+02  4.204103966E+02  1.250000000E+02  0.00000E+00  9.000E+00
      21     1     1     2   512   502  4.958850325E+00  1.569994939E+01  3.611608145E+01  3.969193806E+01  0.000000000E+00  0.00000E+00  9.000E+00
#rwgt            1           1   3.0376303211451742E-002          10      119832           0
</event>
<event>
      5   9999  3.19816E-02  1.78069E+02 -1.00000E+00  1.13516E-01
      21    -1     0     0   502   501  0.000000000E+00  0.000000000E+00  1.005769406E+03  1.005769406E+03  0.000000000E+00  0.00000E+00  9.000E+00
      21    -1     0     0   511   502  0.000000000E+00  0.000000000E+00 -1.044858033E+02  1.044858033E+02  0.000000000E+00  0.00000E+00  9.000E+00
      25     1     1     2     0     0 -7.957637516E+01 -6.658444372E+01  1.867428664E+02  2.475152233E+02  1.250000000E+02  0.00000E+00  9.000E+00
      25     1     1     2     0     0  2.468076034E+02  1.277598843E+02  4.727682123E+02  5.624689891E+02  1.250000000E+02  0.00000E+00  9.000E+00
      21     1     1     2   511   501 -1.672312282E+02 -6.117544058E+01  2.417725237E+02  3.002709967E+02  4.672030912E-06  0.00000E+00  9.000E+00
#rwgt            1           1   3.5277036398737520E-002          10      119918           0
</event>
<event>
      5   9999  3.19816E-02  1.06448E+02 -1.00000E+00  1.22620E-01
      21    -1     0     0   502   512  0.000000000E+00  0.000000000E+00  7.282436709E+02  7.282436709E+02  0.000000000E+00  0.00000E+00  9.000E+00
      21    -1     0     0   501   502  0.000000000E+00  0.000000000E+00 -5.547161085E+02  5.547161085E+02  0.000000000E+00  0.00000E+00  9.000E+00
      25     1     1     2     0     0 -2.135988858E+02  2.523524858E+02 -4.393386095E+02  5.638702643E+02  1.250000000E+02  0.00000E+00  9.000E+00
      25     1     1     2     0     0  1.599371315E+02 -1.604204985E+02  3.480519860E+02  4.336816890E+02  1.250000000E+02  0.00000E+00  9.000E+00
      21     1     1     2   501   512  5.366175431E+01 -9.193198732E+01  2.648141859E+02  2.854078261E+02  3.814697266E-06  0.00000E+00  9.000E+00
#rwgt            1           1   2.9775507548117586E-002          10      120009           0
</event>
<event>
      5   9999  3.19816E-02  9.06106E+01 -1.00000E+00  1.25785E-01
      21    -1     0     0   511   501  0.000000000E+00  0.000000000E+00  2.128783394E+03  2.128783394E+03  0.000000000E+00  0.00000E+00  9.000E+00
      21    -1     0     0   501   502  0.000000000E+00  0.000000000E+00 -1.883579652E+02  1.883579652E+02  0.000000000E+00  0.00000E+00  9.000E+00
      25     1     1     2     0     0  2.646611299E+02  4.459823676E+02  1.006404909E+03  1.139044172E+03  1.250000000E+02  0.00000E+00  9.000E+00
      25     1     1     2     0     0 -3.527203252E+02 -4.673330658E+02  6.678044918E+02  8.968833043E+02  1.250000000E+02  0.00000E+00  9.000E+00
      21     1     1     2   511   502  8.805919526E+01  2.135069820E+01  2.662160286E+02  2.812138831E+02  5.394796609E-06  0.00000E+00  9.000E+00
#rwgt            1           1   2.8350805335720378E-002          10      120106           0
</event>
<event>
      5   9999  3.19816E-02  2.53128E+01 -1.00000E+00  1.58347E-01
      21    -1     0     0   502   501  0.000000000E+00  0.000000000E+00  2.945300835E+02  2.945300835E+02  0.000000000E+00  0.00000E+00  9.000E+00
      21    -1     0     0   501   512  0.000000000E+00  0.000000000E+00 -1.713869156E+02  1.713869156E+02  0.000000000E+00  0.00000E+00  9.000E+00
      25     1     1     2     0     0  7.848995415E-01 -1.305163390E+02  1.896628530E+02  2.619773437E+02  1.250000000E+02  0.00000E+00  9.000E+00
      25     1     1     2     0     0 -1.601445543E+01  1.102975923E+02 -5.756880980E+01  1.770909075E+02  1.250000000E+02  0.00000E+00  9.000E+00
      21     1     1     2   502   512  1.522955589E+01  2.021874668E+01 -8.950875323E+00  2.684874781E+01  2.384185791E-07  0.00000E+00  9.000E+00
#rwgt            1           1   2.6810713979531609E-002          10      120232           0
</event>
<event>
      5   9999  3.19816E-02  1.23038E+01 -1.00000E+00  1.85894E-01
      21    -1     0     0   502   511  0.000000000E+00  0.000000000E+00  7.500241370E+01  7.500241370E+01  0.000000000E+00  0.00000E+00  9.000E+00
      21    -1     0     0   501   502  0.000000000E+00  0.000000000E+00 -6.507599743E+02  6.507599743E+02  0.000000000E+00  0.00000E+00  9.000E+00
      25     1     1     2     0     0 -6.732976402E+01 -1.251794133E+02 -4.092600137E+02  4.509123434E+02  1.250000000E+02  0.00000E+00  9.000E+00
      25     1     1     2     0     0  6.980950073E+01  1.372307583E+02 -1.708855615E+02  2.617871704E+02  1.250000000E+02  0.00000E+00  9.000E+00
      21     1     1     2   501   511 -2.479736707E+00 -1.205134498E+01  4.388014641E+00  1.306287420E+01  8.429369702E-08  0.00000E+00  9.000E+00
#rwgt            1           1   2.7479157711243402E-002          10      120320           0
</event>
<event>
      5   9999  3.19816E-02  2.07167E+02 -1.00000E+00  1.11094E-01
       5    -1     0     0   502     0  0.000000000E+00  0.000000000E+00  2.820915861E+02  2.820915861E+02  0.000000000E+00  0.00000E+00  9.000E+00
      21    -1     0     0   501   502  0.000000000E+00  0.000000000E+00 -5.288576302E+02  5.288576302E+02  0.000000000E+00  0.00000E+00  9.000E+00
      25     1     1     2     0     0  8.086693802E+01 -2.077745132E+02 -1.338638042E+02  2.885380877E+02  1.250000000E+02  0.00000E+00  9.000E+00
      25     1     1     2     0     0  1.244600052E+02  2.353210110E+02 -1.135223016E+02  3.152436900E+02  1.250000000E+02  0.00000E+00  9.000E+00
       5     1     1     2   501     0 -2.053269432E+02 -2.754649783E+01  6.200617528E-01  2.071674386E+02  3.352570859E-06  0.00000E+00  9.000E+00
#rwgt            1           1   2.7521237796576739E-002          10      120488           0
</event>
<event>
      5   9999  3.19816E-02  5.12479E+01 -1.00000E+00  1.38467E-01
      21    -1     0     0   502   501  0.000000000E+00  0.000000000E+00  4.858263393E+02  4.858263393E+02  0.000000000E+00  0.00000E+00  9.000E+00
      21    -1     0     0   501   511  0.000000000E+00  0.000000000E+00 -2.377177943E+02  2.377177943E+02  0.000000000E+00  0.00000E+00  9.000E+00
      25     1     1     2     0     0  2.196062210E+02  2.982827903E+01 -4.488688457E+01  2.583726978E+02  1.250000000E+02  0.00000E+00  9.000E+00
      25     1     1     2     0     0 -2.285765553E+02 -8.028497477E+01  3.084399862E+02  4.116468680E+02  1.250000000E+02  0.00000E+00  9.000E+00
      21     1     1     2   502   511  8.970334239E+00  5.045669574E+01 -1.544455663E+01  5.352456792E+01  7.152557373E-07  0.00000E+00  9.000E+00
#rwgt            1           1   2.7143067323054521E-002          10      120533           0
</event>
<event>
      5   9999  3.19816E-02  2.46890E+01 -1.00000E+00  1.59159E-01
      21    -1     0     0   502   501  0.000000000E+00  0.000000000E+00  4.673645408E+02  4.673645408E+02  0.000000000E+00  0.00000E+00  9.000E+00
      21    -1     0     0   501   512  0.000000000E+00  0.000000000E+00 -1.435687305E+02  1.435687305E+02  0.000000000E+00  0.00000E+00  9.000E+00
      25     1     1     2     0     0 -1.426711457E+02 -1.655930864E+02  1.776197132E+02  3.081393980E+02  1.250000000E+02  0.00000E+00  9.000E+00
      25     1     1     2     0     0  1.181514563E+02  1.627067109E+02  1.458874431E+02  2.781031939E+02  1.250000000E+02  0.00000E+00  9.000E+00
      21     1     1     2   502   512  2.451968939E+01  2.886375453E+00  2.886540008E-01  2.469067946E+01  7.933906348E-07  0.00000E+00  9.000E+00
#rwgt            1           1   2.6446165270715513E-002          10      120625           0
</event>
<event>
      5   9999  3.19816E-02  2.49191E+01 -1.00000E+00  1.58856E-01
      21    -1     0     0   502   511  0.000000000E+00  0.000000000E+00  2.685367171E+02  2.685367171E+02  0.000000000E+00  0.00000E+00  9.000E+00
      21    -1     0     0   501   502  0.000000000E+00  0.000000000E+00 -1.058935381E+03  1.058935381E+03  0.000000000E+00  0.00000E+00  9.000E+00
      25     1     1     2     0     0  1.105023618E+02 -4.822670757E+02 -5.852250920E+02  7.764700333E+02  1.250000000E+02  0.00000E+00  9.000E+00
      25     1     1     2     0     0 -1.051891518E+02  4.579210173E+02 -1.912246691E+02  5.224445327E+02  1.250000000E+02  0.00000E+00  9.000E+00
      21     1     1     2   501   511 -5.313210057E+00  2.434605844E+01 -1.394890319E+01  2.855753251E+01  1.685873940E-07  0.00000E+00  9.000E+00
#rwgt            1           1   2.9003705627383084E-002          10      120750           0
</event>
<event>
      5   9999  3.19816E-02  2.29983E+02 -1.00000E+00  1.09483E-01
      21    -1     0     0   512   501  0.000000000E+00  0.000000000E+00  6.708539226E+02  6.708539226E+02  0.000000000E+00  0.00000E+00  9.000E+00
      21    -1     0     0   501   502  0.000000000E+00  0.000000000E+00 -7.293955105E+02  7.293955105E+02  0.000000000E+00  0.00000E+00  9.000E+00
      25     1     1     2     0     0  5.119221273E+01  1.522323247E+02 -4.921966301E+02  5.326141624E+02  1.250000000E+02  0.00000E+00  9.000E+00
      25     1     1     2     0     0 -2.109897202E+02 -3.176319517E+02  2.917900264E+01  4.023470305E+02  1.250000000E+02  0.00000E+00  9.000E+00
      21     1     1     2   512   502  1.597975074E+02  1.653996270E+02  4.044760395E+02  4.652882403E+02  0.000000000E+00  0.00000E+00  9.000E+00
#rwgt            2          11   3.2546634149685015E-003          10      120869           0
</event>
<event>
      5   9999  3.19816E-02  2.72528E+02 -1.00000E+00  1.06965E-01
      21    -1     0     0   502   501  0.000000000E+00  0.000000000E+00  4.192887683E+02  4.192887683E+02  0.000000000E+00  0.00000E+00  9.000E+00
       1    -1     0     0   501     0  0.000000000E+00  0.000000000E+00 -9.618244441E+02  9.618244441E+02  0.000000000E+00  0.00000E+00  9.000E+00
      25     1     1     2     0     0  3.134777933E+02 -1.415311235E+02 -5.710120685E+01  3.703848453E+02  1.250000000E+02  0.00000E+00  9.000E+00
      25     1     1     2     0     0 -5.493197972E+02  4.965053468E+00 -1.588093528E+02  5.853394758E+02  1.250000000E+02  0.00000E+00  9.000E+00
       1     1     1     2   502     0  2.358420040E+02  1.365660700E+02 -3.266251163E+02  4.253888914E+02  5.394796609E-06  0.00000E+00  9.000E+00
#rwgt            1           1   2.9895793770087806E-002          10      120889           0
</event>
<event>
      5   9999  3.19816E-02  2.24266E+02 -1.00000E+00  1.09867E-01
      21    -1     0     0   502   501  0.000000000E+00  0.000000000E+00  1.645062698E+03  1.645062698E+03  0.000000000E+00  0.00000E+00  9.000E+00
      21    -1     0     0   511   502  0.000000000E+00  0.000000000E+00 -3.234503748E+02  3.234503748E+02  0.000000000E+00  0.00000E+00  9.000E+00
      25     1     1     2     0     0  6.436991723E+02 -2.186235566E+02  8.245295635E+02  1.075926989E+03  1.250000000E+02  0.00000E+00  9.000E+00
      25     1     1     2     0     0 -4.945064829E+02  5.118122413E+01  3.897330263E+02  6.439510937E+02  1.250000000E+02  0.00000E+00  9.000E+00
      21     1     1     2   511   501 -1.491926895E+02  1.674423325E+02  1.073497337E+02  2.486349907E+02  1.348699152E-06  0.00000E+00  9.000E+00
#rwgt            1           1   2.7034688880431555E-002          10      120951           0
</event>
<event>
      5   9999  3.19816E-02  1.09854E+01 -1.00000E+00  1.91154E-01
       3    -1     0     0   502     0  0.000000000E+00  0.000000000E+00  6.609532661E+01  6.609532661E+01  0.000000000E+00  0.00000E+00  9.000E+00
      21    -1     0     0   501   502  0.000000000E+00  0.000000000E+00 -3.382275495E+03  3.382275495E+03  0.000000000E+00  0.00000E+00  9.000E+00
      25     1     1     2     0     0 -3.083779028E+02 -1.858201839E+02 -1.455521314E+03  1.504590764E+03  1.250000000E+02  0.00000E+00  9.000E+00
      25     1     1     2     0     0  3.048221088E+02  1.754262138E+02 -1.882599043E+03  1.919243348E+03  1.250000000E+02  0.00000E+00  9.000E+00
       3     1     1     2   501     0  3.555794022E+00  1.039397008E+01  2.194018781E+01  2.453670976E+01  2.589888690E-06  0.00000E+00  9.000E+00
#rwgt            1           1   2.1258947137396747E-002          10      121034           0
</event>
<event>
      5   9999  3.19816E-02  1.06582E+02 -1.00000E+00  1.22595E-01
      21    -1     0     0   502   511  0.000000000E+00  0.000000000E+00  3.586334442E+02  3.586334442E+02  0.000000000E+00  0.00000E+00  9.000E+00
      21    -1     0     0   501   502  0.000000000E+00  0.000000000E+00 -3.643421284E+02  3.643421284E+02  0.000000000E+00  0.00000E+00  9.000E+00
      25     1     1     2     0     0  1.368403872E+02 -1.932997345E+02 -1.908034050E+02  3.288176064E+02  1.250000000E+02  0.00000E+00  9.000E+00
      25     1     1     2     0     0 -1.557783546E+02  8.841356846E+01  5.362038151E+01  2.249088708E+02  1.250000000E+02  0.00000E+00  9.000E+00
      21     1     1     2   501   511  1.893796736E+01  1.048861660E+02  1.314743392E+02  1.692490954E+02  1.907348633E-06  0.00000E+00  9.000E+00
#rwgt            1           1   2.7155792386430923E-002          10      121214           0
</event>
<event>
      5   9999  3.19816E-02  4.76122E+01 -1.00000E+00  1.40299E-01
      21    -1     0     0   502   512  0.000000000E+00  0.000000000E+00  1.836670471E+03  1.836670471E+03  0.000000000E+00  0.00000E+00  9.000E+00
      21    -1     0     0   501   502  0.000000000E+00  0.000000000E+00 -3.573105799E+02  3.573105799E+02  0.000000000E+00  0.00000E+00  9.000E+00
      25     1     1     2     0     0 -5.081653486E+02 -3.859906205E+02  4.885571069E+02  8.133472981E+02  1.250000000E+02  0.00000E+00  9.000E+00
      25     1     1     2     0     0  5.066272163E+02  4.335780037E+02  3.993189613E+02  7.872367207E+02  1.250000000E+02  0.00000E+00  9.000E+00
      21     1     1     2   501   512  1.538132343E+00 -4.758738327E+01  5.914838226E+02  5.933970318E+02  7.629394531E-06  0.00000E+00  9.000E+00
#rwgt            1           1   2.7975896307040712E-002          10      121268           0
</event>
<event>
      5   9999  3.19816E-02  1.85171E+02 -1.00000E+00  1.12880E-01
      21    -1     0     0   502   511  0.000000000E+00  0.000000000E+00  8.766479598E+02  8.766479598E+02  0.000000000E+00  0.00000E+00  9.000E+00
      21    -1     0     0   501   502  0.000000000E+00  0.000000000E+00 -6.062681347E+02  6.062681347E+02  0.000000000E+00  0.00000E+00  9.000E+00
      25     1     1     2     0     0 -1.399140596E+02 -1.487282040E+02 -4.605430926E+02  5.190577645E+02  1.250000000E+02  0.00000E+00  9.000E+00
      25     1     1     2     0     0  2.762005735E+02  2.337127093E+01  1.223904089E+02  3.277764258E+02  1.250000000E+02  0.00000E+00  9.000E+00
      21     1     1     2   501   511 -1.362865139E+02  1.253569331E+02  6.085325088E+02  6.360819042E+02  7.629394531E-06  0.00000E+00  9.000E+00
#rwgt            2          11   3.4166129482510162E-003          10      121447           0
</event>
<event>
      5   9999  3.19816E-02  4.91506E+01 -1.00000E+00  1.39501E-01
      21    -1     0     0   512   501  0.000000000E+00  0.000000000E+00  3.036365118E+01  3.036365118E+01  0.000000000E+00  0.00000E+00  9.000E+00
      21    -1     0     0   501   502  0.000000000E+00  0.000000000E+00 -1.397669333E+03  1.397669333E+03  0.000000000E+00  0.00000E+00  9.000E+00
      25     1     1     2     0     0  3.648412494E+01 -1.346326722E+02 -6.471555696E+02  6.737153547E+02  1.250000000E+02  0.00000E+00  9.000E+00
      25     1     1     2     0     0  1.108394820E+01  1.222610318E+02 -5.715259322E+02  5.977771365E+02  1.250000000E+02  0.00000E+00  9.000E+00
      21     1     1     2   512   502 -4.756807313E+01  1.237164043E+01 -1.486241802E+02  1.565404932E+02  0.000000000E+00  0.00000E+00  9.000E+00
#rwgt            1           1   2.8591142701208039E-002          10      121467           0
</event>
<event>
      5   9999  3.19816E-02  9.41234E+01 -1.00000E+00  1.25023E-01
       1    -1     0     0   502     0  0.000000000E+00  0.000000000E+00  5.439123537E+02  5.439123537E+02  0.000000000E+00  0.00000E+00  9.000E+00
      21    -1     0     0   501   502  0.000000000E+00  0.000000000E+00 -2.819956270E+02  2.819956270E+02  0.000000000E+00  0.00000E+00  9.000E+00
      25     1     1     2     0     0  6.281957656E+01 -1.109434658E+02  2.746605212E+02  3.275944958E+02  1.250000000E+02  0.00000E+00  9.000E+00
      25     1     1     2     0     0 -1.438854180E+01  1.916506966E+02 -1.899050409E+02  2.977010987E+02  1.250000000E+02  0.00000E+00  9.000E+00
       1     1     1     2   501     0 -4.843103476E+01 -8.070723082E+01  1.771612464E+02  2.006123861E+02  3.814697266E-06  0.00000E+00  9.000E+00
#rwgt            1           1   2.9852398691882470E-002          10      121514           0
</event>
<event>
      5   9999  3.19816E-02  4.37621E+02 -1.00000E+00  1.00524E-01
       2    -1     0     0   502     0  0.000000000E+00  0.000000000E+00  1.570708160E+03  1.570708160E+03  0.000000000E+00  0.00000E+00  9.000E+00
      21    -1     0     0   501   502  0.000000000E+00  0.000000000E+00 -2.678314099E+02  2.678314099E+02  0.000000000E+00  0.00000E+00  9.000E+00
      25     1     1     2     0     0 -5.471088877E+02  5.182276625E+01  5.164855415E+02  7.644580098E+02  1.250000000E+02  0.00000E+00  9.000E+00
      25     1     1     2     0     0  1.096980444E+02 -3.827116905E+01 -3.915920305E+00  1.707005500E+02  1.250000000E+02  0.00000E+00  9.000E+00
       2     1     1     2   501     0  4.374108433E+02 -1.355159720E+01  7.903071289E+02  9.033810102E+02  1.525878906E-05  0.00000E+00  9.000E+00
#rwgt            2          18   1.2737180774873868E-003          10      121583           0
</event>
<event>
      5   9999  3.19816E-02  7.58984E+01 -1.00000E+00  1.29466E-01
      21    -1     0     0   502   501  0.000000000E+00  0.000000000E+00  4.329494630E+02  4.329494630E+02  0.000000000E+00  0.00000E+00  9.000E+00
      21    -1     0     0   501   511  0.000000000E+00  0.000000000E+00 -8.639687072E+02  8.639687072E+02  0.000000000E+00  0.00000E+00  9.000E+00
      25     1     1     2     0     0 -2.308282488E+02  1.244304683E+02  3.373107638E+02  4.451608398E+02  1.250000000E+02  0.00000E+00  9.000E+00
      25     1     1     2     0     0  2.114300943E+02 -5.105279411E+01 -3.750251230E+02  4.511960943E+02  1.250000000E+02  0.00000E+00  9.000E+00
      21     1     1     2   502   511  1.939815456E+01 -7.337767423E+01 -3.933048849E+02  4.005612362E+02  5.394796609E-06  0.00000E+00  9.000E+00
#rwgt            1           1   2.7050321659048790E-002          10      121602           0
</event>
<event>
      5   9999  3.19816E-02  1.64600E+01 -1.00000E+00  1.73666E-01
      21    -1     0     0   502   512  0.000000000E+00  0.000000000E+00  1.274808693E+02  1.274808693E+02  0.000000000E+00  0.00000E+00  9.000E+00
      21    -1     0     0   501   502  0.000000000E+00  0.000000000E+00 -3.146879593E+02  3.146879593E+02  0.000000000E+00  0.00000E+00  9.000E+00
      25     1     1     2     0     0 -1.535715920E+01  6.188253860E+01 -5.172693626E+01  1.495525555E+02  1.250000000E+02  0.00000E+00  9.000E+00
      25     1     1     2     0     0  2.581164961E+01 -7.459615408E+01 -1.870871064E+02  2.384479248E+02  1.250000000E+02  0.00000E+00  9.000E+00
      21     1     1     2   501   512 -1.045449041E+01  1.271361549E+01  5.160695270E+01  5.416834828E+01  6.743495762E-07  0.00000E+00  9.000E+00
#rwgt            1           1   5.7911370657903277E-002          10      121700           0
</event>
<event>
      5   9999  3.19816E-02  9.43913E+01 -1.00000E+00  1.24966E-01
      21    -1     0     0   511   501  0.000000000E+00  0.000000000E+00  8.280898596E+02  8.280898596E+02  0.000000000E+00  0.00000E+00  9.000E+00
      21    -1     0     0   501   502  0.000000000E+00  0.000000000E+00 -2.351219176E+02  2.351219176E+02  0.000000000E+00  0.00000E+00  9.000E+00
      25     1     1     2     0     0 -9.659241544E+01  8.993279280E+01  5.526521250E+02  5.817794885E+02  1.250000000E+02  0.00000E+00  9.000E+00
      25     1     1     2     0     0  9.173347212E+01 -1.841989522E+02 -1.395618914E+02  2.782926615E+02  1.250000000E+02  0.00000E+00  9.000E+00
      21     1     1     2   511   502  4.858943317E+00  9.426615938E+01  1.798777084E+02  2.031396272E+02  0.000000000E+00  0.00000E+00  9.000E+00
#rwgt            1           1   2.8181329470178561E-002          10      121871           0
</event>
<event>
      5   9999  3.19816E-02  2.24670E+01 -1.00000E+00  1.62306E-01
      21    -1     0     0   502   501  0.000000000E+00  0.000000000E+00  1.962521738E+02  1.962521738E+02  0.000000000E+00  0.00000E+00  9.000E+00
      21    -1     0     0   512   502  0.000000000E+00  0.000000000E+00 -4.207613687E+02  4.207613687E+02  0.000000000E+00  0.00000E+00  9.000E+00
      25     1     1     2     0     0  8.496528857E+01  2.082118897E+02 -3.637945818E+01  2.598456393E+02  1.250000000E+02  0.00000E+00  9.000E+00
      25     1     1     2     0     0 -1.050154767E+02 -2.183487110E+02 -1.456210519E+02  3.090872056E+02  1.250000000E+02  0.00000E+00  9.000E+00
      21     1     1     2   512   501  2.005018810E+01  1.013682123E+01 -4.250868488E+01  4.808069756E+01  6.743495762E-07  0.00000E+00  9.000E+00
#rwgt            1           1   2.9522479169979007E-002          10      121963           0
</event>
<event>
      5   9999  3.19816E-02  1.83504E+02 -1.00000E+00  1.13026E-01
      21    -1     0     0   511   501  0.000000000E+00  0.000000000E+00  4.892482701E+02  4.892482701E+02  0.000000000E+00  0.00000E+00  9.000E+00
      21    -1     0     0   501   502  0.000000000E+00  0.000000000E+00 -5.627100852E+02  5.627100852E+02  0.000000000E+00  0.00000E+00  9.000E+00
      25     1     1     2     0     0  2.981562083E+02  4.639569901E+01 -1.855681506E+02  3.756464081E+02  1.250000000E+02  0.00000E+00  9.000E+00
      25     1     1     2     0     0 -4.052412530E+02 -1.954138038E+02  1.159160643E+01  4.670828547E+02  1.250000000E+02  0.00000E+00  9.000E+00
      21     1     1     2   511   502  1.070850447E+02  1.490181048E+02  1.005147291E+02  2.092290924E+02  4.046097457E-06  0.00000E+00  9.000E+00
#rwgt            2          11   3.8760660209216907E-003          10      122174           0
</event>
<event>
      5   9999  3.19816E-02  2.91764E+02 -1.00000E+00  1.05986E-01
      21    -1     0     0   502   501  0.000000000E+00  0.000000000E+00  4.485955048E+02  4.485955048E+02  0.000000000E+00  0.00000E+00  9.000E+00
      21    -1     0     0   501   512  0.000000000E+00  0.000000000E+00 -4.936571129E+02  4.936571129E+02  0.000000000E+00  0.00000E+00  9.000E+00
      25     1     1     2     0     0  2.732989172E+02  1.949330505E+02  1.531402244E+02  3.895742813E+02  1.250000000E+02  0.00000E+00  9.000E+00
      25     1     1     2     0     0  1.829390752E+01 -1.849379413E+02 -7.876952257E+01  2.374159785E+02  1.250000000E+02  0.00000E+00  9.000E+00
      21     1     1     2   502   512 -2.915928247E+02 -9.995109171E+00 -1.194323099E+02  3.152623579E+02  5.722045898E-06  0.00000E+00  9.000E+00
#rwgt            1           1   2.4700689890331112E-002          10      122209           0
</event>
<event>
      5   9999  3.19816E-02  6.79166E+01 -1.00000E+00  1.31889E-01
      21    -1     0     0   502   501  0.000000000E+00  0.000000000E+00  2.427482323E+02  2.427482323E+02  0.000000000E+00  0.00000E+00  9.000E+00
       2    -1     0     0   501     0  0.000000000E+00  0.000000000E+00 -1.363048402E+03  1.363048402E+03  0.000000000E+00  0.00000E+00  9.000E+00
      25     1     1     2     0     0  2.072707175E+02  1.845727274E+02 -2.676220095E+01  3.055641626E+02  1.250000000E+02  0.00000E+00  9.000E+00
      25     1     1     2     0     0 -2.479268755E+02 -2.389761732E+02 -2.268481217E+02  4.308856197E+02  1.250000000E+02  0.00000E+00  9.000E+00
       2     1     1     2   502     0  4.065615799E+01  5.440344580E+01 -8.666898468E+02  8.693468518E+02  1.078959322E-05  0.00000E+00  9.000E+00
#rwgt            1           1   2.8970860669027699E-002          10      122259           0
</event>
<event>
      5   9999  3.19816E-02  3.03026E+01 -1.00000E+00  1.52738E-01
      21    -1     0     0   511   501  0.000000000E+00  0.000000000E+00  8.486564704E+02  8.486564704E+02  0.000000000E+00  0.00000E+00  9.000E+00
      21    -1     0     0   501   502  0.000000000E+00  0.000000000E+00 -2.285483985E+02  2.285483985E+02  0.000000000E+00  0.00000E+00  9.000E+00
      25     1     1     2     0     0  1.731192525E+02 -1.663897958E+00 -1.497090808E+02  2.607889051E+02  1.250000000E+02  0.00000E+00  9.000E+00
      25     1     1     2     0     0 -2.022426209E+02  1.003519952E+01  6.322290627E+02  6.755304365E+02  1.250000000E+02  0.00000E+00  9.000E+00
      21     1     1     2   511   502  2.912336840E+01 -8.371301564E+00  1.375880900E+02  1.408855272E+02  2.697398305E-06  0.00000E+00  9.000E+00
#rwgt            1           1   2.8366341395043990E-002          10      122355           0
</event>
<event>
      5   9999  3.19816E-02  1.33985E+02 -1.00000E+00  1.18371E-01
      21    -1     0     0   512   501  0.000000000E+00  0.000000000E+00  1.442872015E+03  1.442872015E+03  0.000000000E+00  0.00000E+00  9.000E+00
      21    -1     0     0   501   502  0.000000000E+00  0.000000000E+00 -3.803592371E+02  3.803592371E+02  0.000000000E+00  0.00000E+00  9.000E+00
      25     1     1     2     0     0  4.682258386E+02  3.775259843E+02  4.315952145E+02  7.507734238E+02  1.250000000E+02  0.00000E+00  9.000E+00
      25     1     1     2     0     0 -4.709243031E+02 -5.114842406E+02  4.177709955E+02  8.206969186E+02  1.250000000E+02  0.00000E+00  9.000E+00
      21     1     1     2   512   502  2.698464473E+00  1.339582563E+02  2.131465675E+02  2.517609092E+02  2.697398305E-06  0.00000E+00  9.000E+00
#rwgt            1           1   3.7191160659434008E-002          10      122495           0
</event>
<event>
      5   9999  3.19816E-02  1.52064E+02 -1.00000E+00  1.16159E-01
      21    -1     0     0   502   501  0.000000000E+00  0.000000000E+00  8.182211897E+02  8.182211897E+02  0.000000000E+00  0.00000E+00  9.000E+00
       1    -1     0     0   501     0  0.000000000E+00  0.000000000E+00 -3.249809214E+02  3.249809214E+02  0.000000000E+00  0.00000E+00  9.000E+00
      25     1     1     2     0     0 -2.613927536E+01 -2.431831086E+01  7.536922460E+01  1.502669690E+02  1.250000000E+02  0.00000E+00  9.000E+00
      25     1     1     2     0     0 -9.747246893E+01 -6.424637812E+01  6.738380920E+02  6.952059073E+02  1.250000000E+02  0.00000E+00  9.000E+00
       1     1     1     2   502     0  1.236117443E+02  8.856468899E+01 -2.559670483E+02  2.977292348E+02  0.000000000E+00  0.00000E+00  9.000E+00
#rwgt            2          12   1.1994996583128835E-003          10      122779           0
</event>
<event>
      5   9999  3.19816E-02  8.18817E+01 -1.00000E+00  1.27863E-01
       3    -1     0     0   502     0  0.000000000E+00  0.000000000E+00  2.936073234E+02  2.936073234E+02  0.000000000E+00  0.00000E+00  9.000E+00
      21    -1     0     0   501   502  0.000000000E+00  0.000000000E+00 -1.495654134E+03  1.495654134E+03  0.000000000E+00  0.00000E+00  9.000E+00
      25     1     1     2     0     0 -8.957728880E+01  1.057741387E+02 -1.397160817E+03  1.409572846E+03  1.250000000E+02  0.00000E+00  9.000E+00
      25     1     1     2     0     0  1.212583670E+02 -3.026969526E+01  9.733477931E+00  1.770299032E+02  1.250000000E+02  0.00000E+00  9.000E+00
       3     1     1     2   501     0 -3.168107823E+01 -7.550444347E+01  1.853805285E+02  2.026587083E+02  3.814697266E-06  0.00000E+00  9.000E+00
#rwgt            1           1   2.5942388742009475E-002          10      122798           0
</event>
<event>
      5   9999  3.19816E-02  5.75722E+01 -1.00000E+00  1.35669E-01
      21    -1     0     0   502   511  0.000000000E+00  0.000000000E+00  1.615896252E+02  1.615896252E+02  0.000000000E+00  0.00000E+00  9.000E+00
      21    -1     0     0   501   502  0.000000000E+00  0.000000000E+00 -2.391708987E+02  2.391708987E+02  0.000000000E+00  0.00000E+00  9.000E+00
      25     1     1     2     0     0  6.082584304E+01 -5.466975521E+01 -9.311470409E+01  1.760224799E+02  1.250000000E+02  0.00000E+00  9.000E+00
      25     1     1     2     0     0 -1.074067249E+02  2.083510806E+01  4.890398088E+00  1.661903195E+02  1.250000000E+02  0.00000E+00  9.000E+00
      21     1     1     2   501   511  4.658088191E+01  3.383464715E+01  1.064303248E+01  5.854772452E+01  1.521962325E-06  0.00000E+00  9.000E+00
#rwgt            1           1   2.5100461853761372E-002          10      122885           0
</event>
<event>
      5   9999  3.19816E-02  3.22999E+01 -1.00000E+00  1.50845E-01
      21    -1     0     0   502   512  0.000000000E+00  0.000000000E+00  3.751002885E+02  3.751002885E+02  0.000000000E+00  0.00000E+00  9.000E+00
      21    -1     0     0   501   502  0.000000000E+00  0.000000000E+00 -6.010741477E+02  6.010741477E+02  0.000000000E+00  0.00000E+00  9.000E+00
      25     1     1     2     0     0 -2.313357120E+02 -1.044966576E+02 -2.339958786E+02  3.671713964E+02  1.250000000E+02  0.00000E+00  9.000E+00
      25     1     1     2     0     0  2.578308153E+02  8.602258800E+01 -2.246343697E+02  3.741152430E+02  1.250000000E+02  0.00000E+00  9.000E+00
      21     1     1     2   501   512 -2.649510327E+01  1.847406960E+01  2.326563891E+02  2.348877969E+02  3.814697266E-06  0.00000E+00  9.000E+00
#rwgt            1           1   2.6277541511650935E-002          10      122951           0
</event>
<event>
      5   9999  3.19816E-02  2.39965E+01 -1.00000E+00  1.60095E-01
      21    -1     0     0   502   501  0.000000000E+00  0.000000000E+00  7.290245160E+02  7.290245160E+02  0.000000000E+00  0.00000E+00  9.000E+00
      21    -1     0     0   511   502  0.000000000E+00  0.000000000E+00 -6.269193502E+01  6.269193502E+01  0.000000000E+00  0.00000E+00  9.000E+00
      25     1     1     2     0     0  3.351726199E+01  1.156181390E+02  1.403435174E+02  2.231866120E+02  1.250000000E+02  0.00000E+00  9.000E+00
      25     1     1     2     0     0 -5.627158246E+01 -1.079975203E+02  5.116099659E+02  5.405550043E+02  1.250000000E+02  0.00000E+00  9.000E+00
      21     1     1     2   511   501  2.275432048E+01 -7.620618612E+00  1.437909758E+01  2.797483468E+01  4.460403188E-07  0.00000E+00  9.000E+00
#rwgt            1           1   3.5033547898217596E-002          10      123048           0
</event>
<event>
      5   9999  3.19816E-02  1.60339E+02 -1.00000E+00  1.15258E-01
      21    -1     0     0   512   501  0.000000000E+00  0.000000000E+00  9.145307495E+01  9.145307495E+01  0.000000000E+00  0.00000E+00  9.000E+00
      21    -1     0     0   501   502  0.000000000E+00  0.000000000E+00 -8.661128005E+02  8.661128005E+02  0.000000000E+00  0.00000E+00  9.000E+00
      25     1     1     2     0     0 -1.102160384E+02 -5.711143212E+01 -2.316987589E+02  2.910646074E+02  1.250000000E+02  0.00000E+00  9.000E+00
      25     1     1     2     0     0  1.511102767E+02 -9.792451360E+01 -3.744987857E+02  4.339330209E+02  1.250000000E+02  0.00000E+00  9.000E+00
      21     1     1     2   512   502 -4.089423839E+01  1.550359457E+02 -1.684621809E+02  2.325682472E+02  2.697398305E-06  0.00000E+00  9.000E+00
#rwgt            1           1   2.9489563649601862E-002          10      123198           0
</event>
<event>
      5   9999  3.19816E-02  7.24561E+01 -1.00000E+00  1.30467E-01
      21    -1     0     0   511   501  0.000000000E+00  0.000000000E+00  8.133794847E+02  8.133794847E+02  0.000000000E+00  0.00000E+00  9.000E+00
      21    -1     0     0   501   502  0.000000000E+00  0.000000000E+00 -2.469326909E+02  2.469326909E+02  0.000000000E+00  0.00000E+00  9.000E+00
      25     1     1     2     0     0  2.322425047E+02 -2.330527218E+02  3.580813549E+02  5.020930281E+02  1.250000000E+02  0.00000E+00  9.000E+00
      25     1     1     2     0     0 -2.546688578E+02  1.641546945E+02 -1.023679240E+01  3.279219157E+02  1.250000000E+02  0.00000E+00  9.000E+00
      21     1     1     2   511   502  2.242635312E+01  6.889802724E+01  2.186022313E+02  2.302972318E+02  3.814697266E-06  0.00000E+00  9.000E+00
#rwgt            1           1   3.0684570150339086E-002          10      123260           0
</event>
<event>
      5   9999  3.19816E-02  3.28715E+01 -1.00000E+00  1.50333E-01
      21    -1     0     0   512   501  0.000000000E+00  0.000000000E+00  2.700115459E+02  2.700115459E+02  0.000000000E+00  0.00000E+00  9.000E+00
      21    -1     0     0   501   502  0.000000000E+00  0.000000000E+00 -7.707759384E+02  7.707759384E+02  0.000000000E+00  0.00000E+00  9.000E+00
      25     1     1     2     0     0  2.118613637E+02 -1.108413231E+02 -5.948429715E+02  6.531724099E+02  1.250000000E+02  0.00000E+00  9.000E+00
      25     1     1     2     0     0 -1.789965412E+02  1.101793070E+02 -4.155543250E+01  2.480546219E+02  1.250000000E+02  0.00000E+00  9.000E+00
      21     1     1     2   512   502 -3.286482245E+01  6.620161356E-01  1.356340116E+02  1.395604525E+02  2.697398305E-06  0.00000E+00  9.000E+00
#rwgt            1           1   3.1065698518745615E-002          10      123348           0
</event>
<event>
      5   9999  3.19816E-02  3.64440E+01 -1.00000E+00  1.47393E-01
      21    -1     0     0   502   501  0.000000000E+00  0.000000000E+00  8.482959557E+02  8.482959557E+02  0.000000000E+00  0.00000E+00  9.000E+00
      21    -1     0     0   511   502  0.000000000E+00  0.000000000E+00 -7.032000957E+02  7.032000957E+02  0.000000000E+00  0.00000E+00  9.000E+00
      25     1     1     2     0     0 -2.191692197E+02  5.229677486E+02  4.593583656E+02  7.403820102E+02  1.250000000E+02  0.00000E+00  9.000E+00
      25     1     1     2     0     0  2.487685676E+02 -5.017064446E+02 -8.626907545E+01  5.802262578E+02  1.250000000E+02  0.00000E+00  9.000E+00
      21     1     1     2   511   501 -2.959934784E+01 -2.126130395E+01 -2.279934301E+02  2.308877836E+02  2.697398305E-06  0.00000E+00  9.000E+00
#rwgt            1           1   3.0749895636465532E-002          10      123440           0
</event>
<event>
      5   9999  3.19816E-02  1.40174E+02 -1.00000E+00  1.17572E-01
      21    -1     0     0   502   501  0.000000000E+00  0.000000000E+00  1.600304974E+03  1.600304974E+03  0.000000000E+00  0.00000E+00  9.000E+00
      -1    -1     0     0     0   502  0.000000000E+00  0.000000000E+00 -1.577895448E+03  1.577895448E+03  0.000000000E+00  0.00000E+00  9.000E+00
      25     1     1     2     0     0  2.259118418E+01 -2.722338812E+02  1.181696438E+03  1.219283855E+03  1.250000000E+02  0.00000E+00  9.000E+00
      25     1     1     2     0     0 -1.341583995E+02  1.873718772E+02  3.532456991E+02  4.399025124E+02  1.250000000E+02  0.00000E+00  9.000E+00
      -1     1     1     2     0   501  1.115672153E+02  8.486200404E+01 -1.512532610E+03  1.519014055E+03  2.157918644E-05  0.00000E+00  9.000E+00
#rwgt            1           1   2.6864936515806979E-002          10      123641           0
</event>
<event>
      5   9999  3.19816E-02  2.42390E+01 -1.00000E+00  1.59763E-01
      21    -1     0     0   511   501  0.000000000E+00  0.000000000E+00  2.185361826E+02  2.185361826E+02  0.000000000E+00  0.00000E+00  9.000E+00
      21    -1     0     0   501   502  0.000000000E+00  0.000000000E+00 -2.736158591E+02  2.736158591E+02  0.000000000E+00  0.00000E+00  9.000E+00
      25     1     1     2     0     0  6.988353655E+01  1.171020023E+02  1.112266706E+02  2.158540245E+02  1.250000000E+02  0.00000E+00  9.000E+00
      25     1     1     2     0     0 -8.431565897E+01 -9.762788379E+01 -1.747747525E+02  2.506223217E+02  1.250000000E+02  0.00000E+00  9.000E+00
      21     1     1     2   511   502  1.443212241E+01 -1.947411853E+01  8.468405393E+00  2.567569550E+01  2.920019320E-07  0.00000E+00  9.000E+00
#rwgt            1           1   3.0939673097212791E-002          10      123728           0
</event>
<event>
      5   9999  3.19816E-02  1.18489E+01 -1.00000E+00  1.87609E-01
      21    -1     0     0   502   501  0.000000000E+00  0.000000000E+00  1.862052679E+02  1.862052679E+02  0.000000000E+00  0.00000E+00  9.000E+00
      21    -1     0     0   512   502  0.000000000E+00  0.000000000E+00 -1.704782803E+02  1.704782803E+02  0.000000000E+00  0.00000E+00  9.000E+00
      25     1     1     2     0     0 -1.195348413E+02 -3.806990117E+00  3.114863630E+01  1.757791484E+02  1.250000000E+02  0.00000E+00  9.000E+00
      25     1     1     2     0     0  1.110051312E+02 -4.417326416E+00 -9.112261493E+00  1.674804025E+02  1.250000000E+02  0.00000E+00  9.000E+00
      21     1     1     2   512   501  8.529710131E+00  8.224316533E+00 -6.309387271E+00  1.342399736E+01  2.064765462E-07  0.00000E+00  9.000E+00
#rwgt            1           1   2.5952562050871486E-002          10      123863           0
</event>
<event>
      5   9999  3.19816E-02  2.28873E+01 -1.00000E+00  1.61678E-01
      21    -1     0     0   502   501  0.000000000E+00  0.000000000E+00  1.239014183E+02  1.239014183E+02  0.000000000E+00  0.00000E+00  9.000E+00
      21    -1     0     0   501   511  0.000000000E+00  0.000000000E+00 -6.268937493E+02  6.268937493E+02  0.000000000E+00  0.00000E+00  9.000E+00
      25     1     1     2     0     0 -1.288672902E+02 -1.407234178E+02 -3.997045931E+02  4.602158413E+02  1.250000000E+02  0.00000E+00  9.000E+00
      25     1     1     2     0     0  1.201129714E+02  1.618702662E+02 -6.492027454E+01  2.459039467E+02  1.250000000E+02  0.00000E+00  9.000E+00
      21     1     1     2   502   511  8.754318869E+00 -2.114684836E+01 -3.836746337E+01  4.467537958E+01  0.000000000E+00  0.00000E+00  9.000E+00
#rwgt            1           1   2.7277668122686775E-002          10      124086           0
</event>
<event>
      5   9999  3.19816E-02  1.87044E+02 -1.00000E+00  1.12717E-01
      21    -1     0     0   502   512  0.000000000E+00  0.000000000E+00  9.561226840E+02  9.561226840E+02  0.000000000E+00  0.00000E+00  9.000E+00
      21    -1     0     0   501   502  0.000000000E+00  0.000000000E+00 -2.413835095E+02  2.413835095E+02  0.000000000E+00  0.00000E+00  9.000E+00
      25     1     1     2     0     0  2.219922238E+02  9.084979750E+01  2.621430524E+02  3.766672445E+02  1.250000000E+02  0.00000E+00  9.000E+00
      25     1     1     2     0     0 -2.914120915E+02 -2.645347308E+02  1.049582055E+02  4.260761150E+02  1.250000000E+02  0.00000E+00  9.000E+00
      21     1     1     2   501   512  6.941986772E+01  1.736849333E+02  3.476379166E+02  3.947628340E+02  3.814697266E-06  0.00000E+00  9.000E+00
#rwgt            1           1   2.4726065816123972E-002          10      124223           0
</event>
<event>
      5   9999  3.19816E-02  4.31545E+01 -1.00000E+00  1.42825E-01
      21    -1     0     0   502   501  0.000000000E+00  0.000000000E+00  1.342249232E+02  1.342249232E+02  0.000000000E+00  0.00000E+00  9.000E+00
       2    -1     0     0   501     0  0.000000000E+00  0.000000000E+00 -1.351296470E+03  1.351296470E+03  0.000000000E+00  0.00000E+00  9.000E+00
      25     1     1     2     0     0 -8.775118866E+01  7.469937824E+01  6.626606768E+01  1.824731760E+02  1.250000000E+02  0.00000E+00  9.000E+00
      25     1     1     2     0     0  6.927748235E+01 -1.136997650E+02 -1.041763453E+03  1.057649799E+03  1.250000000E+02  0.00000E+00  9.000E+00
       2     1     1     2   502     0  1.847370631E+01  3.900038672E+01 -2.415741616E+02  2.453984180E+02  0.000000000E+00  0.00000E+00  9.000E+00
#rwgt            1           1   2.7516786565542968E-002          10      124291           0
</event>
<event>
      5   9999  3.19816E-02  1.16546E+02 -1.00000E+00  1.20909E-01
      21    -1     0     0   502   511  0.000000000E+00  0.000000000E+00  5.293584089E+02  5.293584089E+02  0.000000000E+00  0.00000E+00  9.000E+00
      21    -1     0     0   501   502  0.000000000E+00  0.000000000E+00 -1.426266557E+03  1.426266557E+03  0.000000000E+00  0.00000E+00  9.000E+00
      25     1     1     2     0     0 -4.793387256E+02  1.926577581E+02 -9.703290653E+02  1.106366178E+03  1.250000000E+02  0.00000E+00  9.000E+00
      25     1     1     2     0     0  5.865838344E+02 -1.470358175E+02 -1.145880528E+02  6.280569626E+02  1.250000000E+02  0.00000E+00  9.000E+00
      21     1     1     2   501   511 -1.072451088E+02 -4.562194054E+01  1.880089696E+02  2.212018252E+02  4.672030912E-06  0.00000E+00  9.000E+00
#rwgt            1           1   2.9052413397003415E-002          10      124482           0
</event>
<event>
      5   9999  3.19816E-02  2.29663E+01 -1.00000E+00  1.61561E-01
      21    -1     0     0   502   512  0.000000000E+00  0.000000000E+00  2.524415285E+02  2.524415285E+02  0.000000000E+00  0.00000E+00  9.000E+00
      21    -1     0     0   501   502  0.000000000E+00  0.000000000E+00 -1.525287508E+03  1.525287508E+03  0.000000000E+00  0.00000E+00  9.000E+00
      25     1     1     2     0     0 -6.566299136E+01  3.802204343E+02  2.287603298E+01  4.062357936E+02  1.250000000E+02  0.00000E+00  9.000E+00
      25     1     1     2     0     0  4.270533894E+01 -3.808500024E+02 -1.283835332E+03  1.345633171E+03  1.250000000E+02  0.00000E+00  9.000E+00
      21     1     1     2   501   512  2.295765242E+01  6.295681552E-01 -1.188668045E+01  2.586007217E+01  2.920019320E-07  0.00000E+00  9.000E+00
#rwgt            1           1   2.9053430626351507E-002          10      124570           0
</event>
<event>
      5   9999  3.19816E-02  1.02683E+02 -1.00000E+00  1.23313E-01
      21    -1     0     0   502   501  0.000000000E+00  0.000000000E+00  4.067424422E+02  4.067424422E+02  0.000000000E+00  0.00000E+00  9.000E+00
      21    -1     0     0   511   502  0.000000000E+00  0.000000000E+00 -1.226030347E+03  1.226030347E+03  0.000000000E+00  0.00000E+00  9.000E+00
      25     1     1     2     0     0  1.872064222E+00 -1.003133185E+01  3.254041557E+02  3.487362854E+02  1.250000000E+02  0.00000E+00  9.000E+00
      25     1     1     2     0     0 -2.058287658E+01  1.109947661E+02 -3.809274015E+01  1.726833801E+02  1.250000000E+02  0.00000E+00  9.000E+00
      21     1     1     2   511   501  1.871081236E+01 -1.009634343E+02 -1.106599320E+03  1.111353123E+03  1.525878906E-05  0.00000E+00  9.000E+00
#rwgt            1           1   2.4129419595782148E-002          10      124827           0
</event>
<event>
      5   9999  3.19816E-02  8.33055E+01 -1.00000E+00  1.27504E-01
      21    -1     0     0   502   501  0.000000000E+00  0.000000000E+00  1.645737943E+02  1.645737943E+02  0.000000000E+00  0.00000E+00  9.000E+00
      21    -1     0     0   512   502  0.000000000E+00  0.000000000E+00 -1.238289962E+03  1.238289962E+03  0.000000000E+00  0.00000E+00  9.000E+00
      25     1     1     2     0     0  1.226153173E+02  2.901862031E+01  8.711872226E+01  1.977151186E+02  1.250000000E+02  0.00000E+00  9.000E+00
      25     1     1     2     0     0 -2.001354413E+02  1.484469163E+00 -7.617271892E+02  7.974394706E+02  1.250000000E+02  0.00000E+00  9.000E+00
      21     1     1     2   512   501  7.752012402E+01 -3.050308947E+01 -3.991077006E+02  4.077091669E+02  5.394796609E-06  0.00000E+00  9.000E+00
#rwgt            1           1   2.7383201067756841E-002          10      124885           0
</event>
<event>
      5   9999  3.19816E-02  4.62864E+02 -1.00000E+00  9.98136E-02
      21    -1     0     0   502   501  0.000000000E+00  0.000000000E+00  1.259407079E+03  1.259407079E+03  0.000000000E+00  0.00000E+00  9.000E+00
      21    -1     0     0   511   502  0.000000000E+00  0.000000000E+00 -1.403746578E+03  1.403746578E+03  0.000000000E+00  0.00000E+00  9.000E+00
      25     1     1     2     0     0  1.997472950E+02  1.195308428E+03  1.354708015E+02  1.225821585E+03  1.250000000E+02  0.00000E+00  9.000E+00
      25     1     1     2     0     0 -2.550934466E+02 -7.357653507E+02  1.532686481E+02  8.034547880E+02  1.250000000E+02  0.00000E+00  9.000E+00
      21     1     1     2   511   501  5.534615159E+01 -4.595430769E+02 -4.330789488E+02  6.338772846E+02  1.078959322E-05  0.00000E+00  9.000E+00
#rwgt            2          11   2.7447775310851931E-003          10      125027           0
</event>
<event>
      5   9999  3.19816E-02  6.42986E+00 -1.00000E+00  2.20904E-01
      21    -1     0     0   502   501  0.000000000E+00  0.000000000E+00  4.528595738E+02  4.528595738E+02  0.000000000E+00  0.00000E+00  9.000E+00
      21    -1     0     0   501   512  0.000000000E+00  0.000000000E+00 -4.565040589E+02  4.565040589E+02  0.000000000E+00  0.00000E+00  9.000E+00
      25     1     1     2     0     0  4.038529516E+02  1.126557835E+02  9.733618346E+01  4.482051591E+02  1.250000000E+02  0.00000E+00  9.000E+00
      25     1     1     2     0     0 -4.093854412E+02 -1.159321615E+02 -1.004988001E+02  4.547105831E+02  1.250000000E+02  0.00000E+00  9.000E+00
      21     1     1     2   502   512  5.532489627E+00  3.276377974E+00 -4.818685030E-01  6.447890458E+00  4.828528090E-08  0.00000E+00  9.000E+00
#rwgt            1           1   2.5320808527419088E-002          10      125077           0
</event>
<event>
      5   9999  3.19816E-02  6.89006E+01 -1.00000E+00  1.31570E-01
      21    -1     0     0   502   501  0.000000000E+00  0.000000000E+00  9.768933871E+02  9.768933871E+02  0.000000000E+00  0.00000E+00  9.000E+00
      21    -1     0     0   511   502  0.000000000E+00  0.000000000E+00 -5.151654961E+02  5.151654961E+02  0.000000000E+00  0.00000E+00  9.000E+00
      25     1     1     2     0     0  4.104961584E+02  3.712373226E+02  4.839386228E+02  7.457518598E+02  1.250000000E+02  0.00000E+00  9.000E+00
      25     1     1     2     0     0 -3.979692505E+02 -4.389895883E+02  9.240010679E+01  6.125799235E+02  1.250000000E+02  0.00000E+00  9.000E+00
      21     1     1     2   511   501 -1.252690794E+01  6.775226562E+01 -1.146108386E+02  1.337270999E+02  1.907348633E-06  0.00000E+00  9.000E+00
#rwgt            1           1   2.9484807360143382E-002          10      125359           0
</event>
<event>
      5   9999  3.19816E-02  5.18234E+01 -1.00000E+00  1.38194E-01
      21    -1     0     0   502   501  0.000000000E+00  0.000000000E+00  1.657033659E+03  1.657033659E+03  0.000000000E+00  0.00000E+00  9.000E+00
      21    -1     0     0   512   502  0.000000000E+00  0.000000000E+00 -3.886188419E+02  3.886188419E+02  0.000000000E+00  0.00000E+00  9.000E+00
      25     1     1     2     0     0  2.248495869E+01 -5.653424154E+02  1.158567263E+03  1.295384392E+03  1.250000000E+02  0.00000E+00  9.000E+00
      25     1     1     2     0     0  2.572844829E+01  5.843459977E+02  2.129308967E+02  6.348911441E+02  1.250000000E+02  0.00000E+00  9.000E+00
      21     1     1     2   512   501 -4.821340697E+01 -1.900358228E+01 -1.030833420E+02  1.153769654E+02  1.907348633E-06  0.00000E+00  9.000E+00
#rwgt            1           1   3.0941109084428695E-002          10      125571           0
</event>
<event>
      5   9999  3.19816E-02  7.51712E+00 -1.00000E+00  2.11270E-01
      21    -1     0     0   502   501  0.000000000E+00  0.000000000E+00  6.454749724E+02  6.454749724E+02  0.000000000E+00  0.00000E+00  9.000E+00
      21    -1     0     0   501   511  0.000000000E+00  0.000000000E+00 -7.597659529E+02  7.597659529E+02  0.000000000E+00  0.00000E+00  9.000E+00
      25     1     1     2     0     0 -3.351233962E+02 -4.470948938E+02 -1.976492173E+02  6.057158970E+02  1.250000000E+02  0.00000E+00  9.000E+00
      25     1     1     2     0     0  3.323233987E+02  4.540710746E+02  2.531643035E+02  6.295526560E+02  1.250000000E+02  0.00000E+00  9.000E+00
      21     1     1     2   502   511  2.799997476E+00 -6.976180769E+00 -1.698060667E+02  1.699723724E+02  1.907348633E-06  0.00000E+00  9.000E+00
#rwgt            1           1   2.7795816734528130E-002          10      125757           0
</event>
<event>
      5   9999  3.19816E-02  1.35662E+02 -1.00000E+00  1.18150E-01
       2    -1     0     0   502     0  0.000000000E+00  0.000000000E+00  1.157909195E+03  1.157909195E+03  0.000000000E+00  0.00000E+00  9.000E+00
      21    -1     0     0   501   502  0.000000000E+00  0.000000000E+00 -2.199751447E+02  2.199751447E+02  0.000000000E+00  0.00000E+00  9.000E+00
      25     1     1     2     0     0 -2.900121861E+02  1.371572051E+02  1.770497079E+02  3.871572885E+02  1.250000000E+02  0.00000E+00  9.000E+00
      25     1     1     2     0     0  3.094688939E+02 -2.897693625E+00  1.517173073E+02  3.666367880E+02  1.250000000E+02  0.00000E+00  9.000E+00
       2     1     1     2   501     0 -1.945670788E+01 -1.342595115E+02  6.091670352E+02  6.240902633E+02  1.078959322E-05  0.00000E+00  9.000E+00
#rwgt            2          18   7.6872370244944227E-004          10      126292           0
</event>
<event>
      5   9999  3.19816E-02  4.16422E+02 -1.00000E+00  1.01162E-01
      21    -1     0     0   502   501  0.000000000E+00  0.000000000E+00  1.428430205E+03  1.428430205E+03  0.000000000E+00  0.00000E+00  9.000E+00
       3    -1     0     0   501     0  0.000000000E+00  0.000000000E+00 -2.673240939E+02  2.673240939E+02  0.000000000E+00  0.00000E+00  9.000E+00
      25     1     1     2     0     0 -7.129962339E+01  2.509358775E+02  6.816083550E+01  2.971924467E+02  1.250000000E+02  0.00000E+00  9.000E+00
      25     1     1     2     0     0 -3.367770879E+02 -1.679855947E+02  7.888675171E+02  8.829354034E+02  1.250000000E+02  0.00000E+00  9.000E+00
       3     1     1     2   502     0  4.080767113E+02 -8.295028278E+01  3.040777589E+02  5.156264492E+02  9.344061824E-06  0.00000E+00  9.000E+00
#rwgt            1           1   2.9221713844142985E-002          10      126311           0
</event>
<event>
      5   9999  3.19816E-02  1.61051E+02 -1.00000E+00  1.15183E-01
      21    -1     0     0   502   501  0.000000000E+00  0.000000000E+00  2.545224122E+02  2.545224122E+02  0.000000000E+00  0.00000E+00  9.000E+00
       2    -1     0     0   501     0  0.000000000E+00  0.000000000E+00 -6.289044445E+02  6.289044445E+02  0.000000000E+00  0.00000E+00  9.000E+00
      25     1     1     2     0     0  2.017881263E+02  1.092909652E+02 -1.727500701E+02  3.132579603E+02  1.250000000E+02  0.00000E+00  9.000E+00
      25     1     1     2     0     0 -2.564079986E+02  4.221478638E+01  2.797059242E+01  2.897145216E+02  1.250000000E+02  0.00000E+00  9.000E+00
       2     1     1     2   502     0  5.461987235E+01 -1.515057516E+02 -2.296025546E+02  2.804543748E+02  2.697398305E-06  0.00000E+00  9.000E+00
#rwgt            1           1   2.7144131502563621E-002          10      126348           0
</event>
<event>
      5   9999  3.19816E-02  6.65547E+01 -1.00000E+00  1.32340E-01
      21    -1     0     0   511   501  0.000000000E+00  0.000000000E+00  3.910441589E+02  3.910441589E+02  0.000000000E+00  0.00000E+00  9.000E+00
      21    -1     0     0   501   502  0.000000000E+00  0.000000000E+00 -2.578044520E+02  2.578044520E+02  0.000000000E+00  0.00000E+00  9.000E+00
      25     1     1     2     0     0 -2.047800696E+02 -6.149222712E+01  4.180459723E+01  2.511748300E+02  1.250000000E+02  0.00000E+00  9.000E+00
      25     1     1     2     0     0  2.598655084E+02  9.884365133E+01  2.865301324E+01  3.061799227E+02  1.250000000E+02  0.00000E+00  9.000E+00
      21     1     1     2   511   502 -5.508543885E+01 -3.735142421E+01  6.278209634E+01  9.149385818E+01  1.507891493E-06  0.00000E+00  9.000E+00
#rwgt            1           1   2.6617015397324518E-002          10      126414           0
</event>
<event>
      5   9999  3.19816E-02  1.38593E+02 -1.00000E+00  1.17771E-01
      21    -1     0     0   502   501  0.000000000E+00  0.000000000E+00  1.269605198E+02  1.269605198E+02  0.000000000E+00  0.00000E+00  9.000E+00
       2    -1     0     0   501     0  0.000000000E+00  0.000000000E+00 -5.819207744E+02  5.819207744E+02  0.000000000E+00  0.00000E+00  9.000E+00
      25     1     1     2     0     0  3.341101778E+00  4.776350968E+01 -5.304023952E+01  1.439818837E+02  1.250000000E+02  0.00000E+00  9.000E+00
      25     1     1     2     0     0  8.840459645E+01  5.611535536E+01 -3.936190112E+02  4.260577799E+02  1.250000000E+02  0.00000E+00  9.000E+00
       2     1     1     2   502     0 -9.174569823E+01 -1.038788650E+02 -8.301003831E+00  1.388416307E+02  3.122282232E-06  0.00000E+00  9.000E+00
#rwgt            1           1   3.0307701270886011E-002          10      126512           0
</event>
<event>
      5   9999  3.19816E-02  3.75623E+01 -1.00000E+00  1.46554E-01
      21    -1     0     0   511   501  0.000000000E+00  0.000000000E+00  3.965212170E+02  3.965212170E+02  0.000000000E+00  0.00000E+00  9.000E+00
      21    -1     0     0   501   502  0.000000000E+00  0.000000000E+00 -1.995574248E+02  1.995574248E+02  0.000000000E+00  0.00000E+00  9.000E+00
      25     1     1     2     0     0  7.994614596E+01  1.015878964E+02  2.826557337E+02  3.350085831E+02  1.250000000E+02  0.00000E+00  9.000E+00
      25     1     1     2     0     0 -6.673916102E+01 -1.367517771E+02 -1.000156641E+02  2.208694121E+02  1.250000000E+02  0.00000E+00  9.000E+00
      21     1     1     2   511   502 -1.320698494E+01  3.516388070E+01  1.432372255E+01  4.020064657E+01  7.152557373E-07  0.00000E+00  9.000E+00
#rwgt            1           1   2.5736270495650790E-002          10      126555           0
</event>
<event>
      5   9999  3.19816E-02  2.82521E+02 -1.00000E+00  1.06446E-01
      21    -1     0     0   502   501  0.000000000E+00  0.000000000E+00  8.596340167E+02  8.596340167E+02  0.000000000E+00  0.00000E+00  9.000E+00
      21    -1     0     0   512   502  0.000000000E+00  0.000000000E+00 -4.474166311E+03  4.474166311E+03  0.000000000E+00  0.00000E+00  9.000E+00
      25     1     1     2     0     0  3.831020991E+02  1.587692342E+03 -1.629541031E+03  2.310533090E+03  1.250000000E+02  0.00000E+00  9.000E+00
      25     1     1     2     0     0 -6.439332656E+02 -1.696252271E+03 -1.174501784E+03  2.164948326E+03  1.250000000E+02  0.00000E+00  9.000E+00
      21     1     1     2   512   501  2.608311665E+02  1.085599287E+02 -8.104894806E+02  8.583189115E+02  1.868812365E-05  0.00000E+00  9.000E+00
#rwgt            2          11   8.6602102947223164E-004          10      126727           0
</event>
<event>
      5   9999  3.19816E-02  5.09870E+01 -1.00000E+00  1.38593E-01
      21    -1     0     0   502   511  0.000000000E+00  0.000000000E+00  1.854478361E+02  1.854478361E+02  0.000000000E+00  0.00000E+00  9.000E+00
      21    -1     0     0   501   502  0.000000000E+00  0.000000000E+00 -3.191130366E+02  3.191130366E+02  0.000000000E+00  0.00000E+00  9.000E+00
      25     1     1     2     0     0 -9.131964002E+01  2.515736919E+01 -1.594465149E+02  2.236523217E+02  1.250000000E+02  0.00000E+00  9.000E+00
      25     1     1     2     0     0  9.148261280E+01 -7.614414621E+01 -5.863327802E+01  1.822905942E+02  1.250000000E+02  0.00000E+00  9.000E+00
      21     1     1     2   501   511 -1.629727815E-01  5.098677702E+01  8.441459242E+01  9.861795681E+01  9.536743164E-07  0.00000E+00  9.000E+00
#rwgt            1           1   3.1747705823565391E-002          10      126777           0
</event>
<event>
      5   9999  3.19816E-02  1.35609E+02 -1.00000E+00  1.18156E-01
      21    -1     0     0   502   501  0.000000000E+00  0.000000000E+00  7.053923456E+02  7.053923456E+02  0.000000000E+00  0.00000E+00  9.000E+00
      21    -1     0     0   512   502  0.000000000E+00  0.000000000E+00 -4.631011696E+02  4.631011696E+02  0.000000000E+00  0.00000E+00  9.000E+00
      25     1     1     2     0     0 -5.078047949E+01  2.541357086E+02  6.157671961E+02  6.796748158E+02  1.250000000E+02  0.00000E+00  9.000E+00
      25     1     1     2     0     0  6.912441928E+00 -1.258183005E+02 -2.403842161E+02  2.988103043E+02  1.250000000E+02  0.00000E+00  9.000E+00
      21     1     1     2   512   501  4.386803757E+01 -1.283174080E+02 -1.330918040E+02  1.900083951E+02  3.303624740E-06  0.00000E+00  9.000E+00
#rwgt            1           1   3.1319213397770489E-002          10      126873           0
</event>
<event>
      5   9999  3.19816E-02  8.10174E+01 -1.00000E+00  1.28084E-01
      21    -1     0     0   502   501  0.000000000E+00  0.000000000E+00  1.502639843E+03  1.502639843E+03  0.000000000E+00  0.00000E+00  9.000E+00
      21    -1     0     0   511   502  0.000000000E+00  0.000000000E+00 -5.224722190E+02  5.224722190E+02  0.000000000E+00  0.00000E+00  9.000E+00
      25     1     1     2     0     0 -4.842049767E+02 -7.567870340E+01  1.142648135E+03  1.249580524E+03  1.250000000E+02  0.00000E+00  9.000E+00
      25     1     1     2     0     0  5.135796539E+02  1.511833281E+02  4.616996164E+01  5.517038381E+02  1.250000000E+02  0.00000E+00  9.000E+00
      21     1     1     2   511   501 -2.937467718E+01 -7.550462475E+01 -2.086504721E+02  2.238277005E+02  3.814697266E-06  0.00000E+00  9.000E+00
#rwgt            1           1   3.4991430229711802E-002          10      126905           0
</event>
<event>
      5   9999  3.19816E-02  6.22061E+01 -1.00000E+00  1.33871E-01
      21    -1     0     0   502   501  0.000000000E+00  0.000000000E+00  8.646660489E+01  8.646660489E+01  0.000000000E+00  0.00000E+00  9.000E+00
      21    -1     0     0   501   512  0.000000000E+00  0.000000000E+00 -5.064476083E+02  5.064476083E+02  0.000000000E+00  0.00000E+00  9.000E+00
      25     1     1     2     0     0  1.442744254E+02 -1.049071481E+01 -2.143109458E+02  2.871921768E+02  1.250000000E+02  0.00000E+00  9.000E+00
      25     1     1     2     0     0 -8.542089701E+01  3.063655525E+01 -1.029396336E+02  1.856256887E+02  1.250000000E+02  0.00000E+00  9.000E+00
      21     1     1     2   502   512 -5.885352839E+01 -2.014584044E+01 -1.027304240E+02  1.200963476E+02  1.348699152E-06  0.00000E+00  9.000E+00
#rwgt            1           1   2.1240064833170043E-002          10      127058           0
</event>
<event>
      5   9999  3.45017E-02  2.08557E+01 -1.00000E+00  1.64882E-01
      21    -1     0     0   502   501  0.000000000E+00  0.000000000E+00  3.906555106E+02  3.906555106E+02  0.000000000E+00  0.00000E+00  9.000E+00
      21    -1     0     0   511   502  0.000000000E+00  0.000000000E+00 -1.060713152E+02  1.060713152E+02  0.000000000E+00  0.00000E+00  9.000E+00
      25     1     1     2     0     0  2.237321689E+01 -5.161416125E+01  3.117461577E+02  3.405513902E+02  1.250000000E+02  0.00000E+00  9.000E+00
      25     1     1     2     0     0 -2.440604108E+01  3.085774065E+01 -3.171524043E+01  1.348284520E+02  1.250000000E+02  0.00000E+00  9.000E+00
      21     1     1     2   511   501  2.032824187E+00  2.075642060E+01  4.553278124E+00  2.134698368E+01  3.097148194E-07  0.00000E+00  9.000E+00
#rwgt            1           1   3.1149369475892644E-002          10      127150           0
</event>
<event>
      5   9999  3.19816E-02  7.97323E+01 -1.00000E+00  1.28420E-01
      21    -1     0     0   512   501  0.000000000E+00  0.000000000E+00  1.913454691E+02  1.913454691E+02  0.000000000E+00  0.00000E+00  9.000E+00
      21    -1     0     0   501   502  0.000000000E+00  0.000000000E+00 -7.219696295E+02  7.219696295E+02  0.000000000E+00  0.00000E+00  9.000E+00
      25     1     1     2     0     0 -4.289347884E+01  1.548607371E+02 -5.188100540E+02  5.573244751E+02  1.250000000E+02  0.00000E+00  9.000E+00
      25     1     1     2     0     0  8.724856006E+01 -2.211168572E+02  2.181858583E+01  2.694550546E+02  1.250000000E+02  0.00000E+00  9.000E+00
      21     1     1     2   512   502 -4.435508122E+01  6.625612017E+01 -3.363269233E+01  8.653556889E+01  1.846782373E-06  0.00000E+00  9.000E+00
#rwgt            1           1   2.7325356958293360E-002          10      127332           0
</event>
<event>
      5   9999  3.19816E-02  1.07593E+02 -1.00000E+00  1.22415E-01
       2    -1     0     0   502     0  0.000000000E+00  0.000000000E+00  1.081455997E+03  1.081455997E+03  0.000000000E+00  0.00000E+00  9.000E+00
      21    -1     0     0   501   502  0.000000000E+00  0.000000000E+00 -4.614683510E+02  4.614683510E+02  0.000000000E+00  0.00000E+00  9.000E+00
      25     1     1     2     0     0 -1.572101745E+02 -3.129370448E+02 -2.970338338E+02  4.759188286E+02  1.250000000E+02  0.00000E+00  9.000E+00
      25     1     1     2     0     0  6.156695728E+01  3.622171189E+02  4.817176348E+02  6.186021428E+02  1.250000000E+02  0.00000E+00  9.000E+00
       2     1     1     2   501     0  9.564321725E+01 -4.928007414E+01  4.353038454E+02  4.484033771E+02  0.000000000E+00  0.00000E+00  9.000E+00
#rwgt            1           1   3.1805306624298618E-002          10      127390           0
</event>
<event>
      5   9999  3.19816E-02  1.50369E+01 -1.00000E+00  1.77283E-01
      21    -1     0     0   502   501  0.000000000E+00  0.000000000E+00  1.304777950E+03  1.304777950E+03  0.000000000E+00  0.00000E+00  9.000E+00
      21    -1     0     0   511   502  0.000000000E+00  0.000000000E+00 -5.302927988E+01  5.302927988E+01  0.000000000E+00  0.00000E+00  9.000E+00
      25     1     1     2     0     0 -9.566620831E+01  8.177763211E+00  1.239908608E+02  2.005433439E+02  1.250000000E+02  0.00000E+00  9.000E+00
      25     1     1     2     0     0  1.074473632E+02 -1.752185202E+01  1.129971415E+03  1.142064950E+03  1.250000000E+02  0.00000E+00  9.000E+00
      21     1     1     2   511   501 -1.178115493E+01  9.344088809E+00 -2.213605672E+00  1.519893605E+01  3.264680848E-07  0.00000E+00  9.000E+00
#rwgt            1           1   2.9873538164725502E-002          10      127451           0
</event>
<event>
      5   9999  3.19816E-02  2.26423E+01 -1.00000E+00  1.62042E-01
      21    -1     0     0   502   501  0.000000000E+00  0.000000000E+00  5.720204200E+02  5.720204200E+02  0.000000000E+00  0.00000E+00  9.000E+00
      21    -1     0     0   501   512  0.000000000E+00  0.000000000E+00 -1.454363957E+02  1.454363957E+02  0.000000000E+00  0.00000E+00  9.000E+00
      25     1     1     2     0     0 -2.122256971E+02 -5.400337665E+01  1.394386859E+02  2.881393036E+02  1.250000000E+02  0.00000E+00  9.000E+00
      25     1     1     2     0     0  1.896623938E+02  5.211346057E+01  3.159978031E+02  3.926413732E+02  1.250000000E+02  0.00000E+00  9.000E+00
      21     1     1     2   502   512  2.256330326E+01  1.889916074E+00 -2.885246468E+01  3.667613877E+01  4.768371582E-07  0.00000E+00  9.000E+00
#rwgt            1           1   2.7110465621411246E-002          10      127579           0
</event>
<event>
      5   9999  3.19816E-02  5.18205E+01 -1.00000E+00  1.38195E-01
      21    -1     0     0   502   501  0.000000000E+00  0.000000000E+00  1.141196873E+03  1.141196873E+03  0.000000000E+00  0.00000E+00  9.000E+00
       2    -1     0     0   501     0  0.000000000E+00  0.000000000E+00 -1.104376615E+03  1.104376615E+03  0.000000000E+00  0.00000E+00  9.000E+00
      25     1     1     2     0     0  4.674945258E+02  1.616788787E+02  6.634231878E+02  8.369268293E+02  1.250000000E+02  0.00000E+00  9.000E+00
      25     1     1     2     0     0 -4.706960086E+02 -1.099573288E+02  2.305486781E+02  5.499300316E+02  1.250000000E+02  0.00000E+00  9.000E+00
       2     1     1     2   502     0  3.201482827E+00 -5.172154992E+01 -8.571516077E+02  8.587166278E+02  1.078959322E-05  0.00000E+00  9.000E+00
#rwgt            1           1   2.3318320182730973E-002          10      127718           0
</event>
<event>
      5   9999  3.19816E-02  4.45431E+01 -1.00000E+00  1.42001E-01
      21    -1     0     0   502   511  0.000000000E+00  0.000000000E+00  1.222637819E+03  1.222637819E+03  0.000000000E+00  0.00000E+00  9.000E+00
      21    -1     0     0   501   502  0.000000000E+00  0.000000000E+00 -5.386064297E+01  5.386064297E+01  0.000000000E+00  0.00000E+00  9.000E+00
      25     1     1     2     0     0  1.000281968E+02  1.415876111E+01  1.808600488E+02  2.419534417E+02  1.250000000E+02  0.00000E+00  9.000E+00
      25     1     1     2     0     0 -1.445657087E+02 -1.345196189E+01  3.854945535E+02  4.304779323E+02  1.250000000E+02  0.00000E+00  9.000E+00
      21     1     1     2   501   511  4.453751194E+01 -7.067992222E-01  6.024225735E+02  6.040670878E+02  7.629394531E-06  0.00000E+00  9.000E+00
#rwgt            1           1   3.1307655467241340E-002          10      127818           0
</event>
<event>
      5   9999  3.19816E-02  9.51996E+01 -1.00000E+00  1.24797E-01
      21    -1     0     0   502   501  0.000000000E+00  0.000000000E+00  2.688046901E+02  2.688046901E+02  0.000000000E+00  0.00000E+00  9.000E+00
       2    -1     0     0   501     0  0.000000000E+00  0.000000000E+00 -1.768103049E+03  1.768103049E+03  0.000000000E+00  0.00000E+00  9.000E+00
      25     1     1     2     0     0  6.675627650E+01  3.884464447E+02  1.096168663E+01  4.136329284E+02  1.250000000E+02  0.00000E+00  9.000E+00
      25     1     1     2     0     0 -2.883491478E+01 -3.011255869E+02 -4.379538599E+02  5.467509989E+02  1.250000000E+02  0.00000E+00  9.000E+00
       2     1     1     2   502     0 -3.792136172E+01 -8.732085783E+01 -1.072306186E+03  1.076523812E+03  1.525878906E-05  0.00000E+00  9.000E+00
#rwgt            1           1   2.5254969211836613E-002          10      127883           0
</event>
<event>
      5   9999  3.19816E-02  2.49683E+02 -1.00000E+00  1.08249E-01
      21    -1     0     0   502   501  0.000000000E+00  0.000000000E+00  7.020625108E+02  7.020625108E+02  0.000000000E+00  0.00000E+00  9.000E+00
      21    -1     0     0   511   502  0.000000000E+00  0.000000000E+00 -7.451180422E+02  7.451180422E+02  0.000000000E+00  0.00000E+00  9.000E+00
      25     1     1     2     0     0  3.495156499E+02 -3.376978361E+02 -3.229312940E+02  5.967500638E+02  1.250000000E+02  0.00000E+00  9.000E+00
      25     1     1     2     0     0 -1.407328448E+02  4.746335562E+02  3.124845191E+02  5.986270299E+02  1.250000000E+02  0.00000E+00  9.000E+00
      21     1     1     2   511   501 -2.087828050E+02 -1.369357201E+02 -3.260875652E+01  2.518034593E+02  3.873843386E-06  0.00000E+00  9.000E+00
#rwgt            1           1   3.0350858694922257E-002          10      127965           0
</event>
<event>
      5   9999  3.19816E-02  1.26995E+02 -1.00000E+00  1.19333E-01
       2    -1     0     0   502     0  0.000000000E+00  0.000000000E+00  2.449262425E+03  2.449262425E+03  0.000000000E+00  0.00000E+00  9.000E+00
      21    -1     0     0   501   502  0.000000000E+00  0.000000000E+00 -4.301493634E+01  4.301493634E+01  0.000000000E+00  0.00000E+00  9.000E+00
      25     1     1     2     0     0  1.659642556E+02 -2.199249411E+02  1.433613718E+03  1.465190912E+03  1.250000000E+02  0.00000E+00  9.000E+00
      25     1     1     2     0     0 -1.237448160E+02  1.001529510E+02  6.269691743E+02  6.588313431E+02  1.250000000E+02  0.00000E+00  9.000E+00
       2     1     1     2   501     0 -4.221943964E+01  1.197719901E+02  3.456645960E+02  3.682551067E+02  6.607249480E-06  0.00000E+00  9.000E+00
#rwgt            1           1   8.0820076441463454E-002          10      128062           0
</event>
<event>
      5   9999  3.19816E-02  3.88248E+01 -1.00000E+00  1.45648E-01
      21    -1     0     0   502   501  0.000000000E+00  0.000000000E+00  1.333895789E+03  1.333895789E+03  0.000000000E+00  0.00000E+00  9.000E+00
      21    -1     0     0   511   502  0.000000000E+00  0.000000000E+00 -1.728189508E+02  1.728189508E+02  0.000000000E+00  0.00000E+00  9.000E+00
      25     1     1     2     0     0  2.015268016E+02 -4.109616336E+02  5.661055903E+02  7.386494808E+02  1.250000000E+02  0.00000E+00  9.000E+00
      25     1     1     2     0     0 -1.665469280E+02  3.941161397E+02  5.605829419E+02  7.162008416E+02  1.250000000E+02  0.00000E+00  9.000E+00
      21     1     1     2   511   501 -3.497987362E+01  1.684549391E+01  3.438830635E+01  5.186441784E+01  1.066240300E-06  0.00000E+00  9.000E+00
#rwgt            2          11   1.8351851881298842E-002          10      128128           0
</event>
<event>
      5   9999  3.19816E-02  1.50648E+01 -1.00000E+00  1.77207E-01
      21    -1     0     0   502   512  0.000000000E+00  0.000000000E+00  1.093178448E+03  1.093178448E+03  0.000000000E+00  0.00000E+00  9.000E+00
      21    -1     0     0   501   502  0.000000000E+00  0.000000000E+00 -1.494028652E+02  1.494028652E+02  0.000000000E+00  0.00000E+00  9.000E+00
      25     1     1     2     0     0  1.813989308E+02  1.450287614E+02  4.977541486E+00  2.637966824E+02  1.250000000E+02  0.00000E+00  9.000E+00
      25     1     1     2     0     0 -1.873270523E+02 -1.311793588E+02  9.050258793E+02  9.418048051E+02  1.250000000E+02  0.00000E+00  9.000E+00
      21     1     1     2   501   512  5.928121488E+00 -1.384940263E+01  3.377216240E+01  3.697982600E+01  4.768371582E-07  0.00000E+00  9.000E+00
#rwgt            1           1   3.2620569409272861E-002          10      128193           0
</event>
<event>
      5   9999  3.19816E-02  2.51447E+02 -1.00000E+00  1.08145E-01
      21    -1     0     0   502   501  0.000000000E+00  0.000000000E+00  3.803171356E+02  3.803171356E+02  0.000000000E+00  0.00000E+00  9.000E+00
       2    -1     0     0   501     0  0.000000000E+00  0.000000000E+00 -9.909710341E+02  9.909710341E+02  0.000000000E+00  0.00000E+00  9.000E+00
      25     1     1     2     0     0  1.307183102E+02  2.938329486E+02  6.237276853E+01  3.506286362E+02  1.250000000E+02  0.00000E+00  9.000E+00
      25     1     1     2     0     0 -3.317185602E+01 -6.207843675E+01  1.210628817E+02  1.877107500E+02  1.250000000E+02  0.00000E+00  9.000E+00
       2     1     1     2   502     0 -9.754645419E+01 -2.317545118E+02 -7.940895488E+02  8.329487835E+02  1.078959322E-05  0.00000E+00  9.000E+00
#rwgt            1           1   2.9815487554395396E-002          10      128417           0
</event>
<event>
      5   9999  3.19816E-02  7.03593E+01 -1.00000E+00  1.31108E-01
      21    -1     0     0   502   511  0.000000000E+00  0.000000000E+00  5.965631473E+02  5.965631473E+02  0.000000000E+00  0.00000E+00  9.000E+00
      21    -1     0     0   501   502  0.000000000E+00  0.000000000E+00 -4.621959632E+02  4.621959632E+02  0.000000000E+00  0.00000E+00  9.000E+00
      25     1     1     2     0     0  3.227074888E+02 -1.152688085E+02  2.752625454E+02  4.569699010E+02  1.250000000E+02  0.00000E+00  9.000E+00
      25     1     1     2     0     0 -3.671639391E+02  1.698037660E+02 -2.350352342E+02  4.842615393E+02  1.250000000E+02  0.00000E+00  9.000E+00
      21     1     1     2   501   511  4.445645035E+01 -5.453495755E+01  9.413987295E+01  1.175276702E+02  1.348699152E-06  0.00000E+00  9.000E+00
#rwgt            2          11   3.5746154890281380E-003          10      128478           0
</event>
<event>
      5   9999  3.19816E-02  2.78284E+01 -1.00000E+00  1.55341E-01
      21    -1     0     0   502   512  0.000000000E+00  0.000000000E+00  5.186258218E+02  5.186258218E+02  0.000000000E+00  0.00000E+00  9.000E+00
      21    -1     0     0   501   502  0.000000000E+00  0.000000000E+00 -1.172539047E+03  1.172539047E+03  0.000000000E+00  0.00000E+00  9.000E+00
      25     1     1     2     0     0 -4.271949240E+02  3.925566431E+01 -9.475868531E+02  1.047655647E+03  1.250000000E+02  0.00000E+00  9.000E+00
      25     1     1     2     0     0  4.057934927E+02 -2.146806427E+01  8.572705626E+01  4.337088478E+02  1.250000000E+02  0.00000E+00  9.000E+00
      21     1     1     2   501   512  2.140143131E+01 -1.778760003E+01  2.079465720E+02  2.098003737E+02  5.394796609E-06  0.00000E+00  9.000E+00
#rwgt            1           1   3.1595312773610461E-002          10      128498           0
</event>
<event>
      5   9999  3.25945E-02  4.05932E+01 -1.00000E+00  1.44445E-01
       2    -1     0     0   502     0  0.000000000E+00  0.000000000E+00  2.661160404E+03  2.661160404E+03  0.000000000E+00  0.00000E+00  9.000E+00
      21    -1     0     0   501   502  0.000000000E+00  0.000000000E+00 -3.474501545E+01  3.474501545E+01  0.000000000E+00  0.00000E+00  9.000E+00
      25     1     1     2     0     0  2.342446782E+02 -5.964182820E+01  1.364329136E+03  1.391203331E+03  1.250000000E+02  0.00000E+00  9.000E+00
      25     1     1     2     0     0 -2.001483495E+02  3.761344112E+01  6.719822536E+02  7.132035347E+02  1.250000000E+02  0.00000E+00  9.000E+00
       2     1     1     2   501     0 -3.409632867E+01  2.202838708E+01  5.901039989E+02  5.914985537E+02  7.629394531E-06  0.00000E+00  9.000E+00
#rwgt            1           1   8.7506162537265078E-002          10      128646           0
</event>
<event>
      5   9999  3.19816E-02  2.54342E+01 -1.00000E+00  1.58193E-01
      21    -1     0     0   511   501  0.000000000E+00  0.000000000E+00  5.535183571E+02  5.535183571E+02  0.000000000E+00  0.00000E+00  9.000E+00
      21    -1     0     0   501   502  0.000000000E+00  0.000000000E+00 -1.852071628E+03  1.852071628E+03  0.000000000E+00  0.00000E+00  9.000E+00
      25     1     1     2     0     0 -8.847865514E+02 -1.601103214E+02 -1.115473611E+03  1.438189464E+03  1.250000000E+02  0.00000E+00  9.000E+00
      25     1     1     2     0     0  8.828318719E+02  1.347513300E+02 -2.145531055E+02  9.269347712E+02  1.250000000E+02  0.00000E+00  9.000E+00
      21     1     1     2   511   502  1.954679499E+00  2.535899139E+01  3.147344525E+01  4.046575061E+01  7.539457465E-07  0.00000E+00  9.000E+00
#rwgt            1           1   2.1505251190565209E-002          10      128710           0
</event>
<event>
      5   9999  3.19816E-02  3.84382E+02 -1.00000E+00  1.02209E-01
      21    -1     0     0   502   501  0.000000000E+00  0.000000000E+00  5.928929634E+02  5.928929634E+02  0.000000000E+00  0.00000E+00  9.000E+00
       2    -1     0     0   501     0  0.000000000E+00  0.000000000E+00 -3.106836486E+03  3.106836486E+03  0.000000000E+00  0.00000E+00  9.000E+00
      25     1     1     2     0     0 -2.133536927E+02 -4.937008530E+02 -2.532373598E+03  2.591872175E+03  1.250000000E+02  0.00000E+00  9.000E+00
      25     1     1     2     0     0 -1.308392681E+02  6.648161804E+02  1.432122208E+02  7.037287886E+02  1.250000000E+02  0.00000E+00  9.000E+00
       2     1     1     2   502     0  3.441929608E+02 -1.711153273E+02 -1.247821455E+02  4.041284861E+02  5.223489356E-06  0.00000E+00  9.000E+00
#rwgt            1           1   2.6028720950918949E-002          10      128872           0
</event>
<event>
      5   9999  3.19816E-02  3.22203E+01 -1.00000E+00  1.50917E-01
      21    -1     0     0   502   501  0.000000000E+00  0.000000000E+00  4.877319258E+02  4.877319258E+02  0.000000000E+00  0.00000E+00  9.000E+00
      21    -1     0     0   511   502  0.000000000E+00  0.000000000E+00 -5.108479163E+02  5.108479163E+02  0.000000000E+00  0.00000E+00  9.000E+00
      25     1     1     2     0     0  1.618239040E+02 -4.418624227E+02 -1.127417433E+02  4.997650219E+02  1.250000000E+02  0.00000E+00  9.000E+00
      25     1     1     2     0     0 -1.493696987E+02  4.121464419E+02  9.629458843E+01  4.659116270E+02  1.250000000E+02  0.00000E+00  9.000E+00
      21     1     1     2   511   501 -1.245420530E+01  2.971598079E+01 -6.668835604E+00  3.290319305E+01  2.230201594E-07  0.00000E+00  9.000E+00
#rwgt            1           1   3.1566141325645149E-002          10      128947           0
</event>
<event>
      5   9999  3.19816E-02  7.70763E+00 -1.00000E+00  2.09807E-01
      21    -1     0     0   502   512  0.000000000E+00  0.000000000E+00  1.606493318E+02  1.606493318E+02  0.000000000E+00  0.00000E+00  9.000E+00
      21    -1     0     0   501   502  0.000000000E+00  0.000000000E+00 -4.435002668E+02  4.435002668E+02  0.000000000E+00  0.00000E+00  9.000E+00
      25     1     1     2     0     0 -7.773753608E+01 -3.481644677E+01  1.025461036E+02  1.827457601E+02  1.250000000E+02  0.00000E+00  9.000E+00
      25     1     1     2     0     0  8.479057725E+01  3.792484554E+01 -3.828077328E+02  4.132729077E+02  1.250000000E+02  0.00000E+00  9.000E+00
      21     1     1     2   501   512 -7.053041165E+00 -3.108398764E+00 -2.589305762E+00  8.130930875E+00  1.074538015E-07  0.00000E+00  9.000E+00
#rwgt            1           1   2.7916089693041914E-002          10      129049           0
</event>
<event>
      5   9999  3.19816E-02  1.75226E+02 -1.00000E+00  1.13780E-01
      21    -1     0     0   502   501  0.000000000E+00  0.000000000E+00  5.567044819E+02  5.567044819E+02  0.000000000E+00  0.00000E+00  9.000E+00
      21    -1     0     0   501   511  0.000000000E+00  0.000000000E+00 -4.973625148E+02  4.973625148E+02  0.000000000E+00  0.00000E+00  9.000E+00
      25     1     1     2     0     0 -7.468654191E+01  1.744148443E+02  4.594871081E+02  5.125934256E+02  1.250000000E+02  0.00000E+00  9.000E+00
      25     1     1     2     0     0 -7.879021823E+00 -1.986084632E+01 -3.285709246E+02  3.521936750E+02  1.250000000E+02  0.00000E+00  9.000E+00
      21     1     1     2   502   511  8.256556373E+01 -1.545539980E+02 -7.157421641E+01  1.892798961E+02  2.861022949E-06  0.00000E+00  9.000E+00
#rwgt            1           1   2.8857384486275700E-002          10      129369           0
</event>
<event>
      5   9999  3.19816E-02  4.54663E+01 -1.00000E+00  1.41472E-01
      21    -1     0     0   512   501  0.000000000E+00  0.000000000E+00  6.064069381E+02  6.064069381E+02  0.000000000E+00  0.00000E+00  9.000E+00
      21    -1     0     0   501   502  0.000000000E+00  0.000000000E+00 -7.232031596E+02  7.232031596E+02  0.000000000E+00  0.00000E+00  9.000E+00
      25     1     1     2     0     0  4.591410824E+01 -1.889858828E+01 -9.512187738E+01  1.647374685E+02  1.250000000E+02  0.00000E+00  9.000E+00
      25     1     1     2     0     0 -8.627901205E+01  3.982372067E+01 -5.819470574E+02  6.027581391E+02  1.250000000E+02  0.00000E+00  9.000E+00
      21     1     1     2   512   502  4.036490381E+01 -2.092513239E+01  5.602727133E+02  5.621144900E+02  1.321449896E-05  0.00000E+00  9.000E+00
#rwgt            1           1   3.5481151644512092E-002          10      129448           0
</event>
<event>
      5   9999  3.19816E-02  1.29659E+01 -1.00000E+00  1.83561E-01
      21    -1     0     0   502   511  0.000000000E+00  0.000000000E+00  1.668055067E+03  1.668055067E+03  0.000000000E+00  0.00000E+00  9.000E+00
      21    -1     0     0   501   502  0.000000000E+00  0.000000000E+00 -2.072626244E+02  2.072626244E+02  0.000000000E+00  0.00000E+00  9.000E+00
      25     1     1     2     0     0  3.945284624E+02 -3.943580460E+02  8.133401694E+02  9.941419452E+02  1.250000000E+02  0.00000E+00  9.000E+00
      25     1     1     2     0     0 -3.844645348E+02  4.025330783E+02  5.839949607E+02  8.164073565E+02  1.250000000E+02  0.00000E+00  9.000E+00
      21     1     1     2   501   511 -1.006392763E+01 -8.175032356E+00  6.345731301E+01  6.476839019E+01  6.743495762E-07  0.00000E+00  9.000E+00
#rwgt            1           1   3.2393516486419416E-002          10      129494           0
</event>
<event>
      5   9999  3.19816E-02  1.65970E+02 -1.00000E+00  1.14678E-01
      21    -1     0     0   502   501  0.000000000E+00  0.000000000E+00  2.589840750E+03  2.589840750E+03  0.000000000E+00  0.00000E+00  9.000E+00
      21    -1     0     0   512   502  0.000000000E+00  0.000000000E+00 -1.074445552E+02  1.074445552E+02  0.000000000E+00  0.00000E+00  9.000E+00
      25     1     1     2     0     0  2.401586263E+02  2.648947714E+02  8.393843756E+02  9.208889921E+02  1.250000000E+02  0.00000E+00  9.000E+00
      25     1     1     2     0     0 -3.514285435E+02 -1.417481713E+02  1.515356904E+03  1.567011841E+03  1.250000000E+02  0.00000E+00  9.000E+00
      21     1     1     2   512   501  1.112699171E+02 -1.231466000E+02  1.276549152E+02  2.093844716E+02  5.394796609E-06  0.00000E+00  9.000E+00
#rwgt            2          11   1.1759974656910015E-002          10      129900           0
</event>
<event>
      5   9999  3.19816E-02  2.22725E+01 -1.00000E+00  1.62603E-01
      21    -1     0     0   511   501  0.000000000E+00  0.000000000E+00  5.255683635E+02  5.255683635E+02  0.000000000E+00  0.00000E+00  9.000E+00
      21    -1     0     0   501   502  0.000000000E+00  0.000000000E+00 -2.263003960E+02  2.263003960E+02  0.000000000E+00  0.00000E+00  9.000E+00
      25     1     1     2     0     0  2.582315588E+02  1.595963618E+02  1.140969372E+02  3.475595600E+02  1.250000000E+02  0.00000E+00  9.000E+00
      25     1     1     2     0     0 -2.439128659E+02 -1.766562502E+02  1.418424563E+02  3.555913375E+02  1.250000000E+02  0.00000E+00  9.000E+00
      21     1     1     2   511   502 -1.431869292E+01  1.705988844E+01  4.332857398E+01  4.871786206E+01  0.000000000E+00  0.00000E+00  9.000E+00
#rwgt            1           1   2.6994400635009293E-002          10      129920           0
</event>
<event>
      5   9999  3.19816E-02  4.55629E+01 -1.00000E+00  1.41418E-01
      21    -1     0     0   502   501  0.000000000E+00  0.000000000E+00  1.187547293E+03  1.187547293E+03  0.000000000E+00  0.00000E+00  9.000E+00
      21    -1     0     0   512   502  0.000000000E+00  0.000000000E+00 -2.112274321E+02  2.112274321E+02  0.000000000E+00  0.00000E+00  9.000E+00
      25     1     1     2     0     0  3.076800530E+01 -5.715994082E+01  2.848863999E+01  1.437029283E+02  1.250000000E+02  0.00000E+00  9.000E+00
      25     1     1     2     0     0 -7.493911904E+01  6.833534437E+01  1.092038325E+03  1.103837984E+03  1.250000000E+02  0.00000E+00  9.000E+00
      21     1     1     2   512   501  4.417111375E+01 -1.117540355E+01 -1.442071049E+02  1.512338125E+02  1.907348633E-06  0.00000E+00  9.000E+00
#rwgt            1           1   2.8953333353830282E-002          10      130028           0
</event>
<event>
      5   9999  3.19816E-02  5.30007E+01 -1.00000E+00  1.37647E-01
      21    -1     0     0   502   501  0.000000000E+00  0.000000000E+00  8.168189024E+02  8.168189024E+02  0.000000000E+00  0.00000E+00  9.000E+00
      21    -1     0     0   511   502  0.000000000E+00  0.000000000E+00 -3.444450685E+02  3.444450685E+02  0.000000000E+00  0.00000E+00  9.000E+00
      25     1     1     2     0     0 -4.530442437E+01 -2.242605517E+02  2.483009176E+02  3.600328202E+02  1.250000000E+02  0.00000E+00  9.000E+00
      25     1     1     2     0     0  9.826108455E+01  2.264216186E+02  4.723209215E+02  5.473883841E+02  1.250000000E+02  0.00000E+00  9.000E+00
      21     1     1     2   511   501 -5.295666018E+01 -2.161066894E+00 -2.482480052E+02  2.538427666E+02  3.814697266E-06  0.00000E+00  9.000E+00
#rwgt            2          11   6.9776273725210940E-003          10      130098           0
</event>
<event>
      5   9999  3.19816E-02  5.56197E+01 -1.00000E+00  1.36487E-01
      21    -1     0     0   502   501  0.000000000E+00  0.000000000E+00  3.102944350E+02  3.102944350E+02  0.000000000E+00  0.00000E+00  9.000E+00
       2    -1     0     0   501     0  0.000000000E+00  0.000000000E+00 -1.841560595E+03  1.841560595E+03  0.000000000E+00  0.00000E+00  9.000E+00
      25     1     1     2     0     0 -1.247716512E+02 -2.212872212E+02 -5.584926781E+00  2.831822569E+02  1.250000000E+02  0.00000E+00  9.000E+00
      25     1     1     2     0     0  1.771964775E+02  2.027078922E+02  4.218289001E+01  2.998224098E+02  1.250000000E+02  0.00000E+00  9.000E+00
       2     1     1     2   502     0 -5.242482632E+01  1.857932900E+01 -1.567864123E+03  1.568850364E+03  0.000000000E+00  0.00000E+00  9.000E+00
#rwgt            1           1   3.0754151117702817E-002          10      130148           0
</event>
<event>
      5   9999  3.19816E-02  5.94776E+02 -1.00000E+00  9.67566E-02
      21    -1     0     0   511   501  0.000000000E+00  0.000000000E+00  1.571981101E+03  1.571981101E+03  0.000000000E+00  0.00000E+00  9.000E+00
      21    -1     0     0   501   502  0.000000000E+00  0.000000000E+00 -4.422645321E+02  4.422645321E+02  0.000000000E+00  0.00000E+00  9.000E+00
      25     1     1     2     0     0 -8.720734427E+01  1.769496633E+02 -9.040501711E+01  2.504283757E+02  1.250000000E+02  0.00000E+00  9.000E+00
      25     1     1     2     0     0  6.479489619E+02  2.136057444E+01  4.905926728E+02  8.225571725E+02  1.250000000E+02  0.00000E+00  9.000E+00
      21     1     1     2   511   502 -5.607416176E+02 -1.983102378E+02  7.295289130E+02  9.412600847E+02  1.525878906E-05  0.00000E+00  9.000E+00
#rwgt            2          11   1.4898255285191139E-003          10      130254           0
</event>
<event>
      5   9999  3.19816E-02  2.61943E+01 -1.00000E+00  1.57248E-01
      21    -1     0     0   502   501  0.000000000E+00  0.000000000E+00  3.707067879E+02  3.707067879E+02  0.000000000E+00  0.00000E+00  9.000E+00
      21    -1     0     0   512   502  0.000000000E+00  0.000000000E+00 -9.799861140E+02  9.799861140E+02  0.000000000E+00  0.00000E+00  9.000E+00
      25     1     1     2     0     0  3.099065437E+02 -4.118993920E+02  1.496063861E+01  5.306147337E+02  1.250000000E+02  0.00000E+00  9.000E+00
      25     1     1     2     0     0 -2.984269874E+02  3.883545350E+02 -5.887870847E+02  7.759981589E+02  1.250000000E+02  0.00000E+00  9.000E+00
      21     1     1     2   512   501 -1.147955635E+01  2.354485703E+01 -3.545288010E+01  4.408000923E+01  4.768371582E-07  0.00000E+00  9.000E+00
#rwgt            1           1   3.3007537094972603E-002          10      130289           0
</event>
<event>
      5   9999  3.19816E-02  1.67123E+02 -1.00000E+00  1.14563E-01
      21    -1     0     0   502   511  0.000000000E+00  0.000000000E+00  6.698307132E+02  6.698307132E+02  0.000000000E+00  0.00000E+00  9.000E+00
      21    -1     0     0   501   502  0.000000000E+00  0.000000000E+00 -5.636434656E+02  5.636434656E+02  0.000000000E+00  0.00000E+00  9.000E+00
      25     1     1     2     0     0  1.758482241E+02  3.720879146E+02  7.652160965E+00  4.301808569E+02  1.250000000E+02  0.00000E+00  9.000E+00
      25     1     1     2     0     0 -2.182334798E+02 -2.104292555E+02 -2.529208139E+02  4.141259004E+02  1.250000000E+02  0.00000E+00  9.000E+00
      21     1     1     2   501   511  4.238525577E+01 -1.616586591E+02  3.514559005E+02  3.891674215E+02  0.000000000E+00  0.00000E+00  9.000E+00
#rwgt            1           1   2.8202544643757790E-002          10      130403           0
</event>
<event>
      5   9999  3.19816E-02  6.64939E+01 -1.00000E+00  1.32361E-01
      21    -1     0     0   502   501  0.000000000E+00  0.000000000E+00  6.483959544E+02  6.483959544E+02  0.000000000E+00  0.00000E+00  9.000E+00
       2    -1     0     0   501     0  0.000000000E+00  0.000000000E+00 -2.469361472E+03  2.469361472E+03  0.000000000E+00  0.00000E+00  9.000E+00
      25     1     1     2     0     0  5.384105215E+01 -1.976742633E+02 -8.029793775E+02  8.380780715E+02  1.250000000E+02  0.00000E+00  9.000E+00
      25     1     1     2     0     0 -1.063480967E+02  1.568765856E+02  6.097188091E+02  6.506167896E+02  1.250000000E+02  0.00000E+00  9.000E+00
       2     1     1     2   502     0  5.250704453E+01  4.079767761E+01 -1.627704950E+03  1.629062566E+03  0.000000000E+00  0.00000E+00  9.000E+00
#rwgt            1           1   3.3263433735006648E-002          10      130463           0
</event>
<event>
      5   9999  3.19816E-02  4.14499E+01 -1.00000E+00  1.43888E-01
      21    -1     0     0   511   501  0.000000000E+00  0.000000000E+00  2.066285856E+03  2.066285856E+03  0.000000000E+00  0.00000E+00  9.000E+00
      21    -1     0     0   501   502  0.000000000E+00  0.000000000E+00 -2.381805324E+01  2.381805324E+01  0.000000000E+00  0.00000E+00  9.000E+00
      25     1     1     2     0     0 -1.268868202E+02  4.565360614E+01  1.124754050E+03  1.139684689E+03  1.250000000E+02  0.00000E+00  9.000E+00
      25     1     1     2     0     0  1.281925405E+02 -4.224321775E+00  5.086281313E+02  5.392390456E+02  1.250000000E+02  0.00000E+00  9.000E+00
      21     1     1     2   511   502 -1.305720334E+00 -4.142928436E+01  4.090856209E+02  4.111801743E+02  5.394796609E-06  0.00000E+00  9.000E+00
#rwgt            1           1   3.0800196295318296E-002          10      130598           0
</event>
<event>
      5   9999  3.19816E-02  8.47766E+01 -1.00000E+00  1.27142E-01
      21    -1     0     0   502   501  0.000000000E+00  0.000000000E+00  5.126372689E+02  5.126372689E+02  0.000000000E+00  0.00000E+00  9.000E+00
      21    -1     0     0   512   502  0.000000000E+00  0.000000000E+00 -6.187285671E+02  6.187285671E+02  0.000000000E+00  0.00000E+00  9.000E+00
      25     1     1     2     0     0  9.674010765E+01  1.342482284E+02 -5.112733990E+02  5.517306624E+02  1.250000000E+02  0.00000E+00  9.000E+00
      25     1     1     2     0     0 -1.287704498E+01 -1.218362941E+02  4.506422315E+02  4.834390569E+02  1.250000000E+02  0.00000E+00  9.000E+00
      21     1     1     2   512   501 -8.386306267E+01 -1.241193439E+01 -4.546013069E+01  9.619611675E+01  1.507891493E-06  0.00000E+00  9.000E+00
#rwgt            1           1   2.5628353499173463E-002          10      130696           0
</event>
<event>
      5   9999  3.19816E-02  1.22645E+01 -1.00000E+00  1.86038E-01
      21    -1     0     0   502   501  0.000000000E+00  0.000000000E+00  7.134298685E+02  7.134298685E+02  0.000000000E+00  0.00000E+00  9.000E+00
      21    -1     0     0   511   502  0.000000000E+00  0.000000000E+00 -7.616769854E+01  7.616769854E+01  0.000000000E+00  0.00000E+00  9.000E+00
      25     1     1     2     0     0 -1.668106641E+02 -2.474019527E+01  2.470578025E+02  3.241919689E+02  1.250000000E+02  0.00000E+00  9.000E+00
      25     1     1     2     0     0  1.701791673E+02  1.294731513E+01  3.981006672E+02  4.508189473E+02  1.250000000E+02  0.00000E+00  9.000E+00
      21     1     1     2   511   501 -3.368503268E+00  1.179288013E+01 -7.896299728E+00  1.458665094E+01  4.693274423E-07  0.00000E+00  9.000E+00
#rwgt            1           1   2.6492764233331328E-002          10      130772           0
</event>
<event>
      5   9999  3.19816E-02  5.03189E+01 -1.00000E+00  1.38918E-01
      21    -1     0     0   502   512  0.000000000E+00  0.000000000E+00  4.385278659E+02  4.385278659E+02  0.000000000E+00  0.00000E+00  9.000E+00
      21    -1     0     0   501   502  0.000000000E+00  0.000000000E+00 -7.420195010E+02  7.420195010E+02  0.000000000E+00  0.00000E+00  9.000E+00
      25     1     1     2     0     0 -3.507257248E+02 -8.224058965E+01  2.683086695E+02  4.662473493E+02  1.250000000E+02  0.00000E+00  9.000E+00
      25     1     1     2     0     0  3.016633257E+02  9.341516000E+01 -5.705236991E+02  6.639649430E+02  1.250000000E+02  0.00000E+00  9.000E+00
      21     1     1     2   501   512  4.906239903E+01 -1.117457035E+01 -1.276605524E+00  5.033507468E+01  9.892171520E-07  0.00000E+00  9.000E+00
#rwgt            1           1   2.5646058244026777E-002          10      130987           0
</event>
<event>
      5   9999  3.19816E-02  7.94221E+01 -1.00000E+00  1.28502E-01
      21    -1     0     0   502   501  0.000000000E+00  0.000000000E+00  4.141977919E+02  4.141977919E+02  0.000000000E+00  0.00000E+00  9.000E+00
       1    -1     0     0   501     0  0.000000000E+00  0.000000000E+00 -5.224453986E+02  5.224453986E+02  0.000000000E+00  0.00000E+00  9.000E+00
      25     1     1     2     0     0 -2.189057719E+02 -1.770756634E+00  3.155821092E+02  4.039058556E+02  1.250000000E+02  0.00000E+00  9.000E+00
      25     1     1     2     0     0  1.709579427E+02 -6.154495417E+01 -2.095860015E+02  3.042461036E+02  1.250000000E+02  0.00000E+00  9.000E+00
       1     1     1     2   502     0  4.794782919E+01  6.331571080E+01 -2.142437145E+02  2.284912313E+02  3.814697266E-06  0.00000E+00  9.000E+00
#rwgt            1           1   2.9290417666126604E-002          10      131122           0
</event>
<event>
      5   9999  3.19816E-02  4.04742E+01 -1.00000E+00  1.44523E-01
      21    -1     0     0   502   501  0.000000000E+00  0.000000000E+00  7.103159075E+02  7.103159075E+02  0.000000000E+00  0.00000E+00  9.000E+00
      21    -1     0     0   501   511  0.000000000E+00  0.000000000E+00 -7.773928530E+02  7.773928530E+02  0.000000000E+00  0.00000E+00  9.000E+00
      25     1     1     2     0     0  1.836051162E+02 -9.607863813E+01  6.685235351E+01  2.510700710E+02  1.250000000E+02  0.00000E+00  9.000E+00
      25     1     1     2     0     0 -1.720735240E+02  5.728192605E+01  5.287142424E+02  5.727602176E+02  1.250000000E+02  0.00000E+00  9.000E+00
      21     1     1     2   502   511 -1.153159215E+01  3.879671208E+01 -6.626435414E+02  6.638784719E+02  7.629394531E-06  0.00000E+00  9.000E+00
#rwgt            1           1   2.6034471720679062E-002          10      131222           0
</event>
<event>
      5   9999  3.19816E-02  1.28858E+02 -1.00000E+00  1.19070E-01
      21    -1     0     0   502   501  0.000000000E+00  0.000000000E+00  7.455993279E+02  7.455993279E+02  0.000000000E+00  0.00000E+00  9.000E+00
      21    -1     0     0   501   512  0.000000000E+00  0.000000000E+00 -2.910062003E+02  2.910062003E+02  0.000000000E+00  0.00000E+00  9.000E+00
      25     1     1     2     0     0 -1.091812936E+02  5.059378312E+00  1.063604270E+02  1.971894840E+02  1.250000000E+02  0.00000E+00  9.000E+00
      25     1     1     2     0     0  2.249636609E+02  5.149950216E+01  5.445996218E+02  6.045449491E+02  1.250000000E+02  0.00000E+00  9.000E+00
      21     1     1     2   502   512 -1.157823673E+02 -5.655888047E+01 -1.963669212E+02  2.348710951E+02  5.394796609E-06  0.00000E+00  9.000E+00
#rwgt            1           1   2.9066655316857599E-002          10      131304           0
</event>
<event>
      5   9999  3.19816E-02  9.37997E+00 -1.00000E+00  1.99026E-01
      21    -1     0     0   502   511  0.000000000E+00  0.000000000E+00  6.836044327E+02  6.836044327E+02  0.000000000E+00  0.00000E+00  9.000E+00
      21    -1     0     0   501   502  0.000000000E+00  0.000000000E+00 -2.418150319E+02  2.418150319E+02  0.000000000E+00  0.00000E+00  9.000E+00
      25     1     1     2     0     0  1.206243538E+02 -3.404263390E+02  6.596522883E+01  3.878359684E+02  1.250000000E+02  0.00000E+00  9.000E+00
      25     1     1     2     0     0 -1.231072054E+02  3.313809396E+02  3.679101130E+02  5.253109198E+02  1.250000000E+02  0.00000E+00  9.000E+00
      21     1     1     2   501   511  2.482851656E+00  9.045399361E+00  7.914058976E+00  1.227257640E+01  2.230201594E-07  0.00000E+00  9.000E+00
#rwgt            1           1   3.1843015691814913E-002          10      131352           0
</event>
<event>
      5   9999  3.19816E-02  1.25195E+01 -1.00000E+00  1.85113E-01
      21    -1     0     0   502   501  0.000000000E+00  0.000000000E+00  1.167206018E+02  1.167206018E+02  0.000000000E+00  0.00000E+00  9.000E+00
       2    -1     0     0   501     0  0.000000000E+00  0.000000000E+00 -1.365864801E+03  1.365864801E+03  0.000000000E+00  0.00000E+00  9.000E+00
      25     1     1     2     0     0  1.688227392E+02 -1.287999167E+02 -2.263248511E+02  3.345720760E+02  1.250000000E+02  0.00000E+00  9.000E+00
      25     1     1     2     0     0 -1.568558719E+02  1.324784768E+02 -1.683771876E+02  2.934794519E+02  1.250000000E+02  0.00000E+00  9.000E+00
       2     1     1     2   502     0 -1.196686739E+01 -3.678560128E+00 -8.544421606E+02  8.545338750E+02  1.078959322E-05  0.00000E+00  9.000E+00
#rwgt            1           1   2.1045205226336242E-002          10      131636           0
</event>
<event>
      5   9999  3.19816E-02  1.29500E+02 -1.00000E+00  1.18980E-01
      21    -1     0     0   502   501  0.000000000E+00  0.000000000E+00  1.306938317E+03  1.306938317E+03  0.000000000E+00  0.00000E+00  9.000E+00
      21    -1     0     0   511   502  0.000000000E+00  0.000000000E+00 -8.170322793E+02  8.170322793E+02  0.000000000E+00  0.00000E+00  9.000E+00
      25     1     1     2     0     0 -5.804224053E+02 -6.091294661E+02  3.554821382E+02  9.219118318E+02  1.250000000E+02  0.00000E+00  9.000E+00
      25     1     1     2     0     0  5.745206822E+02  7.384950618E+02  3.012478243E+02  9.908704366E+02  1.250000000E+02  0.00000E+00  9.000E+00
      21     1     1     2   511   501  5.901723087E+00 -1.293655957E+02 -1.668239251E+02  2.111883275E+02  1.907348633E-06  0.00000E+00  9.000E+00
#rwgt            2          11   5.5710923780278318E-003          10      131809           0
</event>
<event>
      5   9999  3.19816E-02  1.21995E+02 -1.00000E+00  1.20065E-01
      21    -1     0     0   502   512  0.000000000E+00  0.000000000E+00  1.880927029E+03  1.880927029E+03  0.000000000E+00  0.00000E+00  9.000E+00
      21    -1     0     0   501   502  0.000000000E+00  0.000000000E+00 -3.555188611E+02  3.555188611E+02  0.000000000E+00  0.00000E+00  9.000E+00
      25     1     1     2     0     0 -6.356417015E+02 -1.956891903E+02  2.325051324E+02  7.155545182E+02  1.250000000E+02  0.00000E+00  9.000E+00
      25     1     1     2     0     0  6.514700421E+02  7.472508295E+01  9.869046298E+02  1.191470857E+03  1.250000000E+02  0.00000E+00  9.000E+00
      21     1     1     2   501   512 -1.582834064E+01  1.209641074E+02  3.059984061E+02  3.294205157E+02  0.000000000E+00  0.00000E+00  9.000E+00
#rwgt            1           1   3.2166073252038754E-002          10      131844           0
</event>
<event>
      5   9999  3.19816E-02  2.30082E+02 -1.00000E+00  1.09477E-01
      21    -1     0     0   511   501  0.000000000E+00  0.000000000E+00  1.967877026E+02  1.967877026E+02  0.000000000E+00  0.00000E+00  9.000E+00
      21    -1     0     0   501   502  0.000000000E+00  0.000000000E+00 -1.160402199E+03  1.160402199E+03  0.000000000E+00  0.00000E+00  9.000E+00
      25     1     1     2     0     0 -3.721021751E+02 -1.464433063E+02 -4.222447922E+02  5.948288285E+02  1.250000000E+02  0.00000E+00  9.000E+00
      25     1     1     2     0     0  1.564422992E+02  2.266223328E+02 -3.543717614E+02  4.658714629E+02  1.250000000E+02  0.00000E+00  9.000E+00
      21     1     1     2   511   502  2.156598759E+02 -8.017902644E+01 -1.869979429E+02  2.964896103E+02  0.000000000E+00  0.00000E+00  9.000E+00
#rwgt            1           1   3.1672453693231614E-002          10      131983           0
</event>
<event>
      5   9999  3.19816E-02  1.39969E+01 -1.00000E+00  1.80263E-01
      21    -1     0     0   502   501  0.000000000E+00  0.000000000E+00  2.626889714E+02  2.626889714E+02  0.000000000E+00  0.00000E+00  9.000E+00
      21    -1     0     0   512   502  0.000000000E+00  0.000000000E+00 -3.141699261E+02  3.141699261E+02  0.000000000E+00  0.00000E+00  9.000E+00
      25     1     1     2     0     0  1.445372284E+02 -8.751474190E+01  1.684285246E+02  2.693380930E+02  1.250000000E+02  0.00000E+00  9.000E+00
      25     1     1     2     0     0 -1.306726879E+02  8.559443014E+01 -2.117660288E+02  2.913273224E+02  1.250000000E+02  0.00000E+00  9.000E+00
      21     1     1     2   512   501 -1.386454049E+01  1.920311767E+00 -8.143450530E+00  1.619348224E+01  2.064765462E-07  0.00000E+00  9.000E+00
#rwgt            1           1   3.1464107384531426E-002          10      132021           0
</event>
<event>
      5   9999  3.19816E-02  3.85807E+02 -1.00000E+00  1.02160E-01
       2    -1     0     0   502     0  0.000000000E+00  0.000000000E+00  7.798674172E+02  7.798674172E+02  0.000000000E+00  0.00000E+00  9.000E+00
      21    -1     0     0   501   502  0.000000000E+00  0.000000000E+00 -7.471484672E+02  7.471484672E+02  0.000000000E+00  0.00000E+00  9.000E+00
      25     1     1     2     0     0 -5.174851864E+01 -1.690551438E+02  3.111621857E+02  3.790837066E+02  1.250000000E+02  0.00000E+00  9.000E+00
      25     1     1     2     0     0 -3.012386992E+02  3.247698029E+02 -5.186735513E+02  6.934460553E+02  1.250000000E+02  0.00000E+00  9.000E+00
       2     1     1     2   501     0  3.529872178E+02 -1.557146591E+02  2.402303157E+02  4.544861225E+02  3.814697266E-06  0.00000E+00  9.000E+00
#rwgt            2          18   5.5613492900555262E-004          10      132344           0
</event>
<event>
      5   9999  3.19816E-02  2.87190E+01 -1.00000E+00  1.54368E-01
      21    -1     0     0   511   501  0.000000000E+00  0.000000000E+00  3.175329717E+02  3.175329717E+02  0.000000000E+00  0.00000E+00  9.000E+00
      21    -1     0     0   501   502  0.000000000E+00  0.000000000E+00 -5.130201338E+02  5.130201338E+02  0.000000000E+00  0.00000E+00  9.000E+00
      25     1     1     2     0     0 -1.820949660E+02 -2.744613845E+02  6.894755040E+01  3.589796553E+02  1.250000000E+02  0.00000E+00  9.000E+00
      25     1     1     2     0     0  1.576630703E+02  2.593662984E+02 -2.862272619E+02  4.355221762E+02  1.250000000E+02  0.00000E+00  9.000E+00
      21     1     1     2   511   502  2.443189567E+01  1.509508610E+01  2.179254932E+01  3.605127399E+01  7.152557373E-07  0.00000E+00  9.000E+00
#rwgt            1           1   2.9615445133127256E-002          10      132378           0
</event>
<event>
      5   9999  3.19816E-02  2.45866E+02 -1.00000E+00  1.08478E-01
      21    -1     0     0   512   501  0.000000000E+00  0.000000000E+00  4.202730445E+02  4.202730445E+02  0.000000000E+00  0.00000E+00  9.000E+00
      21    -1     0     0   501   502  0.000000000E+00  0.000000000E+00 -1.677029871E+03  1.677029871E+03  0.000000000E+00  0.00000E+00  9.000E+00
      25     1     1     2     0     0 -2.170661990E+02 -4.927617433E+02 -1.114712346E+03  1.244242936E+03  1.250000000E+02  0.00000E+00  9.000E+00
      25     1     1     2     0     0  4.165910524E+02  3.490959885E+02  2.089783443E+01  5.581019922E+02  1.250000000E+02  0.00000E+00  9.000E+00
      21     1     1     2   512   502 -1.995248535E+02  1.436657547E+02 -1.629423154E+02  2.949579875E+02  3.814697266E-06  0.00000E+00  9.000E+00
#rwgt            1           1   3.0332282940498567E-002          10      132560           0
</event>
<event>
      5   9999  3.19816E-02  5.33659E+01 -1.00000E+00  1.37480E-01
      21    -1     0     0   502   501  0.000000000E+00  0.000000000E+00  8.620003117E+02  8.620003117E+02  0.000000000E+00  0.00000E+00  9.000E+00
      21    -1     0     0   501   511  0.000000000E+00  0.000000000E+00 -2.523502401E+02  2.523502401E+02  0.000000000E+00  0.00000E+00  9.000E+00
      25     1     1     2     0     0 -4.905855299E+01 -1.072931631E+02 -8.189162207E+01  1.903938083E+02  1.250000000E+02  0.00000E+00  9.000E+00
      25     1     1     2     0     0  8.217591522E+01  1.491399896E+02  7.868577337E+02  8.147181786E+02  1.250000000E+02  0.00000E+00  9.000E+00
      21     1     1     2   502   511 -3.311736222E+01 -4.184682652E+01 -9.531604005E+01  1.092385649E+02  0.000000000E+00  0.00000E+00  9.000E+00
#rwgt            1           1   2.7975387421338517E-002          10      132637           0
</event>
<event>
      5   9999  3.19816E-02  6.63009E+01 -1.00000E+00  1.32426E-01
      21    -1     0     0   502   501  0.000000000E+00  0.000000000E+00  4.162092421E+02  4.162092421E+02  0.000000000E+00  0.00000E+00  9.000E+00
      21    -1     0     0   512   502  0.000000000E+00  0.000000000E+00 -5.718209227E+02  5.718209227E+02  0.000000000E+00  0.00000E+00  9.000E+00
      25     1     1     2     0     0 -3.009293310E+02  1.102486526E+02 -1.337099510E+02  3.690753021E+02  1.250000000E+02  0.00000E+00  9.000E+00
      25     1     1     2     0     0  3.505237969E+02 -6.624647467E+01  1.710750395E+02  4.149062505E+02  1.250000000E+02  0.00000E+00  9.000E+00
      21     1     1     2   512   501 -4.959446596E+01 -4.400217795E+01 -1.929767691E+02  2.040486122E+02  2.697398305E-06  0.00000E+00  9.000E+00
#rwgt            1           1   2.4944024101740046E-002          10      132724           0
</event>
<event>
      5   9999  3.19816E-02  1.18890E+02 -1.00000E+00  1.20540E-01
      21    -1     0     0   502   511  0.000000000E+00  0.000000000E+00  1.276239970E+03  1.276239970E+03  0.000000000E+00  0.00000E+00  9.000E+00
      21    -1     0     0   501   502  0.000000000E+00  0.000000000E+00 -1.348230816E+02  1.348230816E+02  0.000000000E+00  0.00000E+00  9.000E+00
      25     1     1     2     0     0 -2.883440466E+02  1.338396635E+02  3.126953726E+02  4.630969022E+02  1.250000000E+02  0.00000E+00  9.000E+00
      25     1     1     2     0     0  2.187866063E+02 -2.302579296E+02  6.210634508E+02  7.086826534E+02  1.250000000E+02  0.00000E+00  9.000E+00
      21     1     1     2   501   511  6.955744030E+01  9.641826610E+01  2.076580649E+02  2.392834960E+02  0.000000000E+00  0.00000E+00  9.000E+00
#rwgt            1           1   2.7855965009649819E-002          10      132788           0
</event>
<event>
      5   9999  3.19816E-02  3.72509E+01 -1.00000E+00  1.46784E-01
       2    -1     0     0   502     0  0.000000000E+00  0.000000000E+00  3.981130906E+02  3.981130906E+02  0.000000000E+00  0.00000E+00  9.000E+00
      21    -1     0     0   501   502  0.000000000E+00  0.000000000E+00 -6.880387704E+02  6.880387704E+02  0.000000000E+00  0.00000E+00  9.000E+00
      25     1     1     2     0     0 -2.359018286E+02 -3.580770745E+02 -2.330566061E+02  5.037948448E+02  1.250000000E+02  0.00000E+00  9.000E+00
      25     1     1     2     0     0  1.990577467E+02  3.525870594E+02 -1.750190214E+02  4.584738584E+02  1.250000000E+02  0.00000E+00  9.000E+00
       2     1     1     2   501     0  3.684408191E+01  5.490015090E+00  1.181499477E+02  1.238831578E+02  1.348699152E-06  0.00000E+00  9.000E+00
#rwgt            1           1   2.8913550612868148E-002          10      132889           0
</event>
<event>
      5   9999  3.19816E-02  5.68217E+01 -1.00000E+00  1.35979E-01
      21    -1     0     0   502   501  0.000000000E+00  0.000000000E+00  8.308629063E+01  8.308629063E+01  0.000000000E+00  0.00000E+00  9.000E+00
       2    -1     0     0   501     0  0.000000000E+00  0.000000000E+00 -5.986425728E+02  5.986425728E+02  0.000000000E+00  0.00000E+00  9.000E+00
      25     1     1     2     0     0  1.119199706E+02 -7.260288958E+01 -1.395082161E+02  2.299669580E+02  1.250000000E+02  0.00000E+00  9.000E+00
      25     1     1     2     0     0 -1.188086551E+02  1.620027091E+01 -1.894255273E+02  2.566806882E+02  1.250000000E+02  0.00000E+00  9.000E+00
       2     1     1     2   502     0  6.888684507E+00  5.640261866E+01 -1.866225387E+02  1.950812172E+02  0.000000000E+00  0.00000E+00  9.000E+00
#rwgt            1           1   3.0311632334431817E-002          10      133031           0
</event>
<event>
      5   9999  3.19816E-02  5.29188E+01 -1.00000E+00  1.37684E-01
      21    -1     0     0   502   501  0.000000000E+00  0.000000000E+00  1.922402467E+02  1.922402467E+02  0.000000000E+00  0.00000E+00  9.000E+00
      21    -1     0     0   501   511  0.000000000E+00  0.000000000E+00 -1.147098553E+03  1.147098553E+03  0.000000000E+00  0.00000E+00  9.000E+00
      25     1     1     2     0     0 -3.592874529E+02  8.577061665E+01 -7.932570660E+02  8.839263800E+02  1.250000000E+02  0.00000E+00  9.000E+00
      25     1     1     2     0     0  3.348847199E+02 -3.881415010E+01 -9.799161655E+01  3.726683121E+02  1.250000000E+02  0.00000E+00  9.000E+00
      21     1     1     2   502   511  2.440273293E+01 -4.695646655E+01 -6.360962361E+01  8.274410759E+01  1.348699152E-06  0.00000E+00  9.000E+00
#rwgt            1           1   2.9191434834087298E-002          10      133098           0
</event>
<event>
      5   9999  3.19816E-02  1.54428E+02 -1.00000E+00  1.15895E-01
      21    -1     0     0   502   501  0.000000000E+00  0.000000000E+00  9.012959275E+01  9.012959275E+01  0.000000000E+00  0.00000E+00  9.000E+00
       1    -1     0     0   501     0  0.000000000E+00  0.000000000E+00 -2.074476141E+03  2.074476141E+03  0.000000000E+00  0.00000E+00  9.000E+00
      25     1     1     2     0     0 -8.690071531E+01 -3.383901658E+02 -8.963520232E+02  9.701193680E+02  1.250000000E+02  0.00000E+00  9.000E+00
      25     1     1     2     0     0 -2.972130858E+01  2.371611773E+02 -9.494465289E+02  9.870169662E+02  1.250000000E+02  0.00000E+00  9.000E+00
       1     1     1     2   502     0  1.166220239E+02  1.012289885E+02 -1.385479963E+02  2.074693998E+02  5.046370146E-06  0.00000E+00  9.000E+00
#rwgt            1           1   2.8458185869762353E-002          10      133204           0
</event>
<event>
      5   9999  3.19816E-02  1.72894E+01 -1.00000E+00  1.71763E-01
      21    -1     0     0   502   501  0.000000000E+00  0.000000000E+00  1.022750193E+03  1.022750193E+03  0.000000000E+00  0.00000E+00  9.000E+00
      21    -1     0     0   511   502  0.000000000E+00  0.000000000E+00 -1.795123129E+02  1.795123129E+02  0.000000000E+00  0.00000E+00  9.000E+00
      25     1     1     2     0     0 -1.844568596E+02 -2.052653375E+02  8.084207013E+02  8.633233589E+02  1.250000000E+02  0.00000E+00  9.000E+00
      25     1     1     2     0     0  2.017272360E+02  2.060762539E+02  4.698762744E+01  3.177957478E+02  1.250000000E+02  0.00000E+00  9.000E+00
      21     1     1     2   511   501 -1.727037640E+01 -8.109163835E-01 -1.217044901E+01  2.114339886E+01  3.769728732E-07  0.00000E+00  9.000E+00
#rwgt            1           1   2.9665164035794851E-002          10      133256           0
</event>
<event>
      5   9999  3.19816E-02  1.19199E+02 -1.00000E+00  1.20492E-01
      21    -1     0     0   502   501  0.000000000E+00  0.000000000E+00  3.063975814E+02  3.063975814E+02  0.000000000E+00  0.00000E+00  9.000E+00
       2    -1     0     0   501     0  0.000000000E+00  0.000000000E+00 -1.887767831E+03  1.887767831E+03  0.000000000E+00  0.00000E+00  9.000E+00
      25     1     1     2     0     0 -2.577419636E+01  4.053304162E+01 -6.810002648E+02  6.940414954E+02  1.250000000E+02  0.00000E+00  9.000E+00
      25     1     1     2     0     0  1.368278052E+02 -8.383919348E+01  2.619807856E+02  3.316772387E+02  1.250000000E+02  0.00000E+00  9.000E+00
       2     1     1     2   502     0 -1.110536089E+02  4.330615186E+01 -1.162350771E+03  1.168446679E+03  1.525878906E-05  0.00000E+00  9.000E+00
#rwgt            1           1   2.4594721931291752E-002          10      133505           0
</event>
<event>
      5   9999  3.19816E-02  1.87857E+02 -1.00000E+00  1.12647E-01
      21    -1     0     0   502   501  0.000000000E+00  0.000000000E+00  1.047114494E+03  1.047114494E+03  0.000000000E+00  0.00000E+00  9.000E+00
       1    -1     0     0   501     0  0.000000000E+00  0.000000000E+00 -1.730954177E+03  1.730954177E+03  0.000000000E+00  0.00000E+00  9.000E+00
      25     1     1     2     0     0  4.135555558E+00  3.634542902E+01  7.013390498E+01  1.479251759E+02  1.250000000E+02  0.00000E+00  9.000E+00
      25     1     1     2     0     0 -1.610642424E+02 -1.396108230E+02  9.164561318E+02  9.491837091E+02  1.250000000E+02  0.00000E+00  9.000E+00
       1     1     1     2   502     0  1.569286869E+02  1.032653940E+02 -1.670429720E+03  1.680959786E+03  2.157918644E-05  0.00000E+00  9.000E+00
#rwgt            1           1   2.5114758297120530E-002          10      133552           0
</event>
<event>
      5   9999  3.19816E-02  3.47040E+01 -1.00000E+00  1.48772E-01
      21    -1     0     0   502   501  0.000000000E+00  0.000000000E+00  1.011562552E+03  1.011562552E+03  0.000000000E+00  0.00000E+00  9.000E+00
      21    -1     0     0   511   502  0.000000000E+00  0.000000000E+00 -7.722537032E+01  7.722537032E+01  0.000000000E+00  0.00000E+00  9.000E+00
      25     1     1     2     0     0  3.857289010E+01 -1.181977852E+02  7.997529450E+02  8.189556504E+02  1.250000000E+02  0.00000E+00  9.000E+00
      25     1     1     2     0     0 -7.239235542E+01  1.104123231E+02  1.461272759E+02  2.332589012E+02  1.250000000E+02  0.00000E+00  9.000E+00
      21     1     1     2   511   501  3.381946532E+01  7.785462171E+00 -1.154303963E+01  3.657337036E+01  3.371747881E-07  0.00000E+00  9.000E+00
#rwgt            1           1   2.6469401303155171E-002          10      133608           0
</event>
<event>
      5   9999  3.19816E-02  1.43971E+01 -1.00000E+00  1.79079E-01
      21    -1     0     0   502   501  0.000000000E+00  0.000000000E+00  4.631111114E+02  4.631111114E+02  0.000000000E+00  0.00000E+00  9.000E+00
      21    -1     0     0   512   502  0.000000000E+00  0.000000000E+00 -2.222942187E+02  2.222942187E+02  0.000000000E+00  0.00000E+00  9.000E+00
      25     1     1     2     0     0 -1.291188586E+02 -2.585033026E+02  1.031334652E+02  3.312961647E+02  1.250000000E+02  0.00000E+00  9.000E+00
      25     1     1     2     0     0  1.163579165E+02  2.518373447E+02  1.459877758E+02  3.374887310E+02  1.250000000E+02  0.00000E+00  9.000E+00
      21     1     1     2   512   501  1.276094211E+01  6.665957881E+00 -8.304348349E+00  1.662043439E+01  0.000000000E+00  0.00000E+00  9.000E+00
#rwgt            1           1   2.7938164534877415E-002          10      133703           0
</event>
<event>
      5   9999  4.37356E-02  6.89623E+01 -1.00000E+00  1.31550E-01
      21    -1     0     0   502   501  0.000000000E+00  0.000000000E+00  8.262126132E+02  8.262126132E+02  0.000000000E+00  0.00000E+00  9.000E+00
      21    -1     0     0   501   511  0.000000000E+00  0.000000000E+00 -6.515358064E+01  6.515358064E+01  0.000000000E+00  0.00000E+00  9.000E+00
      25     1     1     2     0     0 -1.131209154E+01  1.695890434E+02  4.499794236E+02  4.969858033E+02  1.250000000E+02  0.00000E+00  9.000E+00
      25     1     1     2     0     0 -1.259428436E+01 -1.049030224E+02  2.648994926E+02  3.113840094E+02  1.250000000E+02  0.00000E+00  9.000E+00
      21     1     1     2   502   511  2.390637591E+01 -6.468602109E+01  4.618011633E+01  8.299638111E+01  1.651812370E-06  0.00000E+00  9.000E+00
#rwgt            1           1   4.2198020347872379E-002          10      133939           0
</event>
<event>
      5   9999  3.19816E-02  3.03131E+02 -1.00000E+00  1.05446E-01
      21    -1     0     0   502   501  0.000000000E+00  0.000000000E+00  1.228558773E+02  1.228558773E+02  0.000000000E+00  0.00000E+00  9.000E+00
       1    -1     0     0   501     0  0.000000000E+00  0.000000000E+00 -2.924202370E+03  2.924202370E+03  0.000000000E+00  0.00000E+00  9.000E+00
      25     1     1     2     0     0 -2.341006043E+02  2.346623665E+01 -1.815526421E+03  1.834970012E+03  1.250000000E+02  0.00000E+00  9.000E+00
      25     1     1     2     0     0  1.650017546E+02 -3.186162151E+02 -6.946254429E+02  7.917520934E+02  1.250000000E+02  0.00000E+00  9.000E+00
       1     1     1     2   502     0  6.909884969E+01  2.951499784E+02 -2.911946282E+02  4.203361420E+02  0.000000000E+00  0.00000E+00  9.000E+00
#rwgt            1           1   9.2549726099236201E-002          10      133996           0
</event>
<event>
      5   9999  3.19816E-02  2.26642E+01 -1.00000E+00  1.62009E-01
      21    -1     0     0   502   501  0.000000000E+00  0.000000000E+00  7.428434916E+02  7.428434916E+02  0.000000000E+00  0.00000E+00  9.000E+00
      21    -1     0     0   501   511  0.000000000E+00  0.000000000E+00 -2.021319919E+02  2.021319919E+02  0.000000000E+00  0.00000E+00  9.000E+00
      25     1     1     2     0     0  3.120534300E+02  6.815189429E+01  4.506863273E+02  5.663613594E+02  1.250000000E+02  0.00000E+00  9.000E+00
      25     1     1     2     0     0 -3.083499190E+02 -9.051149575E+01  8.795568564E+01  3.558555971E+02  1.250000000E+02  0.00000E+00  9.000E+00
      21     1     1     2   502   511 -3.703511062E+00  2.235960146E+01  2.069486709E+00  2.275852690E+01  2.935188354E-07  0.00000E+00  9.000E+00
#rwgt            1           1   2.6964469789555124E-002          10      134088           0
</event>
<event>
      5   9999  3.19816E-02  2.21871E+02 -1.00000E+00  1.10032E-01
      21    -1     0     0   502   512  0.000000000E+00  0.000000000E+00  2.325681768E+03  2.325681768E+03  0.000000000E+00  0.00000E+00  9.000E+00
      21    -1     0     0   501   502  0.000000000E+00  0.000000000E+00 -3.438060957E+02  3.438060957E+02  0.000000000E+00  0.00000E+00  9.000E+00
      25     1     1     2     0     0  2.770866096E+02  4.108404925E+02 -4.198520308E+01  5.127910459E+02  1.250000000E+02  0.00000E+00  9.000E+00
      25     1     1     2     0     0 -4.020991787E+02 -2.275408686E+02  1.685021649E+03  1.751679638E+03  1.250000000E+02  0.00000E+00  9.000E+00
      21     1     1     2   501   512  1.250125691E+02 -1.832996239E+02  3.388392262E+02  4.050171796E+02  3.814697266E-06  0.00000E+00  9.000E+00
#rwgt            2          11   4.6464706483751138E-003          10      134306           0
</event>
<event>
      5   9999  3.19816E-02  6.21290E+01 -1.00000E+00  1.33899E-01
      21    -1     0     0   502   511  0.000000000E+00  0.000000000E+00  2.911098470E+02  2.911098470E+02  0.000000000E+00  0.00000E+00  9.000E+00
      21    -1     0     0   501   502  0.000000000E+00  0.000000000E+00 -2.697533024E+02  2.697533024E+02  0.000000000E+00  0.00000E+00  9.000E+00
      25     1     1     2     0     0  5.463352631E+00  1.976907284E+02 -9.624197757E-01  2.339602500E+02  1.250000000E+02  0.00000E+00  9.000E+00
      25     1     1     2     0     0  5.027123645E+01 -2.251437097E+02  5.079772557E+00  2.624265446E+02  1.250000000E+02  0.00000E+00  9.000E+00
      21     1     1     2   501   511 -5.573458908E+01  2.745298129E+01  1.723919174E+01  6.447635484E+01  5.840038640E-07  0.00000E+00  9.000E+00
#rwgt            1           1   2.5274822008827379E-002          10      134341           0
</event>
<event>
      5   9999  3.19816E-02  4.36587E+01 -1.00000E+00  1.42522E-01
      21    -1     0     0   502   501  0.000000000E+00  0.000000000E+00  2.718988001E+01  2.718988001E+01  0.000000000E+00  0.00000E+00  9.000E+00
       2    -1     0     0   501     0  0.000000000E+00  0.000000000E+00 -3.453065375E+03  3.453065375E+03  0.000000000E+00  0.00000E+00  9.000E+00
      25     1     1     2     0     0 -6.611847250E+01  1.732839520E+02 -5.493539433E+02  5.931388837E+02  1.250000000E+02  0.00000E+00  9.000E+00
      25     1     1     2     0     0  2.574684941E+01 -1.566642528E+02 -2.237905466E+03  2.247009671E+03  1.250000000E+02  0.00000E+00  9.000E+00
       2     1     1     2   502     0  4.037162310E+01 -1.661969914E+01 -6.386160862E+02  6.401067004E+02  7.629394531E-06  0.00000E+00  9.000E+00
#rwgt            1           1   3.9531069913084693E-002          10      134447           0
</event>
<event>
      5   9999  3.19816E-02  1.05881E+02 -1.00000E+00  1.22722E-01
      21    -1     0     0   502   501  0.000000000E+00  0.000000000E+00  4.582697984E+02  4.582697984E+02  0.000000000E+00  0.00000E+00  9.000E+00
      21    -1     0     0   511   502  0.000000000E+00  0.000000000E+00 -1.130933824E+02  1.130933824E+02  0.000000000E+00  0.00000E+00  9.000E+00
      25     1     1     2     0     0 -1.203022278E+02  4.797512501E+01  6.807845251E+01  1.924419765E+02  1.250000000E+02  0.00000E+00  9.000E+00
      25     1     1     2     0     0  2.027932547E+01 -1.324381427E+01  2.303117206E+02  2.631637101E+02  1.250000000E+02  0.00000E+00  9.000E+00
      21     1     1     2   511   501  1.000229023E+02 -3.473131074E+01  4.678624292E+01  1.157574942E+02  2.132480600E-06  0.00000E+00  9.000E+00
#rwgt            1           1   2.4753040620595381E-002          10      134533           0
</event>
<event>
      5   9999  3.19816E-02  1.91518E+01 -1.00000E+00  1.67937E-01
      21    -1     0     0   502   501  0.000000000E+00  0.000000000E+00  1.669087790E+03  1.669087790E+03  0.000000000E+00  0.00000E+00  9.000E+00
       2    -1     0     0   501     0  0.000000000E+00  0.000000000E+00 -8.574587862E+02  8.574587862E+02  0.000000000E+00  0.00000E+00  9.000E+00
      25     1     1     2     0     0 -3.589137998E+02 -2.281544776E+02  1.073130944E+03  1.161080791E+03  1.250000000E+02  0.00000E+00  9.000E+00
      25     1     1     2     0     0  3.673517121E+02  2.109616245E+02  4.634821915E+02  6.402287320E+02  1.250000000E+02  0.00000E+00  9.000E+00
       2     1     1     2   502     0 -8.437912307E+00  1.719285314E+01 -7.249841313E+02  7.252370531E+02  0.000000000E+00  0.00000E+00  9.000E+00
#rwgt            1           1   2.7078316514359001E-002          10      134589           0
</event>
<event>
      5   9999  3.19816E-02  3.92908E+01 -1.00000E+00  1.45324E-01
      21    -1     0     0   502   501  0.000000000E+00  0.000000000E+00  5.245523905E+02  5.245523905E+02  0.000000000E+00  0.00000E+00  9.000E+00
      21    -1     0     0   501   511  0.000000000E+00  0.000000000E+00 -1.309699252E+02  1.309699252E+02  0.000000000E+00  0.00000E+00  9.000E+00
      25     1     1     2     0     0 -9.048212615E+01  5.376533817E+01  1.223174160E+02  2.041182917E+02  1.250000000E+02  0.00000E+00  9.000E+00
      25     1     1     2     0     0  1.142536960E+02 -2.248152888E+01  3.352795091E+02  3.762933369E+02  1.250000000E+02  0.00000E+00  9.000E+00
      21     1     1     2   502   511 -2.377156987E+01 -3.128380930E+01 -6.401445973E+01  7.511068708E+01  9.536743164E-07  0.00000E+00  9.000E+00
#rwgt            2          11   1.4015500010870624E-003          10      134971           0
</event>
<event>
      5   9999  3.19816E-02  2.68616E+01 -1.00000E+00  1.56449E-01
      21    -1     0     0   502   512  0.000000000E+00  0.000000000E+00  8.688380304E+02  8.688380304E+02  0.000000000E+00  0.00000E+00  9.000E+00
      21    -1     0     0   501   502  0.000000000E+00  0.000000000E+00 -2.393552498E+02  2.393552498E+02  0.000000000E+00  0.00000E+00  9.000E+00
      25     1     1     2     0     0 -1.255864610E+02 -2.413766729E+02  3.683263372E+02  4.746829975E+02  1.250000000E+02  0.00000E+00  9.000E+00
      25     1     1     2     0     0  1.467086194E+02  2.247814689E+02 -6.755065707E+01  3.037074563E+02  1.250000000E+02  0.00000E+00  9.000E+00
      21     1     1     2   501   512 -2.112215831E+01  1.659520397E+01  3.287071006E+02  3.298028264E+02  5.394796609E-06  0.00000E+00  9.000E+00
#rwgt            1           1   2.7100048037714090E-002          10      134991           0
</event>
<event>
      5   9999  3.19816E-02  3.79586E+01 -1.00000E+00  1.46265E-01
      21    -1     0     0   502   501  0.000000000E+00  0.000000000E+00  8.532701498E+02  8.532701498E+02  0.000000000E+00  0.00000E+00  9.000E+00
      21    -1     0     0   501   511  0.000000000E+00  0.000000000E+00 -4.955362582E+02  4.955362582E+02  0.000000000E+00  0.00000E+00  9.000E+00
      25     1     1     2     0     0 -2.543157537E+02 -3.319439407E+02  3.016514064E+02  5.305486343E+02  1.250000000E+02  0.00000E+00  9.000E+00
      25     1     1     2     0     0  2.289667118E+02  3.601978417E+02  3.223648716E+02  5.492834885E+02  1.250000000E+02  0.00000E+00  9.000E+00
      21     1     1     2   502   511  2.534904194E+01 -2.825390097E+01 -2.662823864E+02  2.689742853E+02  5.394796609E-06  0.00000E+00  9.000E+00
#rwgt            1           1   3.2278997876009768E-002          10      135177           0
</event>
<event>
      5   9999  3.19816E-02  2.94275E+01 -1.00000E+00  1.53623E-01
      21    -1     0     0   502   512  0.000000000E+00  0.000000000E+00  6.561999957E+02  6.561999957E+02  0.000000000E+00  0.00000E+00  9.000E+00
      21    -1     0     0   501   502  0.000000000E+00  0.000000000E+00 -1.135869821E+03  1.135869821E+03  0.000000000E+00  0.00000E+00  9.000E+00
      25     1     1     2     0     0  7.041599410E+01  8.233822713E+02 -5.028408000E+01  8.372993883E+02  1.250000000E+02  0.00000E+00  9.000E+00
      25     1     1     2     0     0 -6.878927179E+01 -7.939997488E+02 -4.451510725E+02  9.213859357E+02  1.250000000E+02  0.00000E+00  9.000E+00
      21     1     1     2   501   512 -1.626722313E+00 -2.938252248E+01  1.576532687E+01  3.338449317E+01  3.371747881E-07  0.00000E+00  9.000E+00
#rwgt            1           1   3.4550545033752190E-002          10      135307           0
</event>
<event>
      5   9999  3.19816E-02  3.86854E+01 -1.00000E+00  1.45746E-01
      21    -1     0     0   511   501  0.000000000E+00  0.000000000E+00  3.809187165E+02  3.809187165E+02  0.000000000E+00  0.00000E+00  9.000E+00
      21    -1     0     0   501   502  0.000000000E+00  0.000000000E+00 -5.227819197E+02  5.227819197E+02  0.000000000E+00  0.00000E+00  9.000E+00
      25     1     1     2     0     0 -4.912628767E+00  1.293246671E+02  3.202043592E+02  3.672939355E+02  1.250000000E+02  0.00000E+00  9.000E+00
      25     1     1     2     0     0 -2.885937602E+01 -1.104563166E+02 -4.676247017E+02  4.973241630E+02  1.250000000E+02  0.00000E+00  9.000E+00
      21     1     1     2   511   502  3.377200479E+01 -1.886835049E+01  5.557139182E+00  3.908253771E+01  6.194296387E-07  0.00000E+00  9.000E+00
#rwgt            1           1   3.0094639386985322E-002          10      135459           0
</event>
<event>
      5   9999  3.19816E-02  4.64195E+02 -1.00000E+00  9.97775E-02
      21    -1     0     0   502   501  0.000000000E+00  0.000000000E+00  2.127344490E+02  2.127344490E+02  0.000000000E+00  0.00000E+00  9.000E+00
      21    -1     0     0   512   502  0.000000000E+00  0.000000000E+00 -1.638869396E+03  1.638869396E+03  0.000000000E+00  0.00000E+00  9.000E+00
      25     1     1     2     0     0 -3.189402722E+02  5.932023163E+01 -3.523156315E+02  4.949677679E+02  1.250000000E+02  0.00000E+00  9.000E+00
      25     1     1     2     0     0 -1.238494617E+02 -1.986545813E+02 -1.108077047E+02  2.875859511E+02  1.250000000E+02  0.00000E+00  9.000E+00
      21     1     1     2   512   501  4.427897339E+02  1.393343496E+02 -9.630116105E+02  1.069050126E+03  1.078959322E-05  0.00000E+00  9.000E+00
#rwgt            2          11   2.1282591232092115E-003          10      135672           0
</event>
<event>
      5   9999  3.19816E-02  2.32814E+01 -1.00000E+00  1.61103E-01
       2    -1     0     0   502     0  0.000000000E+00  0.000000000E+00  7.710885305E+02  7.710885305E+02  0.000000000E+00  0.00000E+00  9.000E+00
      21    -1     0     0   501   502  0.000000000E+00  0.000000000E+00 -3.520671802E+02  3.520671802E+02  0.000000000E+00  0.00000E+00  9.000E+00
      25     1     1     2     0     0  2.427870059E+02  5.172669057E+01 -2.564408894E+02  3.781641317E+02  1.250000000E+02  0.00000E+00  9.000E+00
      25     1     1     2     0     0 -2.523767398E+02 -7.294126800E+01  6.216188747E+02  6.863304399E+02  1.250000000E+02  0.00000E+00  9.000E+00
       2     1     1     2   501     0  9.589733882E+00  2.121457743E+01  5.384336497E+01  5.866113912E+01  0.000000000E+00  0.00000E+00  9.000E+00
#rwgt            1           1   2.7715682659549639E-002          10      135692           0
</event>
<event>
      5   9999  3.19816E-02  3.15875E+01 -1.00000E+00  1.51501E-01
      21    -1     0     0   502   501  0.000000000E+00  0.000000000E+00  5.370547495E+02  5.370547495E+02  0.000000000E+00  0.00000E+00  9.000E+00
       1    -1     0     0   501     0  0.000000000E+00  0.000000000E+00 -3.183809885E+02  3.183809885E+02  0.000000000E+00  0.00000E+00  9.000E+00
      25     1     1     2     0     0 -1.896558105E+01  1.120729577E+02  4.201300195E+02  4.528291890E+02  1.250000000E+02  0.00000E+00  9.000E+00
      25     1     1     2     0     0 -3.846786969E+00 -1.339216280E+02  1.500973860E+01  1.838480146E+02  1.250000000E+02  0.00000E+00  9.000E+00
       1     1     1     2   502     0  2.281236802E+01  2.184867030E+01 -2.164659971E+02  2.187585345E+02  2.697398305E-06  0.00000E+00  9.000E+00
#rwgt            1           1   2.7188595633438336E-002          10      135841           0
</event>
<event>
      5   9999  3.19816E-02  1.43686E+02 -1.00000E+00  1.17139E-01
      -1    -1     0     0     0   501  0.000000000E+00  0.000000000E+00  9.315351083E+01  9.315351083E+01  0.000000000E+00  0.00000E+00  9.000E+00
      21    -1     0     0   501   502  0.000000000E+00  0.000000000E+00 -1.358220237E+03  1.358220237E+03  0.000000000E+00  0.00000E+00  9.000E+00
      25     1     1     2     0     0 -2.053357146E+02  1.810700234E+02 -9.106403402E+02  9.590828631E+02  1.250000000E+02  0.00000E+00  9.000E+00
      25     1     1     2     0     0  1.003819487E+02 -8.293566021E+01 -2.725935630E+02  3.269359417E+02  1.250000000E+02  0.00000E+00  9.000E+00
      -1     1     1     2     0   502  1.049537659E+02 -9.813436322E+01 -8.183282256E+01  1.653549427E+02  2.132480600E-06  0.00000E+00  9.000E+00
#rwgt            1           1   2.8253588264790776E-002          10      135977           0
</event>
<event>
      5   9999  3.19816E-02  3.66753E+01 -1.00000E+00  1.47217E-01
      21    -1     0     0   511   501  0.000000000E+00  0.000000000E+00  3.725947572E+02  3.725947572E+02  0.000000000E+00  0.00000E+00  9.000E+00
      21    -1     0     0   501   502  0.000000000E+00  0.000000000E+00 -2.499887360E+02  2.499887360E+02  0.000000000E+00  0.00000E+00  9.000E+00
      25     1     1     2     0     0  8.686169280E+01  9.043398069E+01 -1.735545953E+02  2.479303452E+02  1.250000000E+02  0.00000E+00  9.000E+00
      25     1     1     2     0     0 -1.223253032E+02 -8.108481230E+01  2.474448266E+02  3.136752601E+02  1.250000000E+02  0.00000E+00  9.000E+00
      21     1     1     2   511   502  3.546361043E+01 -9.349168394E+00  4.871578996E+01  6.097788784E+01  0.000000000E+00  0.00000E+00  9.000E+00
#rwgt            1           1   2.9019061180120445E-002          10      136038           0
</event>
<event>
      5   9999  3.19816E-02  2.14235E+02 -1.00000E+00  1.10572E-01
      21    -1     0     0   502   501  0.000000000E+00  0.000000000E+00  4.979784478E+02  4.979784478E+02  0.000000000E+00  0.00000E+00  9.000E+00
      21    -1     0     0   512   502  0.000000000E+00  0.000000000E+00 -4.513106553E+02  4.513106553E+02  0.000000000E+00  0.00000E+00  9.000E+00
      25     1     1     2     0     0  7.911853573E+01 -2.117031003E+01  1.504682137E+02  2.120698188E+02  1.250000000E+02  0.00000E+00  9.000E+00
      25     1     1     2     0     0  4.626909022E+01  1.948780966E+02  2.370917510E+02  3.345979672E+02  1.250000000E+02  0.00000E+00  9.000E+00
      21     1     1     2   512   501 -1.253876259E+02 -1.737077866E+02 -3.408921722E+02  4.026213170E+02  5.394796609E-06  0.00000E+00  9.000E+00
#rwgt            1           1   1.8641298688669341E-002          10      136110           0
</event>
<event>
      5   9999  3.19816E-02  8.63614E+01 -1.00000E+00  1.26761E-01
      21    -1     0     0   502   511  0.000000000E+00  0.000000000E+00  8.074003211E+02  8.074003211E+02  0.000000000E+00  0.00000E+00  9.000E+00
      21    -1     0     0   501   502  0.000000000E+00  0.000000000E+00 -1.711971335E+03  1.711971335E+03  0.000000000E+00  0.00000E+00  9.000E+00
      25     1     1     2     0     0  2.309500746E+02 -3.234744752E+02 -1.576119408E+03  1.630261041E+03  1.250000000E+02  0.00000E+00  9.000E+00
      25     1     1     2     0     0 -2.716148513E+02  2.472861271E+02  2.563913560E+02  4.650662142E+02  1.250000000E+02  0.00000E+00  9.000E+00
      21     1     1     2   501   511  4.066477671E+01  7.618834808E+01  4.151570376E+02  4.240444014E+02  5.394796609E-06  0.00000E+00  9.000E+00
#rwgt            1           1   3.2043338060964051E-002          10      136150           0
</event>
<event>
      5   9999  3.22406E-02  1.00427E+02 -1.00000E+00  1.23745E-01
      21    -1     0     0   512   501  0.000000000E+00  0.000000000E+00  5.116819098E+02  5.116819098E+02  0.000000000E+00  0.00000E+00  9.000E+00
      21    -1     0     0   501   502  0.000000000E+00  0.000000000E+00 -9.879455132E+02  9.879455132E+02  0.000000000E+00  0.00000E+00  9.000E+00
      25     1     1     2     0     0 -5.729051387E+02  1.560177003E+02 -1.088786428E+02  6.164749627E+02  1.250000000E+02  0.00000E+00  9.000E+00
      25     1     1     2     0     0  5.959321527E+02 -2.537686446E+02 -4.070863210E+02  7.751631624E+02  1.250000000E+02  0.00000E+00  9.000E+00
      21     1     1     2   512   502 -2.302701395E+01  9.775094422E+01  3.970136037E+01  1.079892980E+02  9.536743164E-07  0.00000E+00  9.000E+00
#rwgt            1           1   3.3859094592342202E-002          10      136265           0
</event>
<event>
      5   9999  3.19816E-02  6.17630E+02 -1.00000E+00  9.63133E-02
      21    -1     0     0   502   501  0.000000000E+00  0.000000000E+00  5.553352401E+02  5.553352401E+02  0.000000000E+00  0.00000E+00  9.000E+00
       1    -1     0     0   501     0  0.000000000E+00  0.000000000E+00 -2.550866139E+03  2.550866139E+03  0.000000000E+00  0.00000E+00  9.000E+00
      25     1     1     2     0     0  2.679773568E+02 -3.410725671E+02 -1.531525710E+03  1.596664762E+03  1.250000000E+02  0.00000E+00  9.000E+00
      25     1     1     2     0     0  3.200992738E+02  5.298395656E+02 -6.065982801E+02  8.756597420E+02  1.250000000E+02  0.00000E+00  9.000E+00
       1     1     1     2   502     0 -5.880766306E+02 -1.887669985E+02  1.425930917E+02  6.338768753E+02  3.814697266E-06  0.00000E+00  9.000E+00
#rwgt            2          12   2.0839473448361676E-004          10      136359           0
</event>
<event>
      5   9999  3.19816E-02  3.05080E+01 -1.00000E+00  1.52535E-01
      21    -1     0     0   502   501  0.000000000E+00  0.000000000E+00  1.552256299E+03  1.552256299E+03  0.000000000E+00  0.00000E+00  9.000E+00
      21    -1     0     0   511   502  0.000000000E+00  0.000000000E+00 -2.147375981E+02  2.147375981E+02  0.000000000E+00  0.00000E+00  9.000E+00
      25     1     1     2     0     0  4.598398750E+02 -8.207192810E+01  7.799878366E+02  9.177115763E+02  1.250000000E+02  0.00000E+00  9.000E+00
      25     1     1     2     0     0 -4.796072019E+02  5.883425729E+01  6.102562322E+02  7.883667972E+02  1.250000000E+02  0.00000E+00  9.000E+00
      21     1     1     2   511   501  1.976732691E+01  2.323767081E+01 -5.272536810E+01  6.091552346E+01  2.132480600E-06  0.00000E+00  9.000E+00
#rwgt            1           1   2.6726072811533524E-002          10      136408           0
</event>
<event>
      5   9999  3.19816E-02  1.61322E+02 -1.00000E+00  1.15155E-01
      21    -1     0     0   512   501  0.000000000E+00  0.000000000E+00  4.486232149E+02  4.486232149E+02  0.000000000E+00  0.00000E+00  9.000E+00
      21    -1     0     0   501   502  0.000000000E+00  0.000000000E+00 -2.105284194E+02  2.105284194E+02  0.000000000E+00  0.00000E+00  9.000E+00
      25     1     1     2     0     0  1.394287686E+02  6.258931067E+01  6.379987320E+01  2.074927159E+02  1.250000000E+02  0.00000E+00  9.000E+00
      25     1     1     2     0     0 -7.332826415E+01 -2.097471078E+02  9.695911871E+01  2.727580507E+02  1.250000000E+02  0.00000E+00  9.000E+00
      21     1     1     2   512   502 -6.610050448E+01  1.471577971E+02  7.733580358E+01  1.789008677E+02  1.348699152E-06  0.00000E+00  9.000E+00
#rwgt            1           1   2.6379730163235700E-002          10      136591           0
</event>
<event>
      5   9999  3.19816E-02  1.08341E+01 -1.00000E+00  1.91819E-01
      21    -1     0     0   502   501  0.000000000E+00  0.000000000E+00  3.891400351E+02  3.891400351E+02  0.000000000E+00  0.00000E+00  9.000E+00
      -4    -1     0     0     0   502  0.000000000E+00  0.000000000E+00 -3.135718079E+02  3.135718079E+02  0.000000000E+00  0.00000E+00  9.000E+00
      25     1     1     2     0     0  1.000819374E+02 -5.733478233E+01  3.109743958E+02  3.544485100E+02  1.250000000E+02  0.00000E+00  9.000E+00
      25     1     1     2     0     0 -1.105256153E+02  5.445236827E+01 -8.070276215E+01  1.931810236E+02  1.250000000E+02  0.00000E+00  9.000E+00
      -4     1     1     2     0   501  1.044367794E+01  2.882414066E+00 -1.547034064E+02  1.550823093E+02  2.697398305E-06  0.00000E+00  9.000E+00
#rwgt            1           1   2.7153796364351352E-002          10      136663           0
</event>
<event>
      5   9999  3.19816E-02  4.38384E+02 -1.00000E+00  1.00502E-01
      21    -1     0     0   502   501  0.000000000E+00  0.000000000E+00  6.792827865E+02  6.792827865E+02  0.000000000E+00  0.00000E+00  9.000E+00
      -4    -1     0     0     0   502  0.000000000E+00  0.000000000E+00 -4.374171192E+02  4.374171192E+02  0.000000000E+00  0.00000E+00  9.000E+00
      25     1     1     2     0     0 -2.442674232E+01 -8.242383328E+01  6.902125701E+01  1.666711971E+02  1.250000000E+02  0.00000E+00  9.000E+00
      25     1     1     2     0     0  4.623189280E+02  1.031906755E+02  1.442832931E+02  5.107149649E+02  1.250000000E+02  0.00000E+00  9.000E+00
      -4     1     1     2     0   501 -4.378921857E+02 -2.076684222E+01  2.856111721E+01  4.393137437E+02  7.993247325E-06  0.00000E+00  9.000E+00
#rwgt            2           7   3.1250043111564104E-005          10      137013           0
</event>
<event>
      5   9999  3.19816E-02  6.61004E+01 -1.00000E+00  1.32494E-01
      21    -1     0     0   502   501  0.000000000E+00  0.000000000E+00  9.076612117E+02  9.076612117E+02  0.000000000E+00  0.00000E+00  9.000E+00
      21    -1     0     0   511   502  0.000000000E+00  0.000000000E+00 -3.602740370E+02  3.602740370E+02  0.000000000E+00  0.00000E+00  9.000E+00
      25     1     1     2     0     0  4.515453142E+01  3.815442163E+01  3.585238375E+02  3.842642758E+02  1.250000000E+02  0.00000E+00  9.000E+00
      25     1     1     2     0     0  6.116194867E+00  3.565734077E+00  5.257034078E+02  5.404065092E+02  1.250000000E+02  0.00000E+00  9.000E+00
      21     1     1     2   511   501 -5.127072628E+01 -4.172015571E+01 -3.368400707E+02  3.432644636E+02  6.607249480E-06  0.00000E+00  9.000E+00
#rwgt            1           1   4.1871813443713985E-003          10      137062           0
</event>
<event>
      5   9999  3.19816E-02  7.85879E+01 -1.00000E+00  1.28725E-01
      21    -1     0     0   502   501  0.000000000E+00  0.000000000E+00  2.157088521E+03  2.157088521E+03  0.000000000E+00  0.00000E+00  9.000E+00
      21    -1     0     0   501   512  0.000000000E+00  0.000000000E+00 -9.739010148E+02  9.739010148E+02  0.000000000E+00  0.00000E+00  9.000E+00
      25     1     1     2     0     0 -4.921506336E+02 -1.286202128E+03  2.865023451E+02  1.412174477E+03  1.250000000E+02  0.00000E+00  9.000E+00
      25     1     1     2     0     0  4.182124552E+02  1.312833059E+03  8.761499806E+02  1.637588497E+03  1.250000000E+02  0.00000E+00  9.000E+00
      21     1     1     2   502   512  7.393817843E+01 -2.663093054E+01  2.053518080E+01  8.122656179E+01  7.539457465E-07  0.00000E+00  9.000E+00
#rwgt            1           1   4.9839426649151114E-002          10      137125           0
</event>
<event>
      5   9999  3.19816E-02  1.84020E+02 -1.00000E+00  1.12981E-01
      21    -1     0     0   511   501  0.000000000E+00  0.000000000E+00  3.433321525E+02  3.433321525E+02  0.000000000E+00  0.00000E+00  9.000E+00
      21    -1     0     0   501   502  0.000000000E+00  0.000000000E+00 -2.337448786E+02  2.337448786E+02  0.000000000E+00  0.00000E+00  9.000E+00
      25     1     1     2     0     0 -1.517811436E+02 -3.247934655E+01 -6.328469218E+01  2.090989617E+02  1.250000000E+02  0.00000E+00  9.000E+00
      25     1     1     2     0     0 -5.358761796E+00 -6.328244395E+01  6.358634001E+01  1.539532613E+02  1.250000000E+02  0.00000E+00  9.000E+00
      21     1     1     2   511   502  1.571399054E+02  9.576179050E+01  1.092856261E+02  2.140248081E+02  1.907348633E-06  0.00000E+00  9.000E+00
#rwgt            1           1   7.8239509667028528E-002          10      137256           0
</event>
<event>
      5   9999  3.19816E-02  8.59684E+01 -1.00000E+00  1.26855E-01
      21    -1     0     0   502   501  0.000000000E+00  0.000000000E+00  8.577149351E+02  8.577149351E+02  0.000000000E+00  0.00000E+00  9.000E+00
      -4    -1     0     0     0   502  0.000000000E+00  0.000000000E+00 -4.958587686E+02  4.958587686E+02  0.000000000E+00  0.00000E+00  9.000E+00
      25     1     1     2     0     0  2.645634663E+02 -1.340264869E+02  5.282988189E+02  6.186126163E+02  1.250000000E+02  0.00000E+00  9.000E+00
      25     1     1     2     0     0 -3.339274937E+02  1.848122367E+02  1.332863356E+02  4.231469971E+02  1.250000000E+02  0.00000E+00  9.000E+00
      -4     1     1     2     0   501  6.936402738E+01 -5.078574971E+01 -2.997289881E+02  3.118140904E+02  3.814697266E-06  0.00000E+00  9.000E+00
#rwgt            1           1   3.0945309135450433E-002          10      137303           0
</event>
<event>
      5   9999  3.19816E-02  1.08621E+01 -1.00000E+00  1.91695E-01
      21    -1     0     0   502   501  0.000000000E+00  0.000000000E+00  1.903562861E+02  1.903562861E+02  0.000000000E+00  0.00000E+00  9.000E+00
       2    -1     0     0   501     0  0.000000000E+00  0.000000000E+00 -4.336707867E+02  4.336707867E+02  0.000000000E+00  0.00000E+00  9.000E+00
      25     1     1     2     0     0  8.809609178E+01  5.587674762E+01 -2.288185533E+02  2.808310215E+02  1.250000000E+02  0.00000E+00  9.000E+00
      25     1     1     2     0     0 -9.734944176E+01 -6.156543789E+01  1.201235166E+02  2.081390790E+02  1.250000000E+02  0.00000E+00  9.000E+00
       2     1     1     2   502     0  9.253349984E+00  5.688690277E+00 -1.346194639E+02  1.350569723E+02  0.000000000E+00  0.00000E+00  9.000E+00
#rwgt            1           1   3.0148776492552272E-002          10      137374           0
</event>
<event>
      5   9999  3.19816E-02  1.66851E+01 -1.00000E+00  1.73136E-01
       1    -1     0     0   502     0  0.000000000E+00  0.000000000E+00  7.131626507E+01  7.131626507E+01  0.000000000E+00  0.00000E+00  9.000E+00
      21    -1     0     0   501   502  0.000000000E+00  0.000000000E+00 -1.601934523E+03  1.601934523E+03  0.000000000E+00  0.00000E+00  9.000E+00
      25     1     1     2     0     0  2.250573010E+02 -2.665974278E+01 -3.088475131E+02  4.029557259E+02  1.250000000E+02  0.00000E+00  9.000E+00
      25     1     1     2     0     0 -2.085687543E+02  2.921345886E+01 -1.228225748E+03  1.252404822E+03  1.250000000E+02  0.00000E+00  9.000E+00
       1     1     1     2   501     0 -1.648854676E+01 -2.553716078E+00  6.455002565E+00  1.789024031E+01  2.920019320E-07  0.00000E+00  9.000E+00
#rwgt            1           1   2.9452422796130043E-002          10      137624           0
</event>
<event>
      5   9999  3.19816E-02  3.18101E+01 -1.00000E+00  1.51293E-01
      21    -1     0     0   502   511  0.000000000E+00  0.000000000E+00  1.110516020E+03  1.110516020E+03  0.000000000E+00  0.00000E+00  9.000E+00
      21    -1     0     0   501   502  0.000000000E+00  0.000000000E+00 -2.445200711E+02  2.445200711E+02  0.000000000E+00  0.00000E+00  9.000E+00
      25     1     1     2     0     0  1.187071539E+02 -4.231085199E+02  3.561710694E+02  5.793056522E+02  1.250000000E+02  0.00000E+00  9.000E+00
      25     1     1     2     0     0 -1.478623623E+02  4.103861571E+02  2.581633391E+02  5.220664572E+02  1.250000000E+02  0.00000E+00  9.000E+00
      21     1     1     2   501   511  2.915520833E+01  1.272236280E+01  2.516615408E+02  2.536639821E+02  2.697398305E-06  0.00000E+00  9.000E+00
#rwgt            1           1   2.8736727646432102E-002          10      137800           0
</event>
<event>
      5   9999  3.19816E-02  7.19759E+01 -1.00000E+00  1.30611E-01
      21    -1     0     0   502   501  0.000000000E+00  0.000000000E+00  1.312193864E+02  1.312193864E+02  0.000000000E+00  0.00000E+00  9.000E+00
      21    -1     0     0   512   502  0.000000000E+00  0.000000000E+00 -1.898375787E+03  1.898375787E+03  0.000000000E+00  0.00000E+00  9.000E+00
      25     1     1     2     0     0  2.638443230E+02 -1.681547491E+02 -8.625211536E+02  9.259900577E+02  1.250000000E+02  0.00000E+00  9.000E+00
      25     1     1     2     0     0 -2.018394769E+02  1.316043387E+02 -9.026787322E+01  2.860632191E+02  1.250000000E+02  0.00000E+00  9.000E+00
      21     1     1     2   512   501 -6.200484610E+01  3.655041034E+01 -8.143673734E+02  8.175418964E+02  1.078959322E-05  0.00000E+00  9.000E+00
#rwgt            2          11   9.8872474285746962E-004          10      137926           0
</event>
<event>
      5   9999  3.19816E-02  6.89237E+01 -1.00000E+00  1.31562E-01
      21    -1     0     0   502   501  0.000000000E+00  0.000000000E+00  2.933210161E+03  2.933210161E+03  0.000000000E+00  0.00000E+00  9.000E+00
      21    -1     0     0   511   502  0.000000000E+00  0.000000000E+00 -4.624855792E+01  4.624855792E+01  0.000000000E+00  0.00000E+00  9.000E+00
      25     1     1     2     0     0  2.113638219E+01  3.208903262E+02  1.562623421E+03  1.600260699E+03  1.250000000E+02  0.00000E+00  9.000E+00
      25     1     1     2     0     0  2.269147502E+01 -2.676964486E+02  1.209469299E+03  1.245237840E+03  1.250000000E+02  0.00000E+00  9.000E+00
      21     1     1     2   511   501 -4.382785721E+01 -5.319387766E+01  1.148688823E+02  1.339601800E+02  3.015782986E-06  0.00000E+00  9.000E+00
#rwgt            1           1   4.3543759780157329E-002          10      137946           0
</event>
<event>
      5   9999  3.19816E-02  1.35362E+01 -1.00000E+00  1.81690E-01
      21    -1     0     0   502   501  0.000000000E+00  0.000000000E+00  2.689340920E+02  2.689340920E+02  0.000000000E+00  0.00000E+00  9.000E+00
      21    -1     0     0   501   512  0.000000000E+00  0.000000000E+00 -1.565990794E+02  1.565990794E+02  0.000000000E+00  0.00000E+00  9.000E+00
      25     1     1     2     0     0  2.502889579E+01  1.347460994E+02  1.607451671E+01  1.861890088E+02  1.250000000E+02  0.00000E+00  9.000E+00
      25     1     1     2     0     0 -1.419210048E+01 -1.266348306E+02  1.178258861E+02  2.138825273E+02  1.250000000E+02  0.00000E+00  9.000E+00
      21     1     1     2   502   512 -1.083679531E+01 -8.111268757E+00 -2.156539021E+01  2.546163523E+01  2.384185791E-07  0.00000E+00  9.000E+00
#rwgt            1           1   2.3820430170111855E-002          10      138039           0
</event>
<event>
      5   9999  3.19816E-02  2.70681E+01 -1.00000E+00  1.56208E-01
      21    -1     0     0   502   501  0.000000000E+00  0.000000000E+00  7.964353242E+02  7.964353242E+02  0.000000000E+00  0.00000E+00  9.000E+00
      21    -1     0     0   501   511  0.000000000E+00  0.000000000E+00 -9.613517923E+01  9.613517923E+01  0.000000000E+00  0.00000E+00  9.000E+00
      25     1     1     2     0     0  1.531307873E+02  1.089949625E+02  5.800411250E+02  6.224159755E+02  1.250000000E+02  0.00000E+00  9.000E+00
      25     1     1     2     0     0 -1.543253567E+02 -8.195325123E+01  1.066855095E+02  2.398738190E+02  1.250000000E+02  0.00000E+00  9.000E+00
      21     1     1     2   502   511  1.194569319E+00 -2.704171131E+01  1.357351048E+01  3.028070893E+01  3.769728732E-07  0.00000E+00  9.000E+00
#rwgt            1           1   2.7513040794266978E-002          10      138190           0
</event>
<event>
      5   9999  3.19816E-02  3.00854E+01 -1.00000E+00  1.52954E-01
       2    -1     0     0   502     0  0.000000000E+00  0.000000000E+00  3.181690037E+03  3.181690037E+03  0.000000000E+00  0.00000E+00  9.000E+00
      21    -1     0     0   501   502  0.000000000E+00  0.000000000E+00 -3.445060170E+02  3.445060170E+02  0.000000000E+00  0.00000E+00  9.000E+00
      25     1     1     2     0     0 -5.395406617E+01  4.898955078E+02  6.063467881E+01  5.120646581E+02  1.250000000E+02  0.00000E+00  9.000E+00
      25     1     1     2     0     0  5.066799288E+01 -5.198009520E+02  4.887308174E+02  7.261150647E+02  1.250000000E+02  0.00000E+00  9.000E+00
       2     1     1     2   501     0  3.286073288E+00  2.990544419E+01  2.287818524E+03  2.288016332E+03  3.051757812E-05  0.00000E+00  9.000E+00
#rwgt            1           1   2.5463899336273268E-002          10      138325           0
</event>
<event>
      5   9999  3.19816E-02  3.89010E+01 -1.00000E+00  1.45595E-01
      21    -1     0     0   511   501  0.000000000E+00  0.000000000E+00  1.681891600E+03  1.681891600E+03  0.000000000E+00  0.00000E+00  9.000E+00
      21    -1     0     0   501   502  0.000000000E+00  0.000000000E+00 -3.344723920E+01  3.344723920E+01  0.000000000E+00  0.00000E+00  9.000E+00
      25     1     1     2     0     0 -1.488317866E+02  5.316482558E+01  5.189258680E+02  5.566744613E+02  1.250000000E+02  0.00000E+00  9.000E+00
      25     1     1     2     0     0  1.354157241E+02 -1.665045655E+01  6.040115685E+02  6.317195825E+02  1.250000000E+02  0.00000E+00  9.000E+00
      21     1     1     2   511   502  1.341606251E+01 -3.651436903E+01  5.255069242E+02  5.269447953E+02  7.629394531E-06  0.00000E+00  9.000E+00
#rwgt            1           1   1.6705770750465403E-002          10      138467           0
</event>
<event>
      5   9999  3.19816E-02  1.40166E+02 -1.00000E+00  1.17573E-01
      21    -1     0     0   502   501  0.000000000E+00  0.000000000E+00  2.444680810E+03  2.444680810E+03  0.000000000E+00  0.00000E+00  9.000E+00
      21    -1     0     0   501   512  0.000000000E+00  0.000000000E+00 -4.635929947E+02  4.635929947E+02  0.000000000E+00  0.00000E+00  9.000E+00
      25     1     1     2     0     0  4.270852164E+02 -5.061696954E+02 -6.778508505E+01  6.773694416E+02  1.250000000E+02  0.00000E+00  9.000E+00
      25     1     1     2     0     0 -5.284405462E+02  4.093528895E+02  1.932721524E+03  2.048867172E+03  1.250000000E+02  0.00000E+00  9.000E+00
      21     1     1     2   502   512  1.013553298E+02  9.681680587E+01  1.161513767E+02  1.820371915E+02  1.907348633E-06  0.00000E+00  9.000E+00
#rwgt            1           1   3.2491910772757530E-002          10      138563           0
</event>
<event>
      5   9999  3.19816E-02  7.71265E+01 -1.00000E+00  1.29123E-01
      21    -1     0     0   502   501  0.000000000E+00  0.000000000E+00  2.264407824E+02  2.264407824E+02  0.000000000E+00  0.00000E+00  9.000E+00
      21    -1     0     0   511   502  0.000000000E+00  0.000000000E+00 -4.980129240E+02  4.980129240E+02  0.000000000E+00  0.00000E+00  9.000E+00
      25     1     1     2     0     0 -2.317389610E+02  1.407693253E+02 -1.345041338E+02  3.274680305E+02  1.250000000E+02  0.00000E+00  9.000E+00
      25     1     1     2     0     0  1.685545067E+02 -1.849985523E+02 -5.639767355E+01  2.853783167E+02  1.250000000E+02  0.00000E+00  9.000E+00
      21     1     1     2   511   501  6.318445438E+01  4.422922701E+01 -8.067033423E+01  1.116073592E+02  1.651812370E-06  0.00000E+00  9.000E+00
#rwgt            1           1   2.6511683720711728E-002          10      138690           0
</event>
<event>
      5   9999  3.19816E-02  3.92604E+01 -1.00000E+00  1.45345E-01
      21    -1     0     0   512   501  0.000000000E+00  0.000000000E+00  7.381394111E+02  7.381394111E+02  0.000000000E+00  0.00000E+00  9.000E+00
      21    -1     0     0   501   502  0.000000000E+00  0.000000000E+00 -5.360786847E+02  5.360786847E+02  0.000000000E+00  0.00000E+00  9.000E+00
      25     1     1     2     0     0  1.549429071E+02  1.246848954E+02 -4.277945501E+02  4.880438553E+02  1.250000000E+02  0.00000E+00  9.000E+00
      25     1     1     2     0     0 -1.229613653E+02 -1.474567512E+02  9.199454743E+01  2.468825380E+02  1.250000000E+02  0.00000E+00  9.000E+00
      21     1     1     2   512   502 -3.198154189E+01  2.277185587E+01  5.378607291E+02  5.392917024E+02  7.629394531E-06  0.00000E+00  9.000E+00
#rwgt            1           1   2.7159367238738838E-002          10      138772           0
</event>
<event>
      5   9999  3.19816E-02  1.44079E+02 -1.00000E+00  1.17091E-01
      21    -1     0     0   502   511  0.000000000E+00  0.000000000E+00  8.312853819E+02  8.312853819E+02  0.000000000E+00  0.00000E+00  9.000E+00
      21    -1     0     0   501   502  0.000000000E+00  0.000000000E+00 -3.354691097E+02  3.354691097E+02  0.000000000E+00  0.00000E+00  9.000E+00
      25     1     1     2     0     0  3.042785092E+02 -1.860180801E+02  5.153929942E+02  6.390955138E+02  1.250000000E+02  0.00000E+00  9.000E+00
      25     1     1     2     0     0 -1.631079943E+02  1.572151162E+02 -1.775890827E+02  3.138211160E+02  1.250000000E+02  0.00000E+00  9.000E+00
      21     1     1     2   501   511 -1.411705149E+02  2.880296396E+01  1.580123607E+02  2.138378618E+02  3.303624740E-06  0.00000E+00  9.000E+00
#rwgt            2          11   4.3626713351395214E-003          10      139002           0
</event>
<event>
      5   9999  3.19816E-02  4.50252E+02 -1.00000E+00  1.00162E-01
       2    -1     0     0   502     0  0.000000000E+00  0.000000000E+00  1.017278164E+03  1.017278164E+03  0.000000000E+00  0.00000E+00  9.000E+00
      21    -1     0     0   501   502  0.000000000E+00  0.000000000E+00 -4.103857522E+02  4.103857522E+02  0.000000000E+00  0.00000E+00  9.000E+00
      25     1     1     2     0     0 -4.570368893E+02  9.637955307E+01  2.323826431E+02  5.364684793E+02  1.250000000E+02  0.00000E+00  9.000E+00
      25     1     1     2     0     0  7.061806394E+01 -3.274800637E+02  1.862823993E+02  4.031826328E+02  1.250000000E+02  0.00000E+00  9.000E+00
       2     1     1     2   501     0  3.864188254E+02  2.311005106E+02  1.882273696E+02  4.880128044E+02  6.031565972E-06  0.00000E+00  9.000E+00
#rwgt            2          18   5.1358709633100678E-004          10      139052           0
</event>
<event>
      5   9999  3.19816E-02  6.40737E+00 -1.00000E+00  2.21131E-01
      21    -1     0     0   502   501  0.000000000E+00  0.000000000E+00  1.330172430E+03  1.330172430E+03  0.000000000E+00  0.00000E+00  9.000E+00
       4    -1     0     0   501     0  0.000000000E+00  0.000000000E+00 -4.592809416E+02  4.592809416E+02  0.000000000E+00  0.00000E+00  9.000E+00
      25     1     1     2     0     0 -1.137137189E+02 -1.253998805E+02  1.015848852E+03  1.037414974E+03  1.250000000E+02  0.00000E+00  9.000E+00
      25     1     1     2     0     0  1.196137937E+02  1.278985699E+02  2.653868908E+02  3.416441213E+02  1.250000000E+02  0.00000E+00  9.000E+00
       4     1     1     2   502     0 -5.900074845E+00 -2.498689417E+00 -4.103442543E+02  4.103942756E+02  5.394796609E-06  0.00000E+00  9.000E+00
#rwgt            1           1   2.9094903631834059E-002          10      139086           0
</event>
<event>
      5   9999  3.19816E-02  1.36523E+02 -1.00000E+00  1.18037E-01
      21    -1     0     0   502   511  0.000000000E+00  0.000000000E+00  1.535790056E+03  1.535790056E+03  0.000000000E+00  0.00000E+00  9.000E+00
      21    -1     0     0   501   502  0.000000000E+00  0.000000000E+00 -8.308468754E+02  8.308468754E+02  0.000000000E+00  0.00000E+00  9.000E+00
      25     1     1     2     0     0  8.228547367E+02 -6.577821117E+02  2.103374830E+02  1.081496223E+03  1.250000000E+02  0.00000E+00  9.000E+00
      25     1     1     2     0     0 -7.211491753E+02  7.488570438E+02  4.100197697E+02  1.124537334E+03  1.250000000E+02  0.00000E+00  9.000E+00
      21     1     1     2   501   511 -1.017055615E+02 -9.107493205E+01  8.458592811E+01  1.606033739E+02  3.932099939E-06  0.00000E+00  9.000E+00
#rwgt            1           1   2.9358943005137132E-002          10      139371           0
</event>
<event>
      5   9999  3.19816E-02  9.22092E+01 -1.00000E+00  1.25433E-01
      21    -1     0     0   502   512  0.000000000E+00  0.000000000E+00  8.088758570E+02  8.088758570E+02  0.000000000E+00  0.00000E+00  9.000E+00
      21    -1     0     0   501   502  0.000000000E+00  0.000000000E+00 -4.209563130E+02  4.209563130E+02  0.000000000E+00  0.00000E+00  9.000E+00
      25     1     1     2     0     0  2.538547755E+02  3.531584226E+02 -9.438794829E+01  4.622739483E+02  1.250000000E+02  0.00000E+00  9.000E+00
      25     1     1     2     0     0 -3.256617982E+02 -2.953113771E+02  2.575371633E+02  5.246091943E+02  1.250000000E+02  0.00000E+00  9.000E+00
      21     1     1     2   501   512  7.180702272E+01 -5.784704551E+01  2.247703290E+02  2.429490275E+02  3.814697266E-06  0.00000E+00  9.000E+00
#rwgt            1           1   2.4520725702423779E-002          10      139482           0
</event>
<event>
      5   9999  3.19816E-02  3.32236E+02 -1.00000E+00  1.04172E-01
      21    -1     0     0   502   501  0.000000000E+00  0.000000000E+00  8.670171550E+02  8.670171550E+02  0.000000000E+00  0.00000E+00  9.000E+00
       2    -1     0     0   501     0  0.000000000E+00  0.000000000E+00 -1.291939244E+03  1.291939244E+03  0.000000000E+00  0.00000E+00  9.000E+00
      25     1     1     2     0     0  2.932803549E+02  5.793661258E+02 -4.941763473E+02  8.255384525E+02  1.250000000E+02  0.00000E+00  9.000E+00
      25     1     1     2     0     0 -4.227385391E+02 -2.733900828E+02  5.454858995E+02  7.527482157E+02  1.250000000E+02  0.00000E+00  9.000E+00
       2     1     1     2   502     0  1.294581841E+02 -3.059760430E+02 -4.762316415E+02  5.806697311E+02  1.078959322E-05  0.00000E+00  9.000E+00
#rwgt            1           1   3.5405442989207433E-002          10      139579           0
</event>
<event>
      5   9999  3.19816E-02  1.22766E+01 -1.00000E+00  1.85993E-01
      21    -1     0     0   502   511  0.000000000E+00  0.000000000E+00  4.671645636E+02  4.671645636E+02  0.000000000E+00  0.00000E+00  9.000E+00
      21    -1     0     0   501   502  0.000000000E+00  0.000000000E+00 -1.037196747E+02  1.037196747E+02  0.000000000E+00  0.00000E+00  9.000E+00
      25     1     1     2     0     0 -9.101522430E+01  5.668981303E+01  3.506622911E+02  3.874100519E+02  1.250000000E+02  0.00000E+00  9.000E+00
      25     1     1     2     0     0  9.380682649E+01 -4.473478181E+01 -4.085174519E+00  1.626118386E+02  1.250000000E+02  0.00000E+00  9.000E+00
      21     1     1     2   501   511 -2.791602181E+00 -1.195503123E+01  1.686777237E+01  2.086234788E+01  4.768371582E-07  0.00000E+00  9.000E+00
#rwgt            1           1   3.0455412477615122E-002          10      139638           0
</event>
<event>
      5   9999  3.19816E-02  1.84197E+01 -1.00000E+00  1.69374E-01
      21    -1     0     0   502   501  0.000000000E+00  0.000000000E+00  2.036857335E+02  2.036857335E+02  0.000000000E+00  0.00000E+00  9.000E+00
      21    -1     0     0   512   502  0.000000000E+00  0.000000000E+00 -1.694189535E+02  1.694189535E+02  0.000000000E+00  0.00000E+00  9.000E+00
      25     1     1     2     0     0  2.045232613E+01 -7.535681936E+01  8.187709113E+01  1.685995431E+02  1.250000000E+02  0.00000E+00  9.000E+00
      25     1     1     2     0     0 -3.724810173E+01  6.779468244E+01  6.705259231E+00  1.471512846E+02  1.250000000E+02  0.00000E+00  9.000E+00
      21     1     1     2   512   501  1.679577560E+01  7.562136927E+00 -5.431557037E+01  5.735385931E+01  9.536743164E-07  0.00000E+00  9.000E+00
#rwgt            1           1   4.9980832094579139E-002          10      139849           0
</event>
<event>
      5   9999  3.19816E-02  4.48234E+01 -1.00000E+00  1.41839E-01
      21    -1     0     0   502   501  0.000000000E+00  0.000000000E+00  2.302478946E+02  2.302478946E+02  0.000000000E+00  0.00000E+00  9.000E+00
      21    -1     0     0   511   502  0.000000000E+00  0.000000000E+00 -2.589148790E+02  2.589148790E+02  0.000000000E+00  0.00000E+00  9.000E+00
      25     1     1     2     0     0 -1.587530616E+02 -1.273988017E+02  3.104673774E+00  2.388883175E+02  1.250000000E+02  0.00000E+00  9.000E+00
      25     1     1     2     0     0  1.296937816E+02  9.327120041E+01 -1.935811172E+01  2.037639082E+02  1.250000000E+02  0.00000E+00  9.000E+00
      21     1     1     2   511   501  2.905928002E+01  3.412760129E+01 -1.241354636E+01  4.651054782E+01  9.078709013E-07  0.00000E+00  9.000E+00
#rwgt            1           1   2.9701946333417353E-002          10      140035           0
</event>
<event>
      5   9999  3.19816E-02  5.09314E+01 -1.00000E+00  1.38620E-01
      21    -1     0     0   502   501  0.000000000E+00  0.000000000E+00  3.544169127E+02  3.544169127E+02  0.000000000E+00  0.00000E+00  9.000E+00
      21    -1     0     0   512   502  0.000000000E+00  0.000000000E+00 -1.034819979E+03  1.034819979E+03  0.000000000E+00  0.00000E+00  9.000E+00
      25     1     1     2     0     0  1.527021306E+02 -4.652242441E+02 -2.352368945E+02  5.574163028E+02  1.250000000E+02  0.00000E+00  9.000E+00
      25     1     1     2     0     0 -1.618653590E+02  5.153246214E+02 -2.126722872E+02  5.938134064E+02  1.250000000E+02  0.00000E+00  9.000E+00
      21     1     1     2   512   501  9.163228386E+00 -5.010037725E+01 -2.324938844E+02  2.380071823E+02  0.000000000E+00  0.00000E+00  9.000E+00
#rwgt            1           1   3.5284356265019738E-002          10      140073           0
</event>
<event>
      5   9999  3.19816E-02  2.52113E+01 -1.00000E+00  1.58478E-01
      21    -1     0     0   502   511  0.000000000E+00  0.000000000E+00  1.857940307E+03  1.857940307E+03  0.000000000E+00  0.00000E+00  9.000E+00
      21    -1     0     0   501   502  0.000000000E+00  0.000000000E+00 -2.362830964E+02  2.362830964E+02  0.000000000E+00  0.00000E+00  9.000E+00
      25     1     1     2     0     0 -4.888255889E+02 -2.679049968E+02  1.115714476E+03  1.253462140E+03  1.250000000E+02  0.00000E+00  9.000E+00
      25     1     1     2     0     0  4.636431073E+02  2.691104284E+02  2.877869115E+02  6.211534915E+02  1.250000000E+02  0.00000E+00  9.000E+00
      21     1     1     2   501   511  2.518248163E+01 -1.205431608E+00  2.181558228E+02  2.196077718E+02  3.814697266E-06  0.00000E+00  9.000E+00
#rwgt            1           1   2.9060256405373304E-002          10      140200           0
</event>
<event>
      5   9999  3.19816E-02  9.62876E+01 -1.00000E+00  1.24571E-01
      21    -1     0     0   512   501  0.000000000E+00  0.000000000E+00  4.862185365E+02  4.862185365E+02  0.000000000E+00  0.00000E+00  9.000E+00
      21    -1     0     0   501   502  0.000000000E+00  0.000000000E+00 -3.154131487E+02  3.154131487E+02  0.000000000E+00  0.00000E+00  9.000E+00
      25     1     1     2     0     0  2.088875721E+01  4.415708576E+01 -2.563657741E+02  2.893693116E+02  1.250000000E+02  0.00000E+00  9.000E+00
      25     1     1     2     0     0  5.684648905E+01  1.266301485E+01  3.815655625E+02  4.057205365E+02  1.250000000E+02  0.00000E+00  9.000E+00
      21     1     1     2   512   502 -7.773524626E+01 -5.682010061E+01  4.560559932E+01  1.065418370E+02  1.907348633E-06  0.00000E+00  9.000E+00
#rwgt            1           1   3.0396281993924208E-002          10      140440           0
</event>
<event>
      5   9999  3.19816E-02  3.70208E+01 -1.00000E+00  1.46956E-01
      21    -1     0     0   502   501  0.000000000E+00  0.000000000E+00  7.911259380E+02  7.911259380E+02  0.000000000E+00  0.00000E+00  9.000E+00
      21    -1     0     0   511   502  0.000000000E+00  0.000000000E+00 -1.322735250E+03  1.322735250E+03  0.000000000E+00  0.00000E+00  9.000E+00
      25     1     1     2     0     0  6.226927507E+02  7.878665574E+02 -2.487465754E+02  1.042103561E+03  1.250000000E+02  0.00000E+00  9.000E+00
      25     1     1     2     0     0 -5.958590917E+02 -7.623617032E+02 -2.220888200E+02  1.000595756E+03  1.250000000E+02  0.00000E+00  9.000E+00
      21     1     1     2   511   501 -2.683365902E+01 -2.550485420E+01 -6.077391698E+01  7.116187062E+01  6.743495762E-07  0.00000E+00  9.000E+00
#rwgt            1           1   3.1298863224623268E-002          10      140512           0
</event>
<event>
      5   9999  3.19816E-02  7.40140E+01 -1.00000E+00  1.30006E-01
      21    -1     0     0   502   501  0.000000000E+00  0.000000000E+00  1.980992395E+03  1.980992395E+03  0.000000000E+00  0.00000E+00  9.000E+00
      21    -1     0     0   501   512  0.000000000E+00  0.000000000E+00 -1.206640094E+03  1.206640094E+03  0.000000000E+00  0.00000E+00  9.000E+00
      25     1     1     2     0     0 -8.997941177E+02  9.620944884E+02  6.576867195E+02  1.477644098E+03  1.250000000E+02  0.00000E+00  9.000E+00
      25     1     1     2     0     0  8.489227280E+02 -9.083341392E+02  4.804657392E+02  1.338735610E+03  1.250000000E+02  0.00000E+00  9.000E+00
      21     1     1     2   502   512  5.087138965E+01 -5.376034918E+01 -3.638001576E+02  3.712527819E+02  0.000000000E+00  0.00000E+00  9.000E+00
#rwgt            1           1   6.5130056249799104E-002          10      140672           0
</event>
<event>
      5   9999  3.19816E-02  2.25172E+02 -1.00000E+00  1.09805E-01
       1    -1     0     0   502     0  0.000000000E+00  0.000000000E+00  8.083453098E+02  8.083453098E+02  0.000000000E+00  0.00000E+00  9.000E+00
      21    -1     0     0   501   502  0.000000000E+00  0.000000000E+00 -7.297647723E+02  7.297647723E+02  0.000000000E+00  0.00000E+00  9.000E+00
      25     1     1     2     0     0  1.677279805E+02  4.215628064E+01 -3.532329811E+02  4.126843423E+02  1.250000000E+02  0.00000E+00  9.000E+00
      25     1     1     2     0     0 -3.576604947E+02 -1.631032109E+02 -1.972862642E+02  4.572423394E+02  1.250000000E+02  0.00000E+00  9.000E+00
       1     1     1     2   501     0  1.899325142E+02  1.209469303E+02  6.290997828E+02  6.681834005E+02  7.629394531E-06  0.00000E+00  9.000E+00
#rwgt            1           1   3.1367183069649751E-002          10      140786           0
</event>
<event>
      5   9999  3.19816E-02  2.91699E+02 -1.00000E+00  1.05989E-01
      21    -1     0     0   502   501  0.000000000E+00  0.000000000E+00  1.662366749E+02  1.662366749E+02  0.000000000E+00  0.00000E+00  9.000E+00
       2    -1     0     0   501     0  0.000000000E+00  0.000000000E+00 -3.470459501E+03  3.470459501E+03  0.000000000E+00  0.00000E+00  9.000E+00
      25     1     1     2     0     0 -2.106479579E+01 -3.893680643E+02 -1.572774353E+02  4.386483862E+02  1.250000000E+02  0.00000E+00  9.000E+00
      25     1     1     2     0     0  1.620569507E+02  1.340062498E+02 -1.986309029E+03  2.001316738E+03  1.250000000E+02  0.00000E+00  9.000E+00
       2     1     1     2   502     0 -1.409921549E+02  2.553618145E+02 -1.160636363E+03  1.196731052E+03  2.157918644E-05  0.00000E+00  9.000E+00
#rwgt            2          13   1.4955014160187761E-003          10      140936           0
</event>
<event>
      5   9999  3.19816E-02  5.52973E+02 -1.00000E+00  9.76253E-02
      21    -1     0     0   502   501  0.000000000E+00  0.000000000E+00  3.652974861E+02  3.652974861E+02  0.000000000E+00  0.00000E+00  9.000E+00
      21    -1     0     0   501   511  0.000000000E+00  0.000000000E+00 -2.188695877E+03  2.188695877E+03  0.000000000E+00  0.00000E+00  9.000E+00
      25     1     1     2     0     0 -1.967644181E+02  1.531993785E+02  1.979343545E+02  3.420369782E+02  1.250000000E+02  0.00000E+00  9.000E+00
      25     1     1     2     0     0 -3.182962329E+02  4.802511190E+01 -7.694248356E+02  8.433614177E+02  1.250000000E+02  0.00000E+00  9.000E+00
      21     1     1     2   502   511  5.150606510E+02 -2.012244904E+02 -1.251907910E+03  1.368594968E+03  1.525878906E-05  0.00000E+00  9.000E+00
#rwgt            2          11   9.5228354354348274E-004          10      141060           0
</event>
<event>
      5   9999  3.19816E-02  2.83235E+01 -1.00000E+00  1.54795E-01
      21    -1     0     0   502   501  0.000000000E+00  0.000000000E+00  6.334083272E+02  6.334083272E+02  0.000000000E+00  0.00000E+00  9.000E+00
      21    -1     0     0   512   502  0.000000000E+00  0.000000000E+00 -2.858533567E+02  2.858533567E+02  0.000000000E+00  0.00000E+00  9.000E+00
      25     1     1     2     0     0 -2.705309990E+02  2.269625450E+02  2.907926248E+02  4.742197475E+02  1.250000000E+02  0.00000E+00  9.000E+00
      25     1     1     2     0     0  2.923359340E+02 -2.450391370E+02  7.890416962E+01  4.090908762E+02  1.250000000E+02  0.00000E+00  9.000E+00
      21     1     1     2   512   501 -2.180493497E+01  1.807659202E+01 -2.214182383E+01  3.595106022E+01  4.129530925E-07  0.00000E+00  9.000E+00
#rwgt            1           1   2.8143197078655317E-002          10      141080           0
</event>
<event>
      5   9999  3.19816E-02  8.49600E+01 -1.00000E+00  1.27098E-01
      21    -1     0     0   511   501  0.000000000E+00  0.000000000E+00  1.533195397E+03  1.533195397E+03  0.000000000E+00  0.00000E+00  9.000E+00
      21    -1     0     0   501   502  0.000000000E+00  0.000000000E+00 -4.968867040E+02  4.968867040E+02  0.000000000E+00  0.00000E+00  9.000E+00
      25     1     1     2     0     0  3.670625061E+02 -4.789737734E+02  3.262523161E+02  6.972921430E+02  1.250000000E+02  0.00000E+00  9.000E+00
      25     1     1     2     0     0 -4.118427280E+02  4.067731506E+02 -2.510614456E+01  5.927344660E+02  1.250000000E+02  0.00000E+00  9.000E+00
      21     1     1     2   511   502  4.478022185E+01  7.220062276E+01  7.351625214E+02  7.400554919E+02  1.078959322E-05  0.00000E+00  9.000E+00
#rwgt            1           1   3.0490700052509971E-002          10      141220           0
</event>
<event>
      5   9999  3.19816E-02  1.76290E+02 -1.00000E+00  1.13680E-01
      21    -1     0     0   502   501  0.000000000E+00  0.000000000E+00  4.811392758E+02  4.811392758E+02  0.000000000E+00  0.00000E+00  9.000E+00
      21    -1     0     0   501   512  0.000000000E+00  0.000000000E+00 -3.362261178E+02  3.362261178E+02  0.000000000E+00  0.00000E+00  9.000E+00
      25     1     1     2     0     0  2.024335783E+01 -1.619278080E+02  1.988310187E+02  2.859880811E+02  1.250000000E+02  0.00000E+00  9.000E+00
      25     1     1     2     0     0 -1.237640840E+02  3.046225414E+02 -4.764447659E+01  3.549752631E+02  1.250000000E+02  0.00000E+00  9.000E+00
      21     1     1     2   502   512  1.035207262E+02 -1.426947334E+02 -6.273384079E+00  1.764020494E+02  3.468355304E-06  0.00000E+00  9.000E+00
#rwgt            1           1   2.8539226450368212E-002          10      141316           0
</event>
<event>
      5   9999  3.19816E-02  4.55331E+01 -1.00000E+00  1.41435E-01
      21    -1     0     0   502   501  0.000000000E+00  0.000000000E+00  9.130112648E+02  9.130112648E+02  0.000000000E+00  0.00000E+00  9.000E+00
      21    -1     0     0   511   502  0.000000000E+00  0.000000000E+00 -1.626932659E+03  1.626932659E+03  0.000000000E+00  0.00000E+00  9.000E+00
      25     1     1     2     0     0 -8.959522631E+02  4.826406918E+02  3.854500108E+01  1.026052246E+03  1.250000000E+02  0.00000E+00  9.000E+00
      25     1     1     2     0     0  8.524901980E+02 -4.690643775E+02 -2.540157544E+02  1.013365645E+03  1.250000000E+02  0.00000E+00  9.000E+00
      21     1     1     2   511   501  4.346206508E+01 -1.357631435E+01 -4.984506404E+02  5.005260316E+02  5.394796609E-06  0.00000E+00  9.000E+00
#rwgt            1           1   3.4234371628885006E-002          10      141406           0
</event>
<event>
      5   9999  3.19816E-02  5.76701E+01 -1.00000E+00  1.35629E-01
      21    -1     0     0   502   501  0.000000000E+00  0.000000000E+00  8.948121296E+02  8.948121296E+02  0.000000000E+00  0.00000E+00  9.000E+00
      21    -1     0     0   501   512  0.000000000E+00  0.000000000E+00 -2.392571698E+02  2.392571698E+02  0.000000000E+00  0.00000E+00  9.000E+00
      25     1     1     2     0     0 -2.238199576E+02 -3.096351028E+02  1.117609500E+02  4.172346825E+02  1.250000000E+02  0.00000E+00  9.000E+00
      25     1     1     2     0     0  1.863267087E+02  2.658161770E+02  5.579043158E+02  6.574633890E+02  1.250000000E+02  0.00000E+00  9.000E+00
      21     1     1     2   502   512  3.749324894E+01  4.381892582E+01 -1.411030602E+01  5.937122798E+01  5.591411304E-07  0.00000E+00  9.000E+00
#rwgt            1           1   2.6831181666046731E-002          10      141607           0
</event>
<event>
      5   9999  3.19816E-02  2.75335E+02 -1.00000E+00  1.06817E-01
      21    -1     0     0   511   501  0.000000000E+00  0.000000000E+00  1.759593240E+02  1.759593240E+02  0.000000000E+00  0.00000E+00  9.000E+00
      21    -1     0     0   501   502  0.000000000E+00  0.000000000E+00 -1.452959332E+03  1.452959332E+03  0.000000000E+00  0.00000E+00  9.000E+00
      25     1     1     2     0     0 -1.107650393E+02 -7.186270877E+01 -9.313378392E+01  2.042842249E+02  1.250000000E+02  0.00000E+00  9.000E+00
      25     1     1     2     0     0  2.056772584E+02  3.303212721E+02 -1.032470594E+03  1.110421454E+03  1.250000000E+02  0.00000E+00  9.000E+00
      21     1     1     2   511   502 -9.491221911E+01 -2.584585633E+02 -1.513956300E+02  3.142129773E+02  8.092194914E-06  0.00000E+00  9.000E+00
#rwgt            1           1   2.5734032369952059E-002          10      141675           0
</event>
<event>
      5   9999  3.19816E-02  4.78543E+01 -1.00000E+00  1.40171E-01
      21    -1     0     0   512   501  0.000000000E+00  0.000000000E+00  1.755744637E+03  1.755744637E+03  0.000000000E+00  0.00000E+00  9.000E+00
      21    -1     0     0   501   502  0.000000000E+00  0.000000000E+00 -4.397631813E+01  4.397631813E+01  0.000000000E+00  0.00000E+00  9.000E+00
      25     1     1     2     0     0  5.138653727E+01 -1.238039103E+02  1.056966971E+03  1.072740492E+03  1.250000000E+02  0.00000E+00  9.000E+00
      25     1     1     2     0     0 -7.701887461E+00  1.433406897E+02  2.258265281E+02  2.953447023E+02  1.250000000E+02  0.00000E+00  9.000E+00
      21     1     1     2   512   502 -4.368464981E+01 -1.953677943E+01  4.289748194E+02  4.316357608E+02  5.394796609E-06  0.00000E+00  9.000E+00
#rwgt            1           1   3.1565037923271533E-002          10      141734           0
</event>
<event>
      5   9999  3.19816E-02  3.94769E+01 -1.00000E+00  1.45196E-01
      21    -1     0     0   502   501  0.000000000E+00  0.000000000E+00  5.228125954E+02  5.228125954E+02  0.000000000E+00  0.00000E+00  9.000E+00
      21    -1     0     0   501   511  0.000000000E+00  0.000000000E+00 -2.976431593E+02  2.976431593E+02  0.000000000E+00  0.00000E+00  9.000E+00
      25     1     1     2     0     0  1.199748599E+02 -3.296702214E+02  2.374395145E+02  4.416774218E+02  1.250000000E+02  0.00000E+00  9.000E+00
      25     1     1     2     0     0 -1.220834598E+02  2.902496682E+02 -1.574225609E+01  3.391490228E+02  1.250000000E+02  0.00000E+00  9.000E+00
      21     1     1     2   502   511  2.108599866E+00  3.942055320E+01  3.472177713E+00  3.962931018E+01  9.490062790E-07  0.00000E+00  9.000E+00
#rwgt            1           1   2.9143169324011668E-002          10      141856           0
</event>
<event>
      5   9999  3.19816E-02  2.78521E+01 -1.00000E+00  1.55315E-01
      21    -1     0     0   502   512  0.000000000E+00  0.000000000E+00  7.682152416E+02  7.682152416E+02  0.000000000E+00  0.00000E+00  9.000E+00
      21    -1     0     0   501   502  0.000000000E+00  0.000000000E+00 -1.371154488E+02  1.371154488E+02  0.000000000E+00  0.00000E+00  9.000E+00
      25     1     1     2     0     0 -2.125020076E+02 -6.961594536E+00  3.127052123E+01  2.486129774E+02  1.250000000E+02  0.00000E+00  9.000E+00
      25     1     1     2     0     0  2.016781950E+02  3.262447828E+01  5.384700503E+02  5.893330519E+02  1.250000000E+02  0.00000E+00  9.000E+00
      21     1     1     2   501   512  1.082381259E+01 -2.566288374E+01  6.135922121E+01  6.738466107E+01  6.743495762E-07  0.00000E+00  9.000E+00
#rwgt            1           1   1.8552884213475701E-002          10      141978           0
</event>
<event>
      5   9999  3.19816E-02  1.10349E+02 -1.00000E+00  1.21934E-01
      21    -1     0     0   502   501  0.000000000E+00  0.000000000E+00  1.993223435E+02  1.993223435E+02  0.000000000E+00  0.00000E+00  9.000E+00
      21    -1     0     0   501   511  0.000000000E+00  0.000000000E+00 -4.973908167E+02  4.973908167E+02  0.000000000E+00  0.00000E+00  9.000E+00
      25     1     1     2     0     0 -1.956536611E+02 -3.026165470E+01 -2.553190165E+01  2.355270703E+02  1.250000000E+02  0.00000E+00  9.000E+00
      25     1     1     2     0     0  2.161638138E+02 -7.816462214E+01 -1.884769023E+02  3.224671227E+02  1.250000000E+02  0.00000E+00  9.000E+00
      21     1     1     2   502   511 -2.051015269E+01  1.084262768E+02 -8.405966914E+01  1.387189672E+02  9.536743164E-07  0.00000E+00  9.000E+00
#rwgt            1           1   2.8623387866746414E-002          10      142133           0
</event>
<event>
      5   9999  3.19816E-02  6.31807E+02 -1.00000E+00  9.60485E-02
      21    -1     0     0   502   501  0.000000000E+00  0.000000000E+00  1.462501020E+03  1.462501020E+03  0.000000000E+00  0.00000E+00  9.000E+00
       1    -1     0     0   501     0  0.000000000E+00  0.000000000E+00 -1.629999175E+03  1.629999175E+03  0.000000000E+00  0.00000E+00  9.000E+00
      25     1     1     2     0     0 -6.396235563E+02 -1.714888732E+02 -9.335033846E+02  1.151338480E+03  1.250000000E+02  0.00000E+00  9.000E+00
      25     1     1     2     0     0  8.219925308E+00  1.940579810E+02  1.169112937E+03  1.191711428E+03  1.250000000E+02  0.00000E+00  9.000E+00
       1     1     1     2   502     0  6.314036310E+02 -2.256910778E+01 -4.031077076E+02  7.494502877E+02  1.618438983E-05  0.00000E+00  9.000E+00
#rwgt            2          12   4.6033457423088307E-004          10      142327           0
</event>
<event>
      5   9999  3.19816E-02  9.07974E+01 -1.00000E+00  1.25743E-01
      21    -1     0     0   511   501  0.000000000E+00  0.000000000E+00  6.676437455E+02  6.676437455E+02  0.000000000E+00  0.00000E+00  9.000E+00
      21    -1     0     0   501   502  0.000000000E+00  0.000000000E+00 -2.463442996E+02  2.463442996E+02  0.000000000E+00  0.00000E+00  9.000E+00
      25     1     1     2     0     0 -2.922880904E+02 -5.364334543E+01  2.352070847E+02  3.990705564E+02  1.250000000E+02  0.00000E+00  9.000E+00
      25     1     1     2     0     0  2.527498082E+02  1.353801165E+02  5.557306027E+00  3.128356200E+02  1.250000000E+02  0.00000E+00  9.000E+00
      21     1     1     2   511   502  3.953828215E+01 -8.173677110E+01  1.805350552E+02  2.020818687E+02  3.303624740E-06  0.00000E+00  9.000E+00
#rwgt            1           1   2.7934899130152541E-002          10      142346           0
</event>
<event>
      5   9999  3.19816E-02  9.01899E+00 -1.00000E+00  2.01088E-01
      21    -1     0     0   502   501  0.000000000E+00  0.000000000E+00  1.279100658E+03  1.279100658E+03  0.000000000E+00  0.00000E+00  9.000E+00
      21    -1     0     0   501   512  0.000000000E+00  0.000000000E+00 -4.251528529E+01  4.251528529E+01  0.000000000E+00  0.00000E+00  9.000E+00
      25     1     1     2     0     0 -1.285386782E+02  1.268016469E+02  7.542253707E+02  7.855455170E+02  1.250000000E+02  0.00000E+00  9.000E+00
      25     1     1     2     0     0  1.280292800E+02 -1.358062417E+02  4.679025502E+02  5.190304695E+02  1.250000000E+02  0.00000E+00  9.000E+00
      21     1     1     2   502   512  5.093981351E-01  9.004594793E+00  1.445745175E+01  1.703995672E+01  1.685873940E-07  0.00000E+00  9.000E+00
#rwgt            1           1   4.0976680892155483E-002          10      142428           0
</event>
<event>
      5   9999  3.19816E-02  1.81127E+01 -1.00000E+00  1.70001E-01
       1    -1     0     0   502     0  0.000000000E+00  0.000000000E+00  1.598415352E+03  1.598415352E+03  0.000000000E+00  0.00000E+00  9.000E+00
      21    -1     0     0   501   502  0.000000000E+00  0.000000000E+00 -2.100121314E+02  2.100121314E+02  0.000000000E+00  0.00000E+00  9.000E+00
      25     1     1     2     0     0 -7.963319574E+01  3.627827663E+01 -6.188169203E+01  1.646569252E+02  1.250000000E+02  0.00000E+00  9.000E+00
      25     1     1     2     0     0  9.463138931E+01 -2.612331253E+01 -3.136740425E+01  1.620075349E+02  1.250000000E+02  0.00000E+00  9.000E+00
       1     1     1     2   501     0 -1.499819357E+01 -1.015496410E+01  1.481652317E+03  1.481763023E+03  2.157918644E-05  0.00000E+00  9.000E+00
#rwgt            1           1   6.8813759050386558E-002          10      142634           0
</event>
<event>
      5   9999  3.19816E-02  3.19599E+01 -1.00000E+00  1.51155E-01
      21    -1     0     0   511   501  0.000000000E+00  0.000000000E+00  1.004849021E+03  1.004849021E+03  0.000000000E+00  0.00000E+00  9.000E+00
      21    -1     0     0   501   502  0.000000000E+00  0.000000000E+00 -1.428123272E+02  1.428123272E+02  0.000000000E+00  0.00000E+00  9.000E+00
      25     1     1     2     0     0 -1.998173881E+02 -2.430007295E+02  3.050004506E+02  4.556606391E+02  1.250000000E+02  0.00000E+00  9.000E+00
      25     1     1     2     0     0  2.294660290E+02  2.549336902E+02  4.454673306E+02  5.759444309E+02  1.250000000E+02  0.00000E+00  9.000E+00
      21     1     1     2   511   502 -2.964864093E+01 -1.193296065E+01  1.115689128E+02  1.160562784E+02  2.336015456E-06  0.00000E+00  9.000E+00
#rwgt            1           1   2.4214764018989424E-002          10      142781           0
</event>
<event>
      5   9999  3.19816E-02  3.51178E+01 -1.00000E+00  1.48436E-01
      21    -1     0     0   512   501  0.000000000E+00  0.000000000E+00  6.648885928E+02  6.648885928E+02  0.000000000E+00  0.00000E+00  9.000E+00
      21    -1     0     0   501   502  0.000000000E+00  0.000000000E+00 -1.431570259E+02  1.431570259E+02  0.000000000E+00  0.00000E+00  9.000E+00
      25     1     1     2     0     0  1.007777212E+02 -1.053117337E+01 -7.420741205E+01  1.771970505E+02  1.250000000E+02  0.00000E+00  9.000E+00
      25     1     1     2     0     0 -1.073807923E+02  4.502263970E+01  4.690617746E+02  4.992009826E+02  1.250000000E+02  0.00000E+00  9.000E+00
      21     1     1     2   512   502  6.603071039E+00 -3.449146633E+01  1.268772043E+02  1.316475855E+02  1.348699152E-06  0.00000E+00  9.000E+00
#rwgt            1           1   3.0018361151589186E-002          10      142909           0
</event>
<event>
      5   9999  3.19816E-02  1.48539E+01 -1.00000E+00  1.77785E-01
      21    -1     0     0   502   501  0.000000000E+00  0.000000000E+00  4.905503868E+01  4.905503868E+01  0.000000000E+00  0.00000E+00  9.000E+00
      21    -1     0     0   501   511  0.000000000E+00  0.000000000E+00 -2.018516776E+03  2.018516776E+03  0.000000000E+00  0.00000E+00  9.000E+00
      25     1     1     2     0     0  9.109431982E+01 -1.275944511E+02 -1.910525661E+02  2.769559569E+02  1.250000000E+02  0.00000E+00  9.000E+00
      25     1     1     2     0     0 -7.762712492E+01  1.213275244E+02 -1.710629399E+03  1.721227551E+03  1.250000000E+02  0.00000E+00  9.000E+00
      21     1     1     2   502   511 -1.346719490E+01  6.266926699E+00 -6.777977153E+01  6.938830692E+01  1.348699152E-06  0.00000E+00  9.000E+00
#rwgt            1           1   1.9119147393292783E-002          10      143060           0
</event>
<event>
      5   9999  3.19816E-02  6.04662E+01 -1.00000E+00  1.34524E-01
      21    -1     0     0   502   512  0.000000000E+00  0.000000000E+00  1.119191057E+02  1.119191057E+02  0.000000000E+00  0.00000E+00  9.000E+00
      21    -1     0     0   501   502  0.000000000E+00  0.000000000E+00 -3.769918700E+02  3.769918700E+02  0.000000000E+00  0.00000E+00  9.000E+00
      25     1     1     2     0     0 -1.005938445E+02  6.493246384E+00 -1.343676531E+02  2.093823058E+02  1.250000000E+02  0.00000E+00  9.000E+00
      25     1     1     2     0     0  1.294291019E+02  4.665450507E+01 -1.077136323E+02  2.148389207E+02  1.250000000E+02  0.00000E+00  9.000E+00
      21     1     1     2   501   512 -2.883525740E+01 -5.314775146E+01 -2.299147884E+01  6.468974922E+01  1.066240300E-06  0.00000E+00  9.000E+00
#rwgt            1           1   2.3563018550897138E-002          10      143237           0
</event>
<event>
      5   9999  3.19816E-02  3.05506E+01 -1.00000E+00  1.52493E-01
      21    -1     0     0   502   511  0.000000000E+00  0.000000000E+00  6.115461493E+02  6.115461493E+02  0.000000000E+00  0.00000E+00  9.000E+00
      21    -1     0     0   501   502  0.000000000E+00  0.000000000E+00 -1.467660459E+02  1.467660459E+02  0.000000000E+00  0.00000E+00  9.000E+00
      25     1     1     2     0     0 -1.697141677E+02  6.435022660E+01  2.912563487E+02  3.652384304E+02  1.250000000E+02  0.00000E+00  9.000E+00
      25     1     1     2     0     0  1.512827893E+02 -8.871463746E+01 -1.534467397E+00  2.153697375E+02  1.250000000E+02  0.00000E+00  9.000E+00
      21     1     1     2   501   511  1.843137846E+01  2.436441086E+01  1.750582220E+02  1.777040273E+02  1.907348633E-06  0.00000E+00  9.000E+00
#rwgt            1           1   2.7142855777398198E-002          10      143295           0
</event>
<event>
      5   9999  3.19816E-02  1.16528E+02 -1.00000E+00  1.20912E-01
      21    -1     0     0   502   501  0.000000000E+00  0.000000000E+00  2.879954308E+02  2.879954308E+02  0.000000000E+00  0.00000E+00  9.000E+00
      21    -1     0     0   512   502  0.000000000E+00  0.000000000E+00 -1.106881904E+03  1.106881904E+03  0.000000000E+00  0.00000E+00  9.000E+00
      25     1     1     2     0     0  4.332471452E+02 -2.365307746E+02 -5.436802558E+02  7.448913456E+02  1.250000000E+02  0.00000E+00  9.000E+00
      25     1     1     2     0     0 -3.274477293E+02  1.876926993E+02 -5.570375856E+01  4.014703894E+02  1.250000000E+02  0.00000E+00  9.000E+00
      21     1     1     2   512   501 -1.057994158E+02  4.883807530E+01 -2.195024591E+02  2.485156002E+02  4.672030912E-06  0.00000E+00  9.000E+00
#rwgt            1           1   2.5961677098006206E-002          10      143359           0
</event>
<event>
      5   9999  3.19816E-02  5.88003E+01 -1.00000E+00  1.35174E-01
      21    -1     0     0   502   511  0.000000000E+00  0.000000000E+00  1.256890467E+03  1.256890467E+03  0.000000000E+00  0.00000E+00  9.000E+00
      21    -1     0     0   501   502  0.000000000E+00  0.000000000E+00 -9.678341941E+01  9.678341941E+01  0.000000000E+00  0.00000E+00  9.000E+00
      25     1     1     2     0     0 -1.474345315E+02 -7.357539258E+01  5.258804824E+01  2.134028638E+02  1.250000000E+02  0.00000E+00  9.000E+00
      25     1     1     2     0     0  1.262327241E+02  1.873054817E+01  5.202195101E+02  5.500353378E+02  1.250000000E+02  0.00000E+00  9.000E+00
      21     1     1     2   501   511  2.120180735E+01  5.484484441E+01  5.872994896E+02  5.902356852E+02  7.629394531E-06  0.00000E+00  9.000E+00
#rwgt            1           1   2.4586574031559751E-002          10      143429           0
</event>
<event>
      5   9999  3.19816E-02  1.78329E+01 -1.00000E+00  1.70586E-01
      21    -1     0     0   502   501  0.000000000E+00  0.000000000E+00  1.717593741E+03  1.717593741E+03  0.000000000E+00  0.00000E+00  9.000E+00
      21    -1     0     0   512   502  0.000000000E+00  0.000000000E+00 -1.803625196E+02  1.803625196E+02  0.000000000E+00  0.00000E+00  9.000E+00
      25     1     1     2     0     0 -1.495489298E+02 -3.617812270E+01  6.420685936E+02  6.719753105E+02  1.250000000E+02  0.00000E+00  9.000E+00
      25     1     1     2     0     0  1.622433203E+02  4.870267290E+01  1.049606510E+03  1.070510939E+03  1.250000000E+02  0.00000E+00  9.000E+00
      21     1     1     2   512   501 -1.269439046E+01 -1.252455020E+01 -1.544438816E+02  1.554700115E+02  2.697398305E-06  0.00000E+00  9.000E+00
#rwgt            1           1   2.7702378419869167E-002          10      143507           0
</event>
<event>
      5   9999  3.19816E-02  1.54099E+02 -1.00000E+00  1.15931E-01
      21    -1     0     0   502   511  0.000000000E+00  0.000000000E+00  3.705661265E+02  3.705661265E+02  0.000000000E+00  0.00000E+00  9.000E+00
      21    -1     0     0   501   502  0.000000000E+00  0.000000000E+00 -6.220968038E+02  6.220968038E+02  0.000000000E+00  0.00000E+00  9.000E+00
      25     1     1     2     0     0  2.238692742E+02  4.628082089E+00  7.758792732E+01  2.679249103E+02  1.250000000E+02  0.00000E+00  9.000E+00
      25     1     1     2     0     0 -3.743707007E+02  2.847555709E+01 -3.931972095E+02  5.578470439E+02  1.250000000E+02  0.00000E+00  9.000E+00
      21     1     1     2   501   511  1.505014265E+02 -3.310363918E+01  6.407860479E+01  1.668909761E+02  3.162979880E-06  0.00000E+00  9.000E+00
#rwgt            1           1   2.7069683431793633E-002          10      143721           0
</event>
<event>
      5   9999  3.19816E-02  7.53873E+01 -1.00000E+00  1.29610E-01
      21    -1     0     0   512   501  0.000000000E+00  0.000000000E+00  4.599029729E+02  4.599029729E+02  0.000000000E+00  0.00000E+00  9.000E+00
      21    -1     0     0   501   502  0.000000000E+00  0.000000000E+00 -9.766278879E+01  9.766278879E+01  0.000000000E+00  0.00000E+00  9.000E+00
      25     1     1     2     0     0 -3.980514947E+01 -1.738707794E+01  1.898835882E+02  2.314466190E+02  1.250000000E+02  0.00000E+00  9.000E+00
      25     1     1     2     0     0  4.744526062E+01  9.238624488E+01  3.032511448E+01  1.653205479E+02  1.250000000E+02  0.00000E+00  9.000E+00
      21     1     1     2   512   502 -7.640111145E+00 -7.499916694E+01  1.420314814E+02  1.607985947E+02  0.000000000E+00  0.00000E+00  9.000E+00
#rwgt            2          11   4.1293570550973357E-003          10      143842           0
</event>
<event>
      5   9999  3.19816E-02  1.36286E+02 -1.00000E+00  1.18068E-01
      21    -1     0     0   502   511  0.000000000E+00  0.000000000E+00  1.564722083E+02  1.564722083E+02  0.000000000E+00  0.00000E+00  9.000E+00
      21    -1     0     0   501   502  0.000000000E+00  0.000000000E+00 -1.042541154E+03  1.042541154E+03  0.000000000E+00  0.00000E+00  9.000E+00
      25     1     1     2     0     0 -5.757805383E+00  7.685488726E+01 -8.191398094E+02  8.321988064E+02  1.250000000E+02  0.00000E+00  9.000E+00
      25     1     1     2     0     0 -1.052686703E+02  2.182242909E+00 -1.372813680E+02  2.134418635E+02  1.250000000E+02  0.00000E+00  9.000E+00
      21     1     1     2   501   511  1.110264757E+02 -7.903713017E+01  7.035223177E+01  1.533726923E+02  3.438521648E-06  0.00000E+00  9.000E+00
#rwgt            1           1   3.0687567566619368E-002          10      143907           0
</event>
<event>
      5   9999  3.19816E-02  1.69453E+02 -1.00000E+00  1.14333E-01
      21    -1     0     0   502   501  0.000000000E+00  0.000000000E+00  3.944249469E+02  3.944249469E+02  0.000000000E+00  0.00000E+00  9.000E+00
       1    -1     0     0   501     0  0.000000000E+00  0.000000000E+00 -3.387374696E+03  3.387374696E+03  0.000000000E+00  0.00000E+00  9.000E+00
      25     1     1     2     0     0 -3.347795587E+02 -7.636723305E+01  2.459347035E+02  4.404749545E+02  1.250000000E+02  0.00000E+00  9.000E+00
      25     1     1     2     0     0  2.158182756E+02  1.970424318E+02 -4.707507568E+02  5.680092631E+02  1.250000000E+02  0.00000E+00  9.000E+00
       1     1     1     2   502     0  1.189612831E+02 -1.206751987E+02 -2.768133695E+03  2.773315425E+03  4.315837288E-05  0.00000E+00  9.000E+00
#rwgt            1           1   2.9979920718347753E-002          10      143962           0
</event>
<event>
      5   9999  3.19816E-02  5.75292E+01 -1.00000E+00  1.35687E-01
      21    -1     0     0   502   501  0.000000000E+00  0.000000000E+00  9.362158036E+01  9.362158036E+01  0.000000000E+00  0.00000E+00  9.000E+00
      21    -1     0     0   501   511  0.000000000E+00  0.000000000E+00 -7.509444622E+02  7.509444622E+02  0.000000000E+00  0.00000E+00  9.000E+00
      25     1     1     2     0     0  9.247390934E+00  4.606796160E+01  2.250453200E+01  1.354223958E+02  1.250000000E+02  0.00000E+00  9.000E+00
      25     1     1     2     0     0  4.522870502E+01 -2.757584523E+01 -5.600064221E+02  5.762276076E+02  1.250000000E+02  0.00000E+00  9.000E+00
      21     1     1     2   502   511 -5.447609595E+01 -1.849211637E+01 -1.198209918E+02  1.329160392E+02  3.015782986E-06  0.00000E+00  9.000E+00
#rwgt            1           1   2.8061066719383548E-002          10      144021           0
</event>
<event>
      5   9999  3.19816E-02  1.47027E+02 -1.00000E+00  1.16739E-01
      21    -1     0     0   502   512  0.000000000E+00  0.000000000E+00  2.039320240E+02  2.039320240E+02  0.000000000E+00  0.00000E+00  9.000E+00
      21    -1     0     0   501   502  0.000000000E+00  0.000000000E+00 -6.730131925E+02  6.730131925E+02  0.000000000E+00  0.00000E+00  9.000E+00
      25     1     1     2     0     0 -6.660280138E+00 -3.671045575E+01 -5.299664364E+02  5.457851598E+02  1.250000000E+02  0.00000E+00  9.000E+00
      25     1     1     2     0     0  9.905045363E+01 -7.766128210E+01  1.974273054E+01  1.784854126E+02  1.250000000E+02  0.00000E+00  9.000E+00
      21     1     1     2   501   512 -9.239017349E+01  1.143717378E+02  4.114253743E+01  1.526746441E+02  2.185142372E-06  0.00000E+00  9.000E+00
#rwgt            1           1   2.7695588642598950E-002          10      144095           0
</event>
<event>
      5   9999  3.19816E-02  2.56242E+01 -1.00000E+00  1.57953E-01
      21    -1     0     0   502   511  0.000000000E+00  0.000000000E+00  9.713340087E+02  9.713340087E+02  0.000000000E+00  0.00000E+00  9.000E+00
      21    -1     0     0   501   502  0.000000000E+00  0.000000000E+00 -9.423952298E+01  9.423952298E+01  0.000000000E+00  0.00000E+00  9.000E+00
      25     1     1     2     0     0  4.434984273E+00  1.853867181E+02  7.033355333E+02  7.380337233E+02  1.250000000E+02  0.00000E+00  9.000E+00
      25     1     1     2     0     0 -2.026062186E+01 -2.055398776E+02  1.236071936E+02  2.712210766E+02  1.250000000E+02  0.00000E+00  9.000E+00
      21     1     1     2   501   511  1.582563759E+01  2.015315942E+01  5.015175883E+01  5.631873182E+01  9.536743164E-07  0.00000E+00  9.000E+00
#rwgt            1           1   2.9123154061702336E-002          10      144144           0
</event>
<event>
      5   9999  3.19816E-02  3.59814E+01 -1.00000E+00  1.47751E-01
      21    -1     0     0   502   501  0.000000000E+00  0.000000000E+00  3.039500809E+02  3.039500809E+02  0.000000000E+00  0.00000E+00  9.000E+00
      21    -1     0     0   512   502  0.000000000E+00  0.000000000E+00 -4.203077671E+02  4.203077671E+02  0.000000000E+00  0.00000E+00  9.000E+00
      25     1     1     2     0     0 -1.419955881E+02  2.407007588E+02  9.765081511E+01  3.213413824E+02  1.250000000E+02  0.00000E+00  9.000E+00
      25     1     1     2     0     0  1.711907458E+02 -2.196697758E+02 -1.878648864E+02  3.584400890E+02  1.250000000E+02  0.00000E+00  9.000E+00
      21     1     1     2   512   501 -2.919515761E+01 -2.103098300E+01 -2.614361491E+01  4.447637659E+01  0.000000000E+00  0.00000E+00  9.000E+00
#rwgt            1           1   2.7243095483790791E-002          10      144272           0
</event>
<event>
      5   9999  3.19816E-02  1.28036E+01 -1.00000E+00  1.84116E-01
      21    -1     0     0   502   501  0.000000000E+00  0.000000000E+00  2.595654627E+03  2.595654627E+03  0.000000000E+00  0.00000E+00  9.000E+00
      21    -1     0     0   501   511  0.000000000E+00  0.000000000E+00 -2.770236038E+01  2.770236038E+01  0.000000000E+00  0.00000E+00  9.000E+00
      25     1     1     2     0     0 -6.237689540E+01 -3.939984685E+01  1.966820634E+02  2.444423431E+02  1.250000000E+02  0.00000E+00  9.000E+00
      25     1     1     2     0     0  5.930802131E+01  2.696944810E+01  2.349004670E+03  2.353230276E+03  1.250000000E+02  0.00000E+00  9.000E+00
      21     1     1     2   502   511  3.068874082E+00  1.243039876E+01  2.226553284E+01  2.568436789E+01  3.371747881E-07  0.00000E+00  9.000E+00
#rwgt            1           1   3.7109494966281353E-002          10      144402           0
</event>
<event>
      5   9999  3.19816E-02  3.23836E+01 -1.00000E+00  1.50769E-01
      21    -1     0     0   512   501  0.000000000E+00  0.000000000E+00  9.061676576E+02  9.061676576E+02  0.000000000E+00  0.00000E+00  9.000E+00
      21    -1     0     0   501   502  0.000000000E+00  0.000000000E+00 -5.328679588E+02  5.328679588E+02  0.000000000E+00  0.00000E+00  9.000E+00
      25     1     1     2     0     0  2.281734153E+00 -2.421241050E+02  1.684358553E+02  3.203512540E+02  1.250000000E+02  0.00000E+00  9.000E+00
      25     1     1     2     0     0  2.720844121E+01  2.287440261E+02 -4.188721404E+02  4.941082865E+02  1.250000000E+02  0.00000E+00  9.000E+00
      21     1     1     2   512   502 -2.949017536E+01  1.338007891E+01  6.237359840E+02  6.245760760E+02  0.000000000E+00  0.00000E+00  9.000E+00
#rwgt            1           1   2.8810913731470818E-002          10      144597           0
</event>
<event>
      5   9999  3.19816E-02  1.66211E+02 -1.00000E+00  1.14654E-01
       5    -1     0     0   502     0  0.000000000E+00  0.000000000E+00  7.477835733E+02  7.477835733E+02  0.000000000E+00  0.00000E+00  9.000E+00
      21    -1     0     0   501   502  0.000000000E+00  0.000000000E+00 -4.440847690E+02  4.440847690E+02  0.000000000E+00  0.00000E+00  9.000E+00
      25     1     1     2     0     0  1.405509382E+02  3.483085688E+02 -1.439425859E+02  4.212100347E+02  1.250000000E+02  0.00000E+00  9.000E+00
      25     1     1     2     0     0  5.136299319E+00 -4.283167378E+02  3.960468931E+02  5.966236259E+02  1.250000000E+02  0.00000E+00  9.000E+00
       5     1     1     2   501     0 -1.456872375E+02  8.000816902E+01  5.159449722E+01  1.740346817E+02  3.234066955E-06  0.00000E+00  9.000E+00
#rwgt            2          21   7.0857109521677935E-006          10      144741           0
</event>
<event>
      5   9999  3.19816E-02  5.61357E+01 -1.00000E+00  1.36267E-01
      21    -1     0     0   502   501  0.000000000E+00  0.000000000E+00  4.523372800E+02  4.523372800E+02  0.000000000E+00  0.00000E+00  9.000E+00
      21    -1     0     0   511   502  0.000000000E+00  0.000000000E+00 -9.641812790E+02  9.641812790E+02  0.000000000E+00  0.00000E+00  9.000E+00
      25     1     1     2     0     0  2.596027571E+02 -4.212837307E+02 -6.634396840E+02  8.370488561E+02  1.250000000E+02  0.00000E+00  9.000E+00
      25     1     1     2     0     0 -2.709011994E+02  3.662967583E+02  1.923681437E+02  5.100894801E+02  1.250000000E+02  0.00000E+00  9.000E+00
      21     1     1     2   511   501  1.129844235E+01  5.498697238E+01 -4.077245861E+01  6.938022278E+01  6.743495762E-07  0.00000E+00  9.000E+00
#rwgt            1           1   2.5543505393158399E-002          10      144910           0
</event>
<event>
      5   9999  3.19816E-02  1.39669E+02 -1.00000E+00  1.17635E-01
       2    -1     0     0   502     0  0.000000000E+00  0.000000000E+00  2.198730129E+03  2.198730129E+03  0.000000000E+00  0.00000E+00  9.000E+00
      21    -1     0     0   501   502  0.000000000E+00  0.000000000E+00 -1.445032120E+03  1.445032120E+03  0.000000000E+00  0.00000E+00  9.000E+00
      25     1     1     2     0     0  2.683146823E+02  1.722187614E+02  3.517057299E+02  4.908910174E+02  1.250000000E+02  0.00000E+00  9.000E+00
      25     1     1     2     0     0 -1.820734256E+02 -6.235597466E+01 -1.363089379E+03  1.382272280E+03  1.250000000E+02  0.00000E+00  9.000E+00
       2     1     1     2   501     0 -8.624125668E+01 -1.098627868E+02  1.765081658E+03  1.770598951E+03  3.737624730E-05  0.00000E+00  9.000E+00
#rwgt            1           1   3.2424729764019999E-002          10      145030           0
</event>
<event>
      5   9999  3.19816E-02  2.34212E+01 -1.00000E+00  1.60903E-01
      21    -1     0     0   502   501  0.000000000E+00  0.000000000E+00  1.277562780E+02  1.277562780E+02  0.000000000E+00  0.00000E+00  9.000E+00
      21    -1     0     0   511   502  0.000000000E+00  0.000000000E+00 -1.090147976E+03  1.090147976E+03  0.000000000E+00  0.00000E+00  9.000E+00
      25     1     1     2     0     0  1.731695681E+02 -4.657001530E+01 -1.642516391E+02  2.734228714E+02  1.250000000E+02  0.00000E+00  9.000E+00
      25     1     1     2     0     0 -1.964477205E+02  4.915506660E+01 -1.210647910E+02  2.670011443E+02  1.250000000E+02  0.00000E+00  9.000E+00
      21     1     1     2   511   501  2.327815241E+01 -2.585051300E+00 -6.770752680E+02  6.774802384E+02  7.629394531E-06  0.00000E+00  9.000E+00
#rwgt            1           1   3.4790885529815539E-002          10      145091           0
</event>
<event>
      5   9999  3.19816E-02  5.95097E+01 -1.00000E+00  1.34894E-01
      21    -1     0     0   502   512  0.000000000E+00  0.000000000E+00  1.770245347E+02  1.770245347E+02  0.000000000E+00  0.00000E+00  9.000E+00
      21    -1     0     0   501   502  0.000000000E+00  0.000000000E+00 -1.436146073E+03  1.436146073E+03  0.000000000E+00  0.00000E+00  9.000E+00
      25     1     1     2     0     0 -1.284161528E+02  2.958731844E+02 -1.142752028E+03  1.193959316E+03  1.250000000E+02  0.00000E+00  9.000E+00
      25     1     1     2     0     0  8.121167872E+01 -2.596358113E+02 -1.654620022E+02  3.420654403E+02  1.250000000E+02  0.00000E+00  9.000E+00
      21     1     1     2   501   512  4.720447409E+01 -3.623737309E+01  4.909249243E+01  7.714585144E+01  1.651812370E-06  0.00000E+00  9.000E+00
#rwgt            1           1   1.8187141045211175E-002          10      145240           0
</event>
<event>
      5   9999  3.19816E-02  2.62429E+01 -1.00000E+00  1.57189E-01
      21    -1     0     0   502   501  0.000000000E+00  0.000000000E+00  5.245516499E+02  5.245516499E+02  0.000000000E+00  0.00000E+00  9.000E+00
      21    -1     0     0   501   511  0.000000000E+00  0.000000000E+00 -4.620568902E+02  4.620568902E+02  0.000000000E+00  0.00000E+00  9.000E+00
      25     1     1     2     0     0 -2.310775392E+01 -4.429818943E+02  9.029019664E+01  4.696213864E+02  1.250000000E+02  0.00000E+00  9.000E+00
      25     1     1     2     0     0  4.731614372E+00  4.617170379E+02  5.454497766E-01  4.783621105E+02  1.250000000E+02  0.00000E+00  9.000E+00
      21     1     1     2   502   511  1.837613955E+01 -1.873514354E+01 -2.834088670E+01  3.862504326E+01  3.371747881E-07  0.00000E+00  9.000E+00
#rwgt            1           1   2.7182839116610982E-002          10      145360           0
</event>
<event>
      5   9999  3.19816E-02  4.64618E+01 -1.00000E+00  1.40919E-01
      21    -1     0     0   502   512  0.000000000E+00  0.000000000E+00  2.155247178E+02  2.155247178E+02  0.000000000E+00  0.00000E+00  9.000E+00
      21    -1     0     0   501   502  0.000000000E+00  0.000000000E+00 -7.730524976E+02  7.730524976E+02  0.000000000E+00  0.00000E+00  9.000E+00
      25     1     1     2     0     0  1.146420283E+02 -6.319162396E+01 -7.062185126E+02  7.290442809E+02  1.250000000E+02  0.00000E+00  9.000E+00
      25     1     1     2     0     0 -6.941448211E+01  5.255343440E+01  6.887624729E+01  1.671800563E+02  1.250000000E+02  0.00000E+00  9.000E+00
      21     1     1     2   501   512 -4.522754620E+01  1.063818956E+01  7.981448545E+01  9.235287813E+01  1.348699152E-06  0.00000E+00  9.000E+00
#rwgt            1           1   2.8662826496927828E-002          10      145532           0
</event>
<event>
      5   9999  3.19816E-02  9.80802E+01 -1.00000E+00  1.24208E-01
      21    -1     0     0   511   501  0.000000000E+00  0.000000000E+00  1.254913443E+02  1.254913443E+02  0.000000000E+00  0.00000E+00  9.000E+00
      21    -1     0     0   501   502  0.000000000E+00  0.000000000E+00 -1.264452561E+03  1.264452561E+03  0.000000000E+00  0.00000E+00  9.000E+00
      25     1     1     2     0     0 -2.478156975E+01 -3.793151775E+01  3.795821445E+01  1.382705763E+02  1.250000000E+02  0.00000E+00  9.000E+00
      25     1     1     2     0     0 -6.941678693E+01  1.061120432E+01 -1.136635725E+03  1.145642640E+03  1.250000000E+02  0.00000E+00  9.000E+00
      21     1     1     2   511   502  9.419835668E+01  2.732031343E+01 -4.028370584E+01  1.060306884E+02  9.536743164E-07  0.00000E+00  9.000E+00
#rwgt            1           1   2.9414262528832408E-002          10      145664           0
</event>
<event>
      5   9999  3.19816E-02  9.56511E+01 -1.00000E+00  1.24703E-01
      21    -1     0     0   502   512  0.000000000E+00  0.000000000E+00  4.429853681E+02  4.429853681E+02  0.000000000E+00  0.00000E+00  9.000E+00
      21    -1     0     0   501   502  0.000000000E+00  0.000000000E+00 -3.801150616E+02  3.801150616E+02  0.000000000E+00  0.00000E+00  9.000E+00
      25     1     1     2     0     0 -1.769585994E+02 -8.180169977E+01 -1.130512963E+02  2.577042095E+02  1.250000000E+02  0.00000E+00  9.000E+00
      25     1     1     2     0     0  1.593730433E+02 -1.221895326E+01 -1.325928726E+02  2.423941823E+02  1.250000000E+02  0.00000E+00  9.000E+00
      21     1     1     2   501   512  1.758555607E+01  9.402065303E+01  3.085144753E+02  3.230020379E+02  3.814697266E-06  0.00000E+00  9.000E+00
#rwgt            1           1   2.6181201082509212E-002          10      145757           0
</event>
<event>
      5   9999  3.19816E-02  9.89261E+00 -1.00000E+00  1.96301E-01
      21    -1     0     0   511   501  0.000000000E+00  0.000000000E+00  2.651229425E+02  2.651229425E+02  0.000000000E+00  0.00000E+00  9.000E+00
      21    -1     0     0   501   502  0.000000000E+00  0.000000000E+00 -2.528472213E+02  2.528472213E+02  0.000000000E+00  0.00000E+00  9.000E+00
      25     1     1     2     0     0 -1.108540481E+01 -1.157616353E+02  8.889359325E+01  1.924856185E+02  1.250000000E+02  0.00000E+00  9.000E+00
      25     1     1     2     0     0  1.680646135E+00  1.126933771E+02 -1.655042789E+02  2.360493341E+02  1.250000000E+02  0.00000E+00  9.000E+00
      21     1     1     2   511   502  9.404758672E+00  3.068258236E+00  8.888640682E+01  8.943521125E+01  0.000000000E+00  0.00000E+00  9.000E+00
#rwgt            1           1   2.4553717921908764E-002          10      145806           0
</event>
<event>
      5   9999  3.19816E-02  3.56100E+01 -1.00000E+00  1.48043E-01
      21    -1     0     0   502   512  0.000000000E+00  0.000000000E+00  4.608099416E+02  4.608099416E+02  0.000000000E+00  0.00000E+00  9.000E+00
      21    -1     0     0   501   502  0.000000000E+00  0.000000000E+00 -1.643004581E+02  1.643004581E+02  0.000000000E+00  0.00000E+00  9.000E+00
      25     1     1     2     0     0  1.937530131E+01 -4.711093038E+01  1.179542366E+02  1.792569218E+02  1.250000000E+02  0.00000E+00  9.000E+00
      25     1     1     2     0     0 -5.368274093E+01  5.665395148E+01 -9.149963234E+01  1.734609167E+02  1.250000000E+02  0.00000E+00  9.000E+00
      21     1     1     2   501   512  3.430743963E+01 -9.543021103E+00  2.700548792E+02  2.723925613E+02  5.394796609E-06  0.00000E+00  9.000E+00
#rwgt            1           1   2.5338343456794789E-002          10      146042           0
</event>
<event>
      5   9999  3.19816E-02  1.45397E+02 -1.00000E+00  1.16933E-01
      21    -1     0     0   502   501  0.000000000E+00  0.000000000E+00  1.113451019E+03  1.113451019E+03  0.000000000E+00  0.00000E+00  9.000E+00
      -1    -1     0     0     0   502  0.000000000E+00  0.000000000E+00 -6.387248703E+02  6.387248703E+02  0.000000000E+00  0.00000E+00  9.000E+00
      25     1     1     2     0     0  4.585478348E+02  1.207328431E+02  4.030652589E+02  6.347669959E+02  1.250000000E+02  0.00000E+00  9.000E+00
      25     1     1     2     0     0 -3.206985183E+02 -7.449595702E+01  5.301263600E+02  6.364402131E+02  1.250000000E+02  0.00000E+00  9.000E+00
      -1     1     1     2     0   501 -1.378493165E+02 -4.623688611E+01 -4.584654704E+02  4.809686801E+02  9.344061824E-06  0.00000E+00  9.000E+00
#rwgt            1           1   2.9510246469644851E-002          10      146126           0
</event>
<event>
      5   9999  3.19816E-02  9.26639E+00 -1.00000E+00  1.99662E-01
      21    -1     0     0   502   501  0.000000000E+00  0.000000000E+00  3.381181586E+02  3.381181586E+02  0.000000000E+00  0.00000E+00  9.000E+00
      21    -1     0     0   501   511  0.000000000E+00  0.000000000E+00 -2.488143362E+02  2.488143362E+02  0.000000000E+00  0.00000E+00  9.000E+00
      25     1     1     2     0     0  1.006048521E+02  7.859416526E+00  1.500092959E+02  2.197973966E+02  1.250000000E+02  0.00000E+00  9.000E+00
      25     1     1     2     0     0 -1.071984799E+02 -1.348649615E+00  1.088028141E+02  1.973737199E+02  1.250000000E+02  0.00000E+00  9.000E+00
      21     1     1     2   502   511  6.593627841E+00 -6.510766911E+00 -1.695082876E+02  1.697613783E+02  2.697398305E-06  0.00000E+00  9.000E+00
#rwgt            1           1   2.9311975462951154E-002          10      146166           0
</event>
<event>
      5   9999  3.19816E-02  6.68490E+01 -1.00000E+00  1.32242E-01
      21    -1     0     0   502   512  0.000000000E+00  0.000000000E+00  7.118247251E+02  7.118247251E+02  0.000000000E+00  0.00000E+00  9.000E+00
      21    -1     0     0   501   502  0.000000000E+00  0.000000000E+00 -4.364931477E+02  4.364931477E+02  0.000000000E+00  0.00000E+00  9.000E+00
      25     1     1     2     0     0 -3.769681526E+02 -2.042541936E+02 -1.990568417E+02  4.889513165E+02  1.250000000E+02  0.00000E+00  9.000E+00
      25     1     1     2     0     0  3.126879695E+02  1.859009435E+02  4.391800817E+02  5.838125309E+02  1.250000000E+02  0.00000E+00  9.000E+00
      21     1     1     2   501   512  6.428018308E+01  1.835325008E+01  3.520833733E+01  7.555402533E+01  0.000000000E+00  0.00000E+00  9.000E+00
#rwgt            1           1   2.8722507359587295E-002          10      146375           0
</event>
<event>
      5   9999  3.19816E-02  8.65458E+01 -1.00000E+00  1.26718E-01
      21    -1     0     0   502   501  0.000000000E+00  0.000000000E+00  2.917391996E+02  2.917391996E+02  0.000000000E+00  0.00000E+00  9.000E+00
      21    -1     0     0   511   502  0.000000000E+00  0.000000000E+00 -1.864241502E+03  1.864241502E+03  0.000000000E+00  0.00000E+00  9.000E+00
      25     1     1     2     0     0  3.031255337E+02  1.250245537E+02 -2.892425313E+02  4.547553959E+02  1.250000000E+02  0.00000E+00  9.000E+00
      25     1     1     2     0     0 -2.799153800E+02 -2.083999883E+02  4.207630700E+01  3.730664696E+02  1.250000000E+02  0.00000E+00  9.000E+00
      21     1     1     2   511   501 -2.321015364E+01  8.337543464E+01 -1.325336078E+03  1.328158836E+03  0.000000000E+00  0.00000E+00  9.000E+00
#rwgt            1           1   3.0215993148972560E-002          10      146525           0
</event>
<event>
      5   9999  3.19816E-02  4.09280E+01 -1.00000E+00  1.44225E-01
      21    -1     0     0   502   512  0.000000000E+00  0.000000000E+00  2.971444781E+02  2.971444781E+02  0.000000000E+00  0.00000E+00  9.000E+00
      21    -1     0     0   501   502  0.000000000E+00  0.000000000E+00 -1.467620357E+02  1.467620357E+02  0.000000000E+00  0.00000E+00  9.000E+00
      25     1     1     2     0     0 -5.827357806E+01  2.424542928E+01 -4.405028621E+01  1.467960437E+02  1.250000000E+02  0.00000E+00  9.000E+00
      25     1     1     2     0     0  8.319469903E+01  8.220509897E+00  6.953449753E+01  1.656773403E+02  1.250000000E+02  0.00000E+00  9.000E+00
      21     1     1     2   501   512 -2.492112098E+01 -3.246593918E+01  1.248982310E+02  1.314331297E+02  1.348699152E-06  0.00000E+00  9.000E+00
#rwgt            1           1   5.9795457014755610E-002          10      146632           0
</event>
<event>
      5   9999  3.19816E-02  2.31257E+01 -1.00000E+00  1.61328E-01
      21    -1     0     0   502   501  0.000000000E+00  0.000000000E+00  1.011229540E+03  1.011229540E+03  0.000000000E+00  0.00000E+00  9.000E+00
      21    -1     0     0   511   502  0.000000000E+00  0.000000000E+00 -5.210627911E+01  5.210627911E+01  0.000000000E+00  0.00000E+00  9.000E+00
      25     1     1     2     0     0  4.951401848E+01 -1.065928841E+02  2.477931713E+02  3.013969753E+02  1.250000000E+02  0.00000E+00  9.000E+00
      25     1     1     2     0     0 -2.685584588E+01  1.019660796E+02  7.191634170E+02  7.375224323E+02  1.250000000E+02  0.00000E+00  9.000E+00
      21     1     1     2   511   501 -2.265817260E+01  4.626804478E+00 -7.833327825E+00  2.441641108E+01  7.152557373E-07  0.00000E+00  9.000E+00
#rwgt            1           1   2.4846288819890580E-002          10      146735           0
</event>
<event>
      5   9999  3.19816E-02  2.87614E+01 -1.00000E+00  1.54323E-01
      21    -1     0     0   512   501  0.000000000E+00  0.000000000E+00  4.069869735E+02  4.069869735E+02  0.000000000E+00  0.00000E+00  9.000E+00
      21    -1     0     0   501   502  0.000000000E+00  0.000000000E+00 -1.548712358E+02  1.548712358E+02  0.000000000E+00  0.00000E+00  9.000E+00
      25     1     1     2     0     0 -1.544516412E+02  1.299334451E+02  8.999119703E+01  2.538925465E+02  1.250000000E+02  0.00000E+00  9.000E+00
      25     1     1     2     0     0  1.257684715E+02 -1.278131946E+02  1.017820016E+02  2.411192588E+02  1.250000000E+02  0.00000E+00  9.000E+00
      21     1     1     2   512   502  2.868316977E+01 -2.120250488E+00  6.034253910E+01  6.684640391E+01  1.168007728E-06  0.00000E+00  9.000E+00
#rwgt            1           1   2.4857798432029767E-002          10      146854           0
</event>
<event>
      5   9999  3.19816E-02  1.68599E+02 -1.00000E+00  1.14417E-01
      21    -1     0     0   502   511  0.000000000E+00  0.000000000E+00  9.468687694E+02  9.468687694E+02  0.000000000E+00  0.00000E+00  9.000E+00
      21    -1     0     0   501   502  0.000000000E+00  0.000000000E+00 -1.167044808E+03  1.167044808E+03  0.000000000E+00  0.00000E+00  9.000E+00
      25     1     1     2     0     0 -7.240229985E+02  3.895681109E+02 -1.231253630E+02  8.406886882E+02  1.250000000E+02  0.00000E+00  9.000E+00
      25     1     1     2     0     0  5.674058248E+02 -4.519916046E+02 -4.634749565E+02  8.698734482E+02  1.250000000E+02  0.00000E+00  9.000E+00
      21     1     1     2   501   511  1.566171738E+02  6.242349367E+01  3.664242806E+02  4.033514412E+02  0.000000000E+00  0.00000E+00  9.000E+00
#rwgt            1           1   2.7890498909146036E-002          10      146997           0
</event>
<event>
      5   9999  3.19816E-02  2.58865E+02 -1.00000E+00  1.07716E-01
      21    -1     0     0   502   501  0.000000000E+00  0.000000000E+00  3.430898260E+02  3.430898260E+02  0.000000000E+00  0.00000E+00  9.000E+00
      21    -1     0     0   512   502  0.000000000E+00  0.000000000E+00 -1.519692982E+03  1.519692982E+03  0.000000000E+00  0.00000E+00  9.000E+00
      25     1     1     2     0     0 -4.450929900E+02 -1.632960823E+02 -2.017500988E+02  5.301900439E+02  1.250000000E+02  0.00000E+00  9.000E+00
      25     1     1     2     0     0  1.865382770E+02  1.506258121E+02  5.050337627E+01  2.750640927E+02  1.250000000E+02  0.00000E+00  9.000E+00
      21     1     1     2   512   501  2.585547130E+02  1.267027026E+01 -1.025356434E+03  1.057528672E+03  0.000000000E+00  0.00000E+00  9.000E+00
#rwgt            1           1   2.9659438363997804E-002          10      147060           0
</event>
<event>
      5   9999  3.19816E-02  3.90377E+01 -1.00000E+00  1.45499E-01
      21    -1     0     0   502   501  0.000000000E+00  0.000000000E+00  6.148620703E+02  6.148620703E+02  0.000000000E+00  0.00000E+00  9.000E+00
      21    -1     0     0   511   502  0.000000000E+00  0.000000000E+00 -2.924278539E+02  2.924278539E+02  0.000000000E+00  0.00000E+00  9.000E+00
      25     1     1     2     0     0  3.351214442E+02  1.479191387E+01  3.055305244E+02  4.706368923E+02  1.250000000E+02  0.00000E+00  9.000E+00
      25     1     1     2     0     0 -2.961125683E+02 -1.329218660E+01  1.065494222E+02  3.388762528E+02  1.250000000E+02  0.00000E+00  9.000E+00
      21     1     1     2   511   501 -3.900887587E+01 -1.499727272E+00 -8.964573024E+01  9.777677909E+01  9.536743164E-07  0.00000E+00  9.000E+00
#rwgt            1           1   3.0750017918494466E-002          10      147139           0
</event>
<event>
      5   9999  3.19816E-02  1.25771E+02 -1.00000E+00  1.19509E-01
      21    -1     0     0   512   501  0.000000000E+00  0.000000000E+00  2.165107820E+02  2.165107820E+02  0.000000000E+00  0.00000E+00  9.000E+00
      21    -1     0     0   501   502  0.000000000E+00  0.000000000E+00 -1.863985579E+03  1.863985579E+03  0.000000000E+00  0.00000E+00  9.000E+00
      25     1     1     2     0     0 -2.095991146E+02  1.357499668E+02 -1.639108343E+03  1.662726978E+03  1.250000000E+02  0.00000E+00  9.000E+00
      25     1     1     2     0     0  2.416950671E+02 -1.414354664E+01 -6.455842930E+01  2.800166712E+02  1.250000000E+02  0.00000E+00  9.000E+00
      21     1     1     2   512   502 -3.209595249E+01 -1.216064201E+02  5.619197529E+01  1.377527120E+02  3.438521648E-06  0.00000E+00  9.000E+00
#rwgt            1           1   2.3218541491773954E-002          10      147313           0
</event>
<event>
      5   9999  3.19816E-02  6.02516E+01 -1.00000E+00  1.34606E-01
      21    -1     0     0   511   501  0.000000000E+00  0.000000000E+00  1.125637360E+03  1.125637360E+03  0.000000000E+00  0.00000E+00  9.000E+00
      21    -1     0     0   501   502  0.000000000E+00  0.000000000E+00 -3.168663583E+02  3.168663583E+02  0.000000000E+00  0.00000E+00  9.000E+00
      25     1     1     2     0     0 -7.320716554E+01  2.930864942E+02  9.425455842E+02  9.976352843E+02  1.250000000E+02  0.00000E+00  9.000E+00
      25     1     1     2     0     0  1.271000517E+02 -2.661456876E+02 -1.813445096E+02  3.681015911E+02  1.250000000E+02  0.00000E+00  9.000E+00
      21     1     1     2   511   502 -5.389288615E+01 -2.694080658E+01  4.756992728E+01  7.676684322E+01  1.168007728E-06  0.00000E+00  9.000E+00
#rwgt            1           1   3.0749023429033639E-002          10      147391           0
</event>
<event>
      5   9999  3.19816E-02  3.11325E+01 -1.00000E+00  1.51930E-01
      21    -1     0     0   502   501  0.000000000E+00  0.000000000E+00  3.133403089E+02  3.133403089E+02  0.000000000E+00  0.00000E+00  9.000E+00
      21    -1     0     0   501   512  0.000000000E+00  0.000000000E+00 -2.759677502E+02  2.759677502E+02  0.000000000E+00  0.00000E+00  9.000E+00
      25     1     1     2     0     0 -1.513236433E+02 -1.131640555E+02  1.253227272E+01  2.269074841E+02  1.250000000E+02  0.00000E+00  9.000E+00
      25     1     1     2     0     0  1.723705336E+02  1.361044457E+02  1.070856098E+02  2.744601042E+02  1.250000000E+02  0.00000E+00  9.000E+00
      21     1     1     2   502   512 -2.104689035E+01 -2.294039018E+01 -8.224532388E+01  8.794047074E+01  1.348699152E-06  0.00000E+00  9.000E+00
#rwgt            1           1   2.4912593850834559E-002          10      147469           0
</event>
<event>
      5   9999  3.19816E-02  2.91306E+01 -1.00000E+00  1.53932E-01
      21    -1     0     0   502   501  0.000000000E+00  0.000000000E+00  1.167431449E+03  1.167431449E+03  0.000000000E+00  0.00000E+00  9.000E+00
      21    -1     0     0   501   511  0.000000000E+00  0.000000000E+00 -1.116414870E+02  1.116414870E+02  0.000000000E+00  0.00000E+00  9.000E+00
      25     1     1     2     0     0  2.272202459E+02 -3.791526432E+01  3.228979845E+02  4.158782464E+02  1.250000000E+02  0.00000E+00  9.000E+00
      25     1     1     2     0     0 -2.289223019E+02  6.699610532E+01  7.701653912E+02  8.158882450E+02  1.250000000E+02  0.00000E+00  9.000E+00
      21     1     1     2   502   511  1.702055949E+00 -2.908084100E+01 -3.727341388E+01  4.730644449E+01  8.259061849E-07  0.00000E+00  9.000E+00
#rwgt            1           1   2.8815981445089740E-002          10      147577           0
</event>
<event>
      5   9999  3.19816E-02  4.17837E+01 -1.00000E+00  1.43675E-01
      21    -1     0     0   502   501  0.000000000E+00  0.000000000E+00  6.347174248E+01  6.347174248E+01  0.000000000E+00  0.00000E+00  9.000E+00
      21    -1     0     0   512   502  0.000000000E+00  0.000000000E+00 -9.637178115E+02  9.637178115E+02  0.000000000E+00  0.00000E+00  9.000E+00
      25     1     1     2     0     0  4.634126168E+01 -7.704051398E+00 -3.367113318E+01  1.377156859E+02  1.250000000E+02  0.00000E+00  9.000E+00
      25     1     1     2     0     0 -5.516818215E+01  4.854479377E+01 -5.022917113E+02  5.228021505E+02  1.250000000E+02  0.00000E+00  9.000E+00
      21     1     1     2   512   501  8.826920469E+00 -4.084074238E+01 -3.642832245E+02  3.666717175E+02  5.394796609E-06  0.00000E+00  9.000E+00
#rwgt            1           1   3.0318253496040299E-002          10      147733           0
</event>
<event>
      5   9999  3.19816E-02  3.60245E+02 -1.00000E+00  1.03072E-01
      21    -1     0     0   511   501  0.000000000E+00  0.000000000E+00  7.047673680E+02  7.047673680E+02  0.000000000E+00  0.00000E+00  9.000E+00
      21    -1     0     0   501   502  0.000000000E+00  0.000000000E+00 -3.833291192E+02  3.833291192E+02  0.000000000E+00  0.00000E+00  9.000E+00
      25     1     1     2     0     0 -1.166776425E+02 -3.252563350E+02 -5.832445907E+01  3.720646426E+02  1.250000000E+02  0.00000E+00  9.000E+00
      25     1     1     2     0     0 -9.693598798E+01  3.517821066E+01 -3.590960971E+01  1.659776863E+02  1.250000000E+02  0.00000E+00  9.000E+00
      21     1     1     2   511   502  2.136136305E+02  2.900781244E+02  4.156723176E+02  5.500541583E+02  7.629394531E-06  0.00000E+00  9.000E+00
#rwgt            2          11   4.9809793944940286E-003          10      147803           0
</event>
<event>
      5   9999  3.19816E-02  3.17921E+01 -1.00000E+00  1.51310E-01
      21    -1     0     0   502   501  0.000000000E+00  0.000000000E+00  3.330951964E+02  3.330951964E+02  0.000000000E+00  0.00000E+00  9.000E+00
      21    -1     0     0   501   512  0.000000000E+00  0.000000000E+00 -3.150461034E+02  3.150461034E+02  0.000000000E+00  0.00000E+00  9.000E+00
      25     1     1     2     0     0  1.239027805E+02  2.124445393E+02  6.859301755E+01  2.842790589E+02  1.250000000E+02  0.00000E+00  9.000E+00
      25     1     1     2     0     0 -1.383369383E+02 -1.841180474E+02  4.257137609E+01  2.654691808E+02  1.250000000E+02  0.00000E+00  9.000E+00
      21     1     1     2   502   512  1.443415786E+01 -2.832649185E+01 -9.311530069E+01  9.839306010E+01  0.000000000E+00  0.00000E+00  9.000E+00
#rwgt            1           1   3.3248833919031939E-002          10      147838           0
</event>
<event>
      5   9999  3.19816E-02  7.52832E+01 -1.00000E+00  1.29640E-01
      21    -1     0     0   502   501  0.000000000E+00  0.000000000E+00  2.067329078E+02  2.067329078E+02  0.000000000E+00  0.00000E+00  9.000E+00
      21    -1     0     0   501   511  0.000000000E+00  0.000000000E+00 -1.602565970E+03  1.602565970E+03  0.000000000E+00  0.00000E+00  9.000E+00
      25     1     1     2     0     0  4.339359297E+02  1.927861626E+02 -1.087204726E+03  1.192940071E+03  1.250000000E+02  0.00000E+00  9.000E+00
      25     1     1     2     0     0 -3.634087855E+02 -1.664521676E+02 -1.573590392E+02  4.473914803E+02  1.250000000E+02  0.00000E+00  9.000E+00
      21     1     1     2   502   511 -7.052714424E+01 -2.633399501E+01 -1.512692970E+02  1.689673270E+02  3.303624740E-06  0.00000E+00  9.000E+00
#rwgt            1           1   3.0810642039549849E-002          10      148020           0
</event>
<event>
      5   9999  3.19816E-02  1.07949E+02 -1.00000E+00  1.22352E-01
      21    -1     0     0   502   501  0.000000000E+00  0.000000000E+00  6.833134176E+01  6.833134176E+01  0.000000000E+00  0.00000E+00  9.000E+00
       1    -1     0     0   501     0  0.000000000E+00  0.000000000E+00 -2.021910968E+03  2.021910968E+03  0.000000000E+00  0.00000E+00  9.000E+00
      25     1     1     2     0     0 -3.124355709E+02 -4.208463355E+01 -7.967609109E+02  8.659330526E+02  1.250000000E+02  0.00000E+00  9.000E+00
      25     1     1     2     0     0  2.174076024E+02  9.329594747E+01 -5.976138276E+02  6.547804872E+02  1.250000000E+02  0.00000E+00  9.000E+00
       1     1     1     2   502     0  9.502796849E+01 -5.121131392E+01 -5.592048872E+02  5.695287695E+02  1.078959322E-05  0.00000E+00  9.000E+00
#rwgt            1           1   3.8785624031025666E-002          10      148077           0
</event>
<event>
      5   9999  3.19816E-02  9.38256E+00 -1.00000E+00  1.99012E-01
      21    -1     0     0   502   511  0.000000000E+00  0.000000000E+00  1.401083384E+03  1.401083384E+03  0.000000000E+00  0.00000E+00  9.000E+00
      21    -1     0     0   501   502  0.000000000E+00  0.000000000E+00 -2.194076934E+01  2.194076934E+01  0.000000000E+00  0.00000E+00  9.000E+00
      25     1     1     2     0     0 -1.073182084E+02 -1.745196024E+01  8.420332106E+02  8.581763784E+02  1.250000000E+02  0.00000E+00  9.000E+00
      25     1     1     2     0     0  1.063069174E+02  8.124061281E+00  4.898922885E+02  5.167074756E+02  1.250000000E+02  0.00000E+00  9.000E+00
      21     1     1     2   501   511  1.011291091E+00  9.327898957E+00  4.721711514E+01  4.814029883E+01  0.000000000E+00  0.00000E+00  9.000E+00
#rwgt            1           1   4.0089068781794343E-002          10      148130           0
</event>
<event>
      5   9999  3.19816E-02  1.75317E+02 -1.00000E+00  1.13771E-01
      21    -1     0     0   502   501  0.000000000E+00  0.000000000E+00  1.404113321E+03  1.404113321E+03  0.000000000E+00  0.00000E+00  9.000E+00
      21    -1     0     0   501   512  0.000000000E+00  0.000000000E+00 -6.625804804E+02  6.625804804E+02  0.000000000E+00  0.00000E+00  9.000E+00
      25     1     1     2     0     0 -3.718435414E+02 -6.329573632E+02 -2.406825183E+02  7.825955005E+02  1.250000000E+02  0.00000E+00  9.000E+00
      25     1     1     2     0     0  2.986550139E+02  4.736483839E+02  9.439901629E+02  1.104662861E+03  1.250000000E+02  0.00000E+00  9.000E+00
      21     1     1     2   502   512  7.318852748E+01  1.593089792E+02  3.822519596E+01  1.794354397E+02  4.422005890E-06  0.00000E+00  9.000E+00
#rwgt            2          11   9.3128430204375747E-003          10      148383           0
</event>
<event>
      5   9999  3.19816E-02  2.16095E+01 -1.00000E+00  1.63643E-01
      21    -1     0     0   502   501  0.000000000E+00  0.000000000E+00  1.345927720E+03  1.345927720E+03  0.000000000E+00  0.00000E+00  9.000E+00
      21    -1     0     0   501   511  0.000000000E+00  0.000000000E+00 -1.588835698E+02  1.588835698E+02  0.000000000E+00  0.00000E+00  9.000E+00
      25     1     1     2     0     0  2.871980186E+02  3.737529792E+01  9.966787983E+01  3.308146023E+02  1.250000000E+02  0.00000E+00  9.000E+00
      25     1     1     2     0     0 -3.069138429E+02 -2.852902465E+01  1.099850124E+03  1.149045390E+03  1.250000000E+02  0.00000E+00  9.000E+00
      21     1     1     2   502   511  1.971582423E+01 -8.846273276E+00 -1.247385323E+01  2.495129837E+01  0.000000000E+00  0.00000E+00  9.000E+00
#rwgt            1           1   2.9662178782673798E-002          10      148403           0
</event>
<event>
      5   9999  3.19816E-02  7.86599E+01 -1.00000E+00  1.28706E-01
      21    -1     0     0   502   512  0.000000000E+00  0.000000000E+00  3.622154543E+02  3.622154543E+02  0.000000000E+00  0.00000E+00  9.000E+00
      21    -1     0     0   501   502  0.000000000E+00  0.000000000E+00 -1.876781582E+03  1.876781582E+03  0.000000000E+00  0.00000E+00  9.000E+00
      25     1     1     2     0     0 -1.337331636E+02 -6.602714862E+02 -2.244090984E+02  7.209905949E+02  1.250000000E+02  0.00000E+00  9.000E+00
      25     1     1     2     0     0  1.417568929E+02  5.820218857E+02 -1.301832855E+03  1.438484714E+03  1.250000000E+02  0.00000E+00  9.000E+00
      21     1     1     2   501   512 -8.023729268E+00  7.824960043E+01  1.167582511E+01  7.952172716E+01  1.168007728E-06  0.00000E+00  9.000E+00
#rwgt            1           1   3.0555392564739822E-002          10      148561           0
</event>
<event>
      5   9999  3.19816E-02  4.70157E+01 -1.00000E+00  1.40618E-01
      21    -1     0     0   502   501  0.000000000E+00  0.000000000E+00  2.110766958E+02  2.110766958E+02  0.000000000E+00  0.00000E+00  9.000E+00
      21    -1     0     0   501   511  0.000000000E+00  0.000000000E+00 -2.372123755E+02  2.372123755E+02  0.000000000E+00  0.00000E+00  9.000E+00
      25     1     1     2     0     0  5.756934282E+01  1.034314996E+02  3.639167463E+01  1.759592519E+02  1.250000000E+02  0.00000E+00  9.000E+00
      25     1     1     2     0     0 -2.338942219E+01 -1.357147300E+02  9.598962485E+00  1.862329002E+02  1.250000000E+02  0.00000E+00  9.000E+00
      21     1     1     2   502   511 -3.417992062E+01  3.228323043E+01 -7.212631679E+01  8.609691931E+01  9.536743164E-07  0.00000E+00  9.000E+00
#rwgt            1           1   2.6878384059655411E-002          10      148667           0
</event>
<event>
      5   9999  3.19816E-02  6.01442E+01 -1.00000E+00  1.34648E-01
      21    -1     0     0   502   512  0.000000000E+00  0.000000000E+00  1.089296661E+03  1.089296661E+03  0.000000000E+00  0.00000E+00  9.000E+00
      21    -1     0     0   501   502  0.000000000E+00  0.000000000E+00 -5.090480378E+01  5.090480378E+01  0.000000000E+00  0.00000E+00  9.000E+00
      25     1     1     2     0     0  1.280709882E+02  3.702076978E+01  4.555955286E+02  4.908818607E+02  1.250000000E+02  0.00000E+00  9.000E+00
      25     1     1     2     0     0 -1.376104938E+02  2.236208574E+01  2.567765591E+02  3.177985403E+02  1.250000000E+02  0.00000E+00  9.000E+00
      21     1     1     2   501   512  9.539505542E+00 -5.938285552E+01  3.260197694E+02  3.315210638E+02  3.814697266E-06  0.00000E+00  9.000E+00
#rwgt            1           1   2.7782288072194686E-002          10      148760           0
</event>
<event>
      5   9999  3.19816E-02  7.77753E+00 -1.00000E+00  2.09285E-01
      21    -1     0     0   502   501  0.000000000E+00  0.000000000E+00  2.752197225E+02  2.752197225E+02  0.000000000E+00  0.00000E+00  9.000E+00
      21    -1     0     0   501   511  0.000000000E+00  0.000000000E+00 -1.586921377E+02  1.586921377E+02  0.000000000E+00  0.00000E+00  9.000E+00
      25     1     1     2     0     0 -3.613707005E+01  5.007781903E+01 -1.385049069E+01  1.401089286E+02  1.250000000E+02  0.00000E+00  9.000E+00
      25     1     1     2     0     0  3.742844482E+01 -5.774738725E+01  1.877986801E+02  2.358579943E+02  1.250000000E+02  0.00000E+00  9.000E+00
      21     1     1     2   502   511 -1.291374773E+00  7.669568215E+00 -5.742060457E+01  5.794493727E+01  0.000000000E+00  0.00000E+00  9.000E+00
#rwgt            1           1   2.7706656551393455E-002          10      148813           0
</event>
<event>
      5   9999  3.19816E-02  1.80198E+02 -1.00000E+00  1.13322E-01
      21    -1     0     0   502   501  0.000000000E+00  0.000000000E+00  2.223785512E+02  2.223785512E+02  0.000000000E+00  0.00000E+00  9.000E+00
      21    -1     0     0   512   502  0.000000000E+00  0.000000000E+00 -6.164395387E+02  6.164395387E+02  0.000000000E+00  0.00000E+00  9.000E+00
      25     1     1     2     0     0 -8.581295488E+01  2.937552317E+01  1.124785134E+02  1.910581078E+02  1.250000000E+02  0.00000E+00  9.000E+00
      25     1     1     2     0     0 -9.329140459E+00 -1.824089149E+02 -2.451676713E+02  3.302911324E+02  1.250000000E+02  0.00000E+00  9.000E+00
      21     1     1     2   512   501  9.514209534E+01  1.530333917E+02 -2.613718295E+02  3.174688498E+02  3.814697266E-06  0.00000E+00  9.000E+00
#rwgt            1           1   2.5338973952309832E-002          10      149007           0
</event>
<event>
      5   9999  3.19816E-02  5.48513E+01 -1.00000E+00  1.36819E-01
      21    -1     0     0   502   501  0.000000000E+00  0.000000000E+00  1.703898567E+02  1.703898567E+02  0.000000000E+00  0.00000E+00  9.000E+00
      21    -1     0     0   511   502  0.000000000E+00  0.000000000E+00 -7.407484727E+02  7.407484727E+02  0.000000000E+00  0.00000E+00  9.000E+00
      25     1     1     2     0     0 -9.679619352E+01 -1.309126744E+02 -2.495916530E+02  3.231541809E+02  1.250000000E+02  0.00000E+00  9.000E+00
      25     1     1     2     0     0  1.254678883E+02  8.415159647E+01  5.861553950E+01  2.046569414E+02  1.250000000E+02  0.00000E+00  9.000E+00
      21     1     1     2   511   501 -2.867169479E+01  4.676107796E+01 -3.793825025E+02  3.833272071E+02  5.394796609E-06  0.00000E+00  9.000E+00
#rwgt            1           1   2.8363696733759242E-002          10      149039           0
</event>
<event>
      5   9999  3.19816E-02  3.35881E+01 -1.00000E+00  1.49708E-01
      21    -1     0     0   502   501  0.000000000E+00  0.000000000E+00  4.047188178E+02  4.047188178E+02  0.000000000E+00  0.00000E+00  9.000E+00
      21    -1     0     0   501   512  0.000000000E+00  0.000000000E+00 -1.323050628E+03  1.323050628E+03  0.000000000E+00  0.00000E+00  9.000E+00
      25     1     1     2     0     0  3.646879540E+01  3.703016666E+02 -5.437508908E+02  6.706290544E+02  1.250000000E+02  0.00000E+00  9.000E+00
      25     1     1     2     0     0 -6.280321834E+01 -3.494532599E+02  2.368876463E+02  4.447500219E+02  1.250000000E+02  0.00000E+00  9.000E+00
      21     1     1     2   502   512  2.633442294E+01 -2.084840673E+01 -6.114685661E+02  6.123903699E+02  1.078959322E-05  0.00000E+00  9.000E+00
#rwgt            1           1   3.3291091693128626E-002          10      149131           0
</event>
<event>
      5   9999  3.19816E-02  1.64712E+02 -1.00000E+00  1.14806E-01
      21    -1     0     0   502   501  0.000000000E+00  0.000000000E+00  5.749652400E+02  5.749652400E+02  0.000000000E+00  0.00000E+00  9.000E+00
       2    -1     0     0   501     0  0.000000000E+00  0.000000000E+00 -5.620091553E+02  5.620091553E+02  0.000000000E+00  0.00000E+00  9.000E+00
      25     1     1     2     0     0  9.498059905E+01  5.333103334E+01  3.153513919E+02  3.562822108E+02  1.250000000E+02  0.00000E+00  9.000E+00
      25     1     1     2     0     0 -2.586662564E+02 -7.169163930E+01  1.259493443E+02  3.217703539E+02  1.250000000E+02  0.00000E+00  9.000E+00
       2     1     1     2   502     0  1.636856573E+02  1.836060596E+01 -4.283446515E+02  4.589218307E+02  0.000000000E+00  0.00000E+00  9.000E+00
#rwgt            2          13   1.2862962314974644E-003          10      149344           0
</event>
<event>
      5   9999  3.19816E-02  2.18315E+02 -1.00000E+00  1.10280E-01
       2    -1     0     0   502     0  0.000000000E+00  0.000000000E+00  6.617395587E+02  6.617395587E+02  0.000000000E+00  0.00000E+00  9.000E+00
      21    -1     0     0   501   502  0.000000000E+00  0.000000000E+00 -1.106838929E+03  1.106838929E+03  0.000000000E+00  0.00000E+00  9.000E+00
      25     1     1     2     0     0 -1.398875748E+02  6.672158303E+01 -9.222029960E+02  9.434530561E+02  1.250000000E+02  0.00000E+00  9.000E+00
      25     1     1     2     0     0 -7.814307484E+01 -7.785575752E+01 -1.093364229E+02  1.993672804E+02  1.250000000E+02  0.00000E+00  9.000E+00
       2     1     1     2   501     0  2.180306496E+02  1.113417449E+01  5.864400482E+02  6.257581515E+02  7.629394531E-06  0.00000E+00  9.000E+00
#rwgt            1           1   2.7524169520254209E-002          10      149363           0
</event>
<event>
      5   9999  3.19816E-02  9.96053E+01 -1.00000E+00  1.23905E-01
       2    -1     0     0   502     0  0.000000000E+00  0.000000000E+00  6.082473827E+02  6.082473827E+02  0.000000000E+00  0.00000E+00  9.000E+00
      21    -1     0     0   501   502  0.000000000E+00  0.000000000E+00 -1.079104764E+02  1.079104764E+02  0.000000000E+00  0.00000E+00  9.000E+00
      25     1     1     2     0     0  1.537570500E+02  4.372676174E+01  1.909232793E+02  2.786215331E+02  1.250000000E+02  0.00000E+00  9.000E+00
      25     1     1     2     0     0 -1.038706043E+02 -1.299390637E+02  2.299128037E+02  3.100937923E+02  1.250000000E+02  0.00000E+00  9.000E+00
       2     1     1     2   501     0 -4.988644577E+01  8.621230195E+01  7.950082324E+01  1.274425336E+02  1.348699152E-06  0.00000E+00  9.000E+00
#rwgt            1           1   2.6278251553654177E-002          10      149394           0
</event>
<event>
      5   9999  3.19816E-02  8.15146E+01 -1.00000E+00  1.27956E-01
      21    -1     0     0   502   501  0.000000000E+00  0.000000000E+00  2.689440431E+03  2.689440431E+03  0.000000000E+00  0.00000E+00  9.000E+00
      21    -1     0     0   501   511  0.000000000E+00  0.000000000E+00 -3.858978376E+01  3.858978376E+01  0.000000000E+00  0.00000E+00  9.000E+00
      25     1     1     2     0     0 -4.964709995E+01  9.185101518E+01  4.786361840E+02  5.055878165E+02  1.250000000E+02  0.00000E+00  9.000E+00
      25     1     1     2     0     0  1.136752725E+02 -1.422992032E+02  2.105642177E+03  2.117197466E+03  1.250000000E+02  0.00000E+00  9.000E+00
      21     1     1     2   502   511 -6.402817254E+01  5.044818799E+01  6.657228608E+01  1.052449325E+02  2.861022949E-06  0.00000E+00  9.000E+00
#rwgt            1           1   4.0408858530921549E-002          10      149447           0
</event>
<event>
      5   9999  3.19816E-02  6.20570E+01 -1.00000E+00  1.33926E-01
      21    -1     0     0   502   501  0.000000000E+00  0.000000000E+00  1.632525469E+02  1.632525469E+02  0.000000000E+00  0.00000E+00  9.000E+00
       2    -1     0     0   501     0  0.000000000E+00  0.000000000E+00 -4.188383165E+02  4.188383165E+02  0.000000000E+00  0.00000E+00  9.000E+00
      25     1     1     2     0     0  6.370110429E+01  5.741381649E+01 -2.216082860E+02  2.684947103E+02  1.250000000E+02  0.00000E+00  9.000E+00
      25     1     1     2     0     0 -8.677957925E+00 -8.611096349E+01  8.876851696E+01  1.760546920E+02  1.250000000E+02  0.00000E+00  9.000E+00
       2     1     1     2   502     0 -5.502314636E+01  2.869714700E+01 -1.227460005E+02  1.375414611E+02  1.348699152E-06  0.00000E+00  9.000E+00
#rwgt            1           1   2.6169139743961605E-002          10      149533           0
</event>
<event>
      5   9999  3.19816E-02  6.82891E+01 -1.00000E+00  1.31767E-01
      21    -1     0     0   502   501  0.000000000E+00  0.000000000E+00  1.092263393E+03  1.092263393E+03  0.000000000E+00  0.00000E+00  9.000E+00
      21    -1     0     0   511   502  0.000000000E+00  0.000000000E+00 -1.044331326E+02  1.044331326E+02  0.000000000E+00  0.00000E+00  9.000E+00
      25     1     1     2     0     0  8.578874451E+01  3.004297809E+00  2.681838206E+01  1.539901299E+02  1.250000000E+02  0.00000E+00  9.000E+00
      25     1     1     2     0     0 -1.501953108E+02 -2.570216312E+01  9.539000174E+02  9.740479844E+02  1.250000000E+02  0.00000E+00  9.000E+00
      21     1     1     2   511   501  6.440656628E+01  2.269786531E+01  7.111860857E+00  6.865841125E+01  9.386548846E-07  0.00000E+00  9.000E+00
#rwgt            1           1   3.1167751568532368E-002          10      149603           0
</event>
<event>
      5   9999  3.19816E-02  7.56137E+01 -1.00000E+00  1.29546E-01
      21    -1     0     0   502   512  0.000000000E+00  0.000000000E+00  1.978342919E+03  1.978342919E+03  0.000000000E+00  0.00000E+00  9.000E+00
      21    -1     0     0   501   502  0.000000000E+00  0.000000000E+00 -5.960131632E+01  5.960131632E+01  0.000000000E+00  0.00000E+00  9.000E+00
      25     1     1     2     0     0  1.559176102E+02 -7.683710383E+01  7.556751919E+02  7.854197841E+02  1.250000000E+02  0.00000E+00  9.000E+00
      25     1     1     2     0     0 -2.185465175E+02  3.446907494E+01  3.323234367E+02  4.183474202E+02  1.250000000E+02  0.00000E+00  9.000E+00
      21     1     1     2   501   512  6.262890727E+01  4.236802889E+01  8.307429746E+02  8.341770314E+02  0.000000000E+00  0.00000E+00  9.000E+00
#rwgt            1           1   3.0861158794113677E-002          10      149721           0
</event>
<event>
      5   9999  3.19816E-02  1.53297E+02 -1.00000E+00  1.16021E-01
      21    -1     0     0   502   501  0.000000000E+00  0.000000000E+00  4.072435999E+02  4.072435999E+02  0.000000000E+00  0.00000E+00  9.000E+00
      21    -1     0     0   501   511  0.000000000E+00  0.000000000E+00 -2.948235040E+02  2.948235040E+02  0.000000000E+00  0.00000E+00  9.000E+00
      25     1     1     2     0     0 -1.746501639E+02 -1.631032247E+02  1.997248729E+02  3.355895805E+02  1.250000000E+02  0.00000E+00  9.000E+00
      25     1     1     2     0     0  1.171078093E+02  2.101607709E+01  2.777490072E+01  1.747923328E+02  1.250000000E+02  0.00000E+00  9.000E+00
      21     1     1     2   502   511  5.754235459E+01  1.420871476E+02 -1.150796777E+02  1.916851906E+02  4.473129043E-06  0.00000E+00  9.000E+00
#rwgt            1           1   2.5877994051885053E-002          10      149809           0
</event>
<event>
      5   9999  3.19816E-02  9.36711E+01 -1.00000E+00  1.25119E-01
      21    -1     0     0   502   501  0.000000000E+00  0.000000000E+00  1.933871358E+03  1.933871358E+03  0.000000000E+00  0.00000E+00  9.000E+00
      21    -1     0     0   501   512  0.000000000E+00  0.000000000E+00 -1.339886243E+02  1.339886243E+02  0.000000000E+00  0.00000E+00  9.000E+00
      25     1     1     2     0     0 -1.361791091E+02  2.435878837E+02  1.444332489E+02  3.381800855E+02  1.250000000E+02  0.00000E+00  9.000E+00
      25     1     1     2     0     0  2.275014972E+02 -2.644323101E+02  1.523159522E+03  1.567584546E+03  1.250000000E+02  0.00000E+00  9.000E+00
      21     1     1     2   502   512 -9.132238807E+01  2.084442640E+01  1.322899629E+02  1.620953514E+02  2.697398305E-06  0.00000E+00  9.000E+00
#rwgt            1           1   2.8831571223073053E-002          10      149875           0
</event>
<event>
      5   9999  3.19816E-02  8.72801E+01 -1.00000E+00  1.26545E-01
      21    -1     0     0   511   501  0.000000000E+00  0.000000000E+00  1.689295444E+03  1.689295444E+03  0.000000000E+00  0.00000E+00  9.000E+00
      21    -1     0     0   501   502  0.000000000E+00  0.000000000E+00 -1.382721603E+02  1.382721603E+02  0.000000000E+00  0.00000E+00  9.000E+00
      25     1     1     2     0     0  1.772755999E+02  1.854786550E+02  8.454148289E+02  8.922893044E+02  1.250000000E+02  0.00000E+00  9.000E+00
      25     1     1     2     0     0 -2.478728074E+02 -1.341575491E+02  1.010640119E+02  3.244658859E+02  1.250000000E+02  0.00000E+00  9.000E+00
      21     1     1     2   511   502  7.059720748E+01 -5.132110586E+01  6.045444431E+02  6.108124142E+02  0.000000000E+00  0.00000E+00  9.000E+00
#rwgt            1           1   2.2045983800587098E-002          10      149975           0
</event>
<event>
      5   9999  3.19816E-02  8.37721E+01 -1.00000E+00  1.27388E-01
      21    -1     0     0   512   501  0.000000000E+00  0.000000000E+00  4.427799500E+02  4.427799500E+02  0.000000000E+00  0.00000E+00  9.000E+00
      21    -1     0     0   501   502  0.000000000E+00  0.000000000E+00 -1.088735355E+03  1.088735355E+03  0.000000000E+00  0.00000E+00  9.000E+00
      25     1     1     2     0     0 -4.614647615E+02  1.090287517E+01 -8.493486812E+02  9.747239512E+02  1.250000000E+02  0.00000E+00  9.000E+00
      25     1     1     2     0     0  4.089780390E+02 -7.619379308E+01  1.754299969E+02  4.684754148E+02  1.250000000E+02  0.00000E+00  9.000E+00
      21     1     1     2   512   502  5.248672249E+01  6.529091791E+01  2.796327978E+01  8.831593862E+01  1.348699152E-06  0.00000E+00  9.000E+00
#rwgt            1           1   3.1106178909085510E-002          10      150035           0
</event>
<event>
      5   9999  3.19816E-02  2.58235E+02 -1.00000E+00  1.07751E-01
      21    -1     0     0   502   511  0.000000000E+00  0.000000000E+00  7.592813074E+02  7.592813074E+02  0.000000000E+00  0.00000E+00  9.000E+00
      21    -1     0     0   501   502  0.000000000E+00  0.000000000E+00 -4.160867994E+02  4.160867994E+02  0.000000000E+00  0.00000E+00  9.000E+00
      25     1     1     2     0     0 -6.114914514E+00  1.244491162E+02 -2.511507224E+02  3.069636135E+02  1.250000000E+02  0.00000E+00  9.000E+00
      25     1     1     2     0     0  2.137972883E+02 -2.779205315E+02  3.895748329E+02  5.388345319E+02  1.250000000E+02  0.00000E+00  9.000E+00
      21     1     1     2   501   511 -2.076823738E+02  1.534714153E+02  2.047703974E+02  3.295699613E+02  5.394796609E-06  0.00000E+00  9.000E+00
#rwgt            1           1   2.8407540318901817E-002          10      150142           0
</event>
<event>
      5   9999  3.19816E-02  1.47112E+02 -1.00000E+00  1.16729E-01
      21    -1     0     0   512   501  0.000000000E+00  0.000000000E+00  1.658903292E+03  1.658903292E+03  0.000000000E+00  0.00000E+00  9.000E+00
      21    -1     0     0   501   502  0.000000000E+00  0.000000000E+00 -5.823469402E+02  5.823469402E+02  0.000000000E+00  0.00000E+00  9.000E+00
      25     1     1     2     0     0  8.600636703E+02 -3.531474133E+02  4.404045283E+02  1.036341527E+03  1.250000000E+02  0.00000E+00  9.000E+00
      25     1     1     2     0     0 -8.371771250E+02  2.078269320E+02  5.020683139E+02  1.005860410E+03  1.250000000E+02  0.00000E+00  9.000E+00
      21     1     1     2   512   502 -2.288654533E+01  1.453204813E+02  1.340835093E+02  1.990482949E+02  2.697398305E-06  0.00000E+00  9.000E+00
#rwgt            2          11   9.8820580187928882E-003          10      150193           0
</event>
<event>
      5   9999  3.19816E-02  1.76080E+02 -1.00000E+00  1.13700E-01
      21    -1     0     0   502   501  0.000000000E+00  0.000000000E+00  1.274296391E+03  1.274296391E+03  0.000000000E+00  0.00000E+00  9.000E+00
      21    -1     0     0   511   502  0.000000000E+00  0.000000000E+00 -1.628636748E+02  1.628636748E+02  0.000000000E+00  0.00000E+00  9.000E+00
      25     1     1     2     0     0 -7.837458519E+01 -6.056959120E+00  2.291475980E+02  2.726038958E+02  1.250000000E+02  0.00000E+00  9.000E+00
      25     1     1     2     0     0  2.491097595E+02 -3.699868517E+01  9.385078851E+02  9.797176253E+02  1.250000000E+02  0.00000E+00  9.000E+00
      21     1     1     2   511   501 -1.707351743E+02  4.305564429E+01 -5.622276652E+01  1.848385450E+02  2.023048729E-06  0.00000E+00  9.000E+00
#rwgt            1           1   3.1020353381080463E-002          10      150213           0
</event>
<event>
      5   9999  3.19816E-02  1.05616E+02 -1.00000E+00  1.22770E-01
       2    -1     0     0   502     0  0.000000000E+00  0.000000000E+00  1.888887927E+03  1.888887927E+03  0.000000000E+00  0.00000E+00  9.000E+00
      21    -1     0     0   501   502  0.000000000E+00  0.000000000E+00 -4.167514629E+01  4.167514629E+01  0.000000000E+00  0.00000E+00  9.000E+00
      25     1     1     2     0     0  4.907425602E+01  7.181485329E+01  5.236945898E+02  5.453867244E+02  1.250000000E+02  0.00000E+00  9.000E+00
      25     1     1     2     0     0 -4.741344944E+01  3.378762988E+01  1.384280140E+02  1.953892376E+02  1.250000000E+02  0.00000E+00  9.000E+00
       2     1     1     2   501     0 -1.660806582E+00 -1.056024832E+02  1.185090176E+03  1.189787111E+03  1.525878906E-05  0.00000E+00  9.000E+00
#rwgt            1           1   8.1431645291004259E-002          10      150248           0
</event>
<event>
      5   9999  3.19816E-02  3.68677E+01 -1.00000E+00  1.47071E-01
      21    -1     0     0   502   501  0.000000000E+00  0.000000000E+00  1.652102629E+03  1.652102629E+03  0.000000000E+00  0.00000E+00  9.000E+00
      21    -1     0     0   501   511  0.000000000E+00  0.000000000E+00 -1.364985889E+03  1.364985889E+03  0.000000000E+00  0.00000E+00  9.000E+00
      25     1     1     2     0     0  1.051045738E+03  5.623359027E+02  1.041989030E+02  1.203079890E+03  1.250000000E+02  0.00000E+00  9.000E+00
      25     1     1     2     0     0 -1.060842010E+03 -5.267934996E+02  6.422854164E+02  1.353163965E+03  1.250000000E+02  0.00000E+00  9.000E+00
      21     1     1     2   502   511  9.796271592E+00 -3.554240317E+01 -4.593675791E+02  4.608446616E+02  5.394796609E-06  0.00000E+00  9.000E+00
#rwgt            1           1   6.5702603150345568E-002          10      150306           0
</event>
<event>
      5   9999  3.19816E-02  2.09530E+01 -1.00000E+00  1.64718E-01
      21    -1     0     0   502   512  0.000000000E+00  0.000000000E+00  5.227162061E+01  5.227162061E+01  0.000000000E+00  0.00000E+00  9.000E+00
      21    -1     0     0   501   502  0.000000000E+00  0.000000000E+00 -6.262030399E+02  6.262030399E+02  0.000000000E+00  0.00000E+00  9.000E+00
      25     1     1     2     0     0 -2.208618835E+01 -4.433222854E+01 -4.560484676E+02  4.754559401E+02  1.250000000E+02  0.00000E+00  9.000E+00
      25     1     1     2     0     0  2.648795059E+01  6.481769392E+01 -1.099992481E+02  1.806316128E+02  1.250000000E+02  0.00000E+00  9.000E+00
      21     1     1     2   501   512 -4.401762243E+00 -2.048546538E+01 -7.883703627E+00  2.238710758E+01  5.264139692E-07  0.00000E+00  9.000E+00
#rwgt            1           1   3.2636112080703154E-002          10      150518           0
</event>
<event>
      5   9999  3.19816E-02  2.57042E+02 -1.00000E+00  1.07820E-01
      21    -1     0     0   502   501  0.000000000E+00  0.000000000E+00  1.493595013E+02  1.493595013E+02  0.000000000E+00  0.00000E+00  9.000E+00
      21    -1     0     0   501   511  0.000000000E+00  0.000000000E+00 -1.580176114E+03  1.580176114E+03  0.000000000E+00  0.00000E+00  9.000E+00
      25     1     1     2     0     0 -9.107990894E+01 -1.058116115E+02 -6.597926515E+02  6.858884675E+02  1.250000000E+02  0.00000E+00  9.000E+00
      25     1     1     2     0     0  1.479808426E+02 -1.448529922E+02 -1.188430516E+01  2.421713357E+02  1.250000000E+02  0.00000E+00  9.000E+00
      21     1     1     2   502   511 -5.690093368E+01  2.506646036E+02 -7.591396557E+02  8.014758116E+02  1.078959322E-05  0.00000E+00  9.000E+00
#rwgt            1           1   2.7637238834508016E-002          10      150677           0
</event>
<event>
      5   9999  3.19816E-02  2.70865E+01 -1.00000E+00  1.56187E-01
      21    -1     0     0   502   512  0.000000000E+00  0.000000000E+00  1.234419076E+03  1.234419076E+03  0.000000000E+00  0.00000E+00  9.000E+00
      21    -1     0     0   501   502  0.000000000E+00  0.000000000E+00 -3.784040584E+02  3.784040584E+02  0.000000000E+00  0.00000E+00  9.000E+00
      25     1     1     2     0     0 -4.906473100E+02  3.576210934E+02  6.465025280E+02  8.956663151E+02  1.250000000E+02  0.00000E+00  9.000E+00
      25     1     1     2     0     0  4.909709865E+02 -3.847056595E+02  1.526914285E+02  6.542099253E+02  1.250000000E+02  0.00000E+00  9.000E+00
      21     1     1     2   501   512 -3.236764838E-01  2.708456602E+01  5.682106121E+01  6.294689412E+01  6.743495762E-07  0.00000E+00  9.000E+00
#rwgt            1           1   3.0317391629462044E-002          10      150779           0
</event>
<event>
      5   9999  3.19816E-02  3.23006E+01 -1.00000E+00  1.50844E-01
      21    -1     0     0   502   501  0.000000000E+00  0.000000000E+00  2.380055045E+02  2.380055045E+02  0.000000000E+00  0.00000E+00  9.000E+00
      21    -1     0     0   501   511  0.000000000E+00  0.000000000E+00 -2.153059338E+03  2.153059338E+03  0.000000000E+00  0.00000E+00  9.000E+00
      25     1     1     2     0     0 -4.017311074E+02 -3.667416242E+02 -1.240787164E+03  1.360538529E+03  1.250000000E+02  0.00000E+00  9.000E+00
      25     1     1     2     0     0  3.745430281E+02  3.841810713E+02 -2.499137065E+02  6.049458125E+02  1.250000000E+02  0.00000E+00  9.000E+00
      21     1     1     2   502   511  2.718807935E+01 -1.743944709E+01 -4.243529630E+02  4.255805014E+02  5.394796609E-06  0.00000E+00  9.000E+00
#rwgt            1           1   3.0054091146972241E-002          10      150964           0
</event>
<event>
      5   9999  3.19816E-02  8.13251E+01 -1.00000E+00  1.28005E-01
       2    -1     0     0   502     0  0.000000000E+00  0.000000000E+00  2.071244304E+03  2.071244304E+03  0.000000000E+00  0.00000E+00  9.000E+00
      21    -1     0     0   501   502  0.000000000E+00  0.000000000E+00 -2.831093456E+02  2.831093456E+02  0.000000000E+00  0.00000E+00  9.000E+00
      25     1     1     2     0     0 -1.351000274E+02 -2.854361982E+02  1.166286136E+02  3.591003678E+02  1.250000000E+02  0.00000E+00  9.000E+00
      25     1     1     2     0     0  5.556166213E+01  3.023896645E+02  1.029304648E+01  3.320505298E+02  1.250000000E+02  0.00000E+00  9.000E+00
       2     1     1     2   501     0  7.953836526E+01 -1.695346633E+01  1.661213298E+03  1.663202752E+03  2.157918644E-05  0.00000E+00  9.000E+00
#rwgt            1           1   2.8463004114390154E-002          10      151137           0
</event>
<event>
      5   9999  3.19816E-02  3.32407E+01 -1.00000E+00  1.50009E-01
      21    -1     0     0   511   501  0.000000000E+00  0.000000000E+00  3.416220017E+02  3.416220017E+02  0.000000000E+00  0.00000E+00  9.000E+00
      21    -1     0     0   501   502  0.000000000E+00  0.000000000E+00 -1.550545934E+02  1.550545934E+02  0.000000000E+00  0.00000E+00  9.000E+00
      25     1     1     2     0     0  6.049397394E+00  1.459629489E+02  1.228505126E+02  2.281644716E+02  1.250000000E+02  0.00000E+00  9.000E+00
      25     1     1     2     0     0  8.230178185E+00 -1.759802182E+02  2.495640031E+01  2.174502126E+02  1.250000000E+02  0.00000E+00  9.000E+00
      21     1     1     2   511   502 -1.427957558E+01  3.001726932E+01  3.876049548E+01  5.106191091E+01  4.768371582E-07  0.00000E+00  9.000E+00
#rwgt            1           1   2.9231034561765599E-002          10      151236           0
</event>
<event>
      5   9999  3.19816E-02  1.75020E+02 -1.00000E+00  1.13799E-01
      21    -1     0     0   512   501  0.000000000E+00  0.000000000E+00  1.569087784E+03  1.569087784E+03  0.000000000E+00  0.00000E+00  9.000E+00
      21    -1     0     0   501   502  0.000000000E+00  0.000000000E+00 -2.842987932E+02  2.842987932E+02  0.000000000E+00  0.00000E+00  9.000E+00
      25     1     1     2     0     0  3.522242514E+02  2.484314298E+01  4.866809031E+01  3.777203834E+02  1.250000000E+02  0.00000E+00  9.000E+00
      25     1     1     2     0     0 -3.036160475E+02  1.432914233E+02  1.722681447E+02  3.975128300E+02  1.250000000E+02  0.00000E+00  9.000E+00
      21     1     1     2   512   502 -4.860820387E+01 -1.681345663E+02  1.063852755E+03  1.078153363E+03  2.157918644E-05  0.00000E+00  9.000E+00
#rwgt            1           1   2.8810398923189064E-002          10      151355           0
</event>
<event>
      5   9999  3.19816E-02  2.63880E+01 -1.00000E+00  1.57013E-01
      21    -1     0     0   502   511  0.000000000E+00  0.000000000E+00  1.387640479E+03  1.387640479E+03  0.000000000E+00  0.00000E+00  9.000E+00
      21    -1     0     0   501   502  0.000000000E+00  0.000000000E+00 -2.002442299E+02  2.002442299E+02  0.000000000E+00  0.00000E+00  9.000E+00
      25     1     1     2     0     0  6.801452177E+01 -1.219870396E+02 -1.381734086E+02  2.328598374E+02  1.250000000E+02  0.00000E+00  9.000E+00
      25     1     1     2     0     0 -5.395564648E+01  1.443180628E+02  6.659224719E+02  6.948500943E+02  1.250000000E+02  0.00000E+00  9.000E+00
      21     1     1     2   501   511 -1.405887529E+01 -2.233102316E+01  6.596471861E+02  6.601747774E+02  7.629394531E-06  0.00000E+00  9.000E+00
#rwgt            1           1   2.7528846028944287E-002          10      151393           0
</event>
<event>
      5   9999  3.26423E-02  5.64125E+01 -1.00000E+00  1.36150E-01
      21    -1     0     0   512   501  0.000000000E+00  0.000000000E+00  2.492459142E+03  2.492459142E+03  0.000000000E+00  0.00000E+00  9.000E+00
      21    -1     0     0   501   502  0.000000000E+00  0.000000000E+00 -3.683548778E+01  3.683548778E+01  0.000000000E+00  0.00000E+00  9.000E+00
      25     1     1     2     0     0  2.163707797E+02  1.832299243E+01  7.055361790E+02  7.487044452E+02  1.250000000E+02  0.00000E+00  9.000E+00
      25     1     1     2     0     0 -2.193117036E+02 -7.465882161E+01  1.255801718E+03  1.283095678E+03  1.250000000E+02  0.00000E+00  9.000E+00
      21     1     1     2   512   502  2.940923904E+00  5.633582918E+01  4.942857568E+02  4.974945066E+02  5.394796609E-06  0.00000E+00  9.000E+00
#rwgt            1           1   9.5001088420223728E-002          10      151532           0
</event>
<event>
      5   9999  3.19816E-02  2.25428E+02 -1.00000E+00  1.09788E-01
      21    -1     0     0   502   501  0.000000000E+00  0.000000000E+00  5.618545637E+02  5.618545637E+02  0.000000000E+00  0.00000E+00  9.000E+00
       2    -1     0     0   501     0  0.000000000E+00  0.000000000E+00 -2.519092744E+03  2.519092744E+03  0.000000000E+00  0.00000E+00  9.000E+00
      25     1     1     2     0     0 -1.769751986E+02  2.713345668E+02  7.641533910E+01  3.555375818E+02  1.250000000E+02  0.00000E+00  9.000E+00
      25     1     1     2     0     0 -4.571129720E+01 -3.063862836E+02  2.583832768E+02  4.223138586E+02  1.250000000E+02  0.00000E+00  9.000E+00
       2     1     1     2   502     0  2.226864958E+02  3.505171683E+01 -2.292036796E+03  2.303095867E+03  3.051757812E-05  0.00000E+00  9.000E+00
#rwgt            2          13   8.0130800738083454E-003          10      151675           0
</event>
<event>
      5   9999  3.19816E-02  1.23703E+01 -1.00000E+00  1.85651E-01
      21    -1     0     0   502   501  0.000000000E+00  0.000000000E+00  5.231291481E+02  5.231291481E+02  0.000000000E+00  0.00000E+00  9.000E+00
      21    -1     0     0   511   502  0.000000000E+00  0.000000000E+00 -2.273535160E+02  2.273535160E+02  0.000000000E+00  0.00000E+00  9.000E+00
      25     1     1     2     0     0 -4.453676910E+01  1.408628448E+02 -1.491360138E+02  2.443203132E+02  1.250000000E+02  0.00000E+00  9.000E+00
      25     1     1     2     0     0  3.914201113E+01 -1.297308177E+02  4.545289274E+02  4.904933515E+02  1.250000000E+02  0.00000E+00  9.000E+00
      21     1     1     2   511   501  5.394757969E+00 -1.113202701E+01 -9.617281417E+00  1.566899935E+01  2.064765462E-07  0.00000E+00  9.000E+00
#rwgt            1           1   3.0884656130938506E-002          10      151709           0
</event>
<event>
      5   9999  3.19816E-02  4.19020E+02 -1.00000E+00  1.01082E-01
       2    -1     0     0   502     0  0.000000000E+00  0.000000000E+00  1.329935018E+03  1.329935018E+03  0.000000000E+00  0.00000E+00  9.000E+00
      21    -1     0     0   501   502  0.000000000E+00  0.000000000E+00 -2.033457065E+02  2.033457065E+02  0.000000000E+00  0.00000E+00  9.000E+00
      25     1     1     2     0     0  3.606594973E+02 -2.608699955E+01  6.992157502E+02  7.970467175E+02  1.250000000E+02  0.00000E+00  9.000E+00
      25     1     1     2     0     0  4.744881655E+01  1.210899354E+02  1.343931370E+02  2.249459445E+02  1.250000000E+02  0.00000E+00  9.000E+00
       2     1     1     2   501     0 -4.081083139E+02 -9.500293587E+01  2.929804238E+02  5.112880621E+02  5.394796609E-06  0.00000E+00  9.000E+00
#rwgt            1           1   2.7689928731585618E-002          10      151935           0
</event>
<event>
      5   9999  3.19816E-02  2.28706E+01 -1.00000E+00  1.61702E-01
      21    -1     0     0   511   501  0.000000000E+00  0.000000000E+00  3.674745160E+02  3.674745160E+02  0.000000000E+00  0.00000E+00  9.000E+00
      21    -1     0     0   501   502  0.000000000E+00  0.000000000E+00 -2.762982226E+02  2.762982226E+02  0.000000000E+00  0.00000E+00  9.000E+00
      25     1     1     2     0     0 -1.746439235E+02  2.856242258E+01 -1.699104529E+02  2.753377454E+02  1.250000000E+02  0.00000E+00  9.000E+00
      25     1     1     2     0     0  1.971133042E+02 -3.282749774E+01  2.259555654E+02  3.265152628E+02  1.250000000E+02  0.00000E+00  9.000E+00
      21     1     1     2   511   502 -2.246938067E+01  4.265075165E+00  3.513118086E+01  4.191973047E+01  6.743495762E-07  0.00000E+00  9.000E+00
#rwgt            1           1   2.7188263143507415E-002          10      151979           0
</event>
<event>
      5   9999  3.19816E-02  1.14203E+02 -1.00000E+00  1.21288E-01
      -5    -1     0     0     0   501  0.000000000E+00  0.000000000E+00  1.438085285E+03  1.438085285E+03  0.000000000E+00  0.00000E+00  9.000E+00
      21    -1     0     0   501   502  0.000000000E+00  0.000000000E+00 -7.642051930E+01  7.642051930E+01  0.000000000E+00  0.00000E+00  9.000E+00
      25     1     1     2     0     0  1.471112075E+02 -1.418308495E+01  1.235342129E+02  2.296270216E+02  1.250000000E+02  0.00000E+00  9.000E+00
      25     1     1     2     0     0 -1.419197033E+02  1.282679957E+02  8.637766936E+02  8.934926174E+02  1.250000000E+02  0.00000E+00  9.000E+00
      -5     1     1     2     0   502 -5.191504217E+00 -1.140849107E+02  3.743538594E+02  3.913861656E+02  5.394796609E-06  0.00000E+00  9.000E+00
#rwgt            1           1   2.7202746822974553E-002          10      152135           0
</event>
<event>
      5   9999  3.19816E-02  9.70106E+00 -1.00000E+00  1.97293E-01
      21    -1     0     0   511   501  0.000000000E+00  0.000000000E+00  9.195401757E+01  9.195401757E+01  0.000000000E+00  0.00000E+00  9.000E+00
      21    -1     0     0   501   502  0.000000000E+00  0.000000000E+00 -3.398208389E+02  3.398208389E+02  0.000000000E+00  0.00000E+00  9.000E+00
      25     1     1     2     0     0  9.724629833E+01 -5.603531101E+01 -9.767499661E+01  1.943249947E+02  1.250000000E+02  0.00000E+00  9.000E+00
      25     1     1     2     0     0 -1.063079657E+02  5.257166874E+01 -1.487684494E+02  2.276449329E+02  1.250000000E+02  0.00000E+00  9.000E+00
      21     1     1     2   511   502  9.061667322E+00  3.463642275E+00 -1.423375295E+00  9.804928847E+00  1.192092896E-07  0.00000E+00  9.000E+00
#rwgt            1           1   2.5993140662194224E-002          10      152199           0
</event>
<event>
      5   9999  3.19816E-02  1.56391E+02 -1.00000E+00  1.15680E-01
      21    -1     0     0   512   501  0.000000000E+00  0.000000000E+00  2.059365934E+02  2.059365934E+02  0.000000000E+00  0.00000E+00  9.000E+00
      21    -1     0     0   501   502  0.000000000E+00  0.000000000E+00 -3.684310947E+02  3.684310947E+02  0.000000000E+00  0.00000E+00  9.000E+00
      25     1     1     2     0     0  1.484535388E+02  2.954869794E+01 -8.753505362E+01  2.149394434E+02  1.250000000E+02  0.00000E+00  9.000E+00
      25     1     1     2     0     0 -9.075643471E+01  1.158102658E+02 -6.073331198E+01  2.023914111E+02  1.250000000E+02  0.00000E+00  9.000E+00
      21     1     1     2   512   502 -5.769710408E+01 -1.453589638E+02 -1.422613570E+01  1.570368336E+02  2.718390048E-06  0.00000E+00  9.000E+00
#rwgt            1           1   2.6822682953225790E-002          10      152419           0
</event>
<event>
      5   9999  3.19816E-02  4.35721E+02 -1.00000E+00  1.00580E-01
       2    -1     0     0   502     0  0.000000000E+00  0.000000000E+00  3.560471611E+02  3.560471611E+02  0.000000000E+00  0.00000E+00  9.000E+00
      21    -1     0     0   501   502  0.000000000E+00  0.000000000E+00 -7.805401762E+02  7.805401762E+02  0.000000000E+00  0.00000E+00  9.000E+00
      25     1     1     2     0     0  4.907410145E+00  2.261573291E+02 -3.587481619E+02  4.421498206E+02  1.250000000E+02  0.00000E+00  9.000E+00
      25     1     1     2     0     0 -8.759835727E+01  2.016455076E+02 -5.375262537E+01  2.585512090E+02  1.250000000E+02  0.00000E+00  9.000E+00
       2     1     1     2   501     0  8.269094712E+01 -4.278028367E+02 -1.199222781E+01  4.358863078E+02  6.208046230E-06  0.00000E+00  9.000E+00
#rwgt            2          18   5.0769913517668313E-004          10      152515           0
</event>
<event>
      5   9999  3.19816E-02  6.09492E+01 -1.00000E+00  1.34340E-01
       1    -1     0     0   502     0  0.000000000E+00  0.000000000E+00  2.550428515E+03  2.550428515E+03  0.000000000E+00  0.00000E+00  9.000E+00
      21    -1     0     0   501   502  0.000000000E+00  0.000000000E+00 -2.883965248E+02  2.883965248E+02  0.000000000E+00  0.00000E+00  9.000E+00
      25     1     1     2     0     0 -8.055684705E+01  2.603759190E+02 -1.302298283E+01  3.001326755E+02  1.250000000E+02  0.00000E+00  9.000E+00
      25     1     1     2     0     0  2.120286018E+01 -2.742292123E+02  4.225441488E+01  3.050600888E+02  1.250000000E+02  0.00000E+00  9.000E+00
       1     1     1     2   501     0  5.935398687E+01  1.385329333E+01  2.232800558E+03  2.233632276E+03  0.000000000E+00  0.00000E+00  9.000E+00
#rwgt            1           1   2.7538039156381613E-002          10      152534           0
</event>
<event>
      5   9999  3.19816E-02  8.80740E+01 -1.00000E+00  1.26360E-01
      21    -1     0     0   502   511  0.000000000E+00  0.000000000E+00  7.268126462E+02  7.268126462E+02  0.000000000E+00  0.00000E+00  9.000E+00
      21    -1     0     0   501   502  0.000000000E+00  0.000000000E+00 -1.232592508E+03  1.232592508E+03  0.000000000E+00  0.00000E+00  9.000E+00
      25     1     1     2     0     0 -5.257808078E+02  6.675094437E+02 -4.725979324E+02  9.803000158E+02  1.250000000E+02  0.00000E+00  9.000E+00
      25     1     1     2     0     0  4.741298562E+02 -7.388481278E+02 -5.472626611E+01  8.884343761E+02  1.250000000E+02  0.00000E+00  9.000E+00
      21     1     1     2   501   511  5.165095166E+01  7.133868406E+01  2.154433685E+01  9.067076211E+01  1.192092896E-06  0.00000E+00  9.000E+00
#rwgt            1           1   3.3022379386307782E-002          10      152644           0
</event>
<event>
      5   9999  3.19816E-02  1.66273E+02 -1.00000E+00  1.14648E-01
      21    -1     0     0   512   501  0.000000000E+00  0.000000000E+00  2.199296683E+02  2.199296683E+02  0.000000000E+00  0.00000E+00  9.000E+00
      21    -1     0     0   501   502  0.000000000E+00  0.000000000E+00 -6.343204641E+02  6.343204641E+02  0.000000000E+00  0.00000E+00  9.000E+00
      25     1     1     2     0     0  1.987710332E+02  5.253984156E+01  5.147541790E+01  2.460590930E+02  1.250000000E+02  0.00000E+00  9.000E+00
      25     1     1     2     0     0 -8.554365616E+01  6.922355180E+01 -3.926581608E+02  4.265150038E+02  1.250000000E+02  0.00000E+00  9.000E+00
      21     1     1     2   512   502 -1.132273771E+02 -1.217633934E+02 -7.320805286E+01  1.816760355E+02  3.015782986E-06  0.00000E+00  9.000E+00
#rwgt            2          11   3.5697361980641888E-003          10      152871           0
</event>
<event>
      5   9999  3.19816E-02  2.96579E+01 -1.00000E+00  1.53387E-01
      21    -1     0     0   502   501  0.000000000E+00  0.000000000E+00  4.718929927E+02  4.718929927E+02  0.000000000E+00  0.00000E+00  9.000E+00
      21    -1     0     0   501   511  0.000000000E+00  0.000000000E+00 -3.475130139E+02  3.475130139E+02  0.000000000E+00  0.00000E+00  9.000E+00
      25     1     1     2     0     0 -1.306274418E+02 -1.549115254E+01  2.101238591E+02  2.776338245E+02  1.250000000E+02  0.00000E+00  9.000E+00
      25     1     1     2     0     0  1.486745497E+02 -8.043781235E+00  1.856208394E+02  2.687915924E+02  1.250000000E+02  0.00000E+00  9.000E+00
      21     1     1     2   502   511 -1.804710786E+01  2.353493378E+01 -2.713647197E+02  2.729805896E+02  0.000000000E+00  0.00000E+00  9.000E+00
#rwgt            1           1   3.1650200259022654E-002          10      152891           0
</event>
<event>
      5   9999  3.19816E-02  1.94150E+02 -1.00000E+00  1.12119E-01
      21    -1     0     0   502   501  0.000000000E+00  0.000000000E+00  1.112309138E+03  1.112309138E+03  0.000000000E+00  0.00000E+00  9.000E+00
      21    -1     0     0   512   502  0.000000000E+00  0.000000000E+00 -1.111169023E+03  1.111169023E+03  0.000000000E+00  0.00000E+00  9.000E+00
      25     1     1     2     0     0  3.551054675E+02  8.685252973E+02  5.538854667E+02  1.096745274E+03  1.250000000E+02  0.00000E+00  9.000E+00
      25     1     1     2     0     0 -3.793755360E+02 -6.758983055E+02 -4.096861715E+02  8.855687866E+02  1.250000000E+02  0.00000E+00  9.000E+00
      21     1     1     2   512   501  2.427006853E+01 -1.926269919E+02 -1.430591807E+02  2.411641005E+02  0.000000000E+00  0.00000E+00  9.000E+00
#rwgt            1           1   4.4294712264754628E-002          10      152987           0
</event>
<event>
      5   9999  3.19816E-02  1.39485E+02 -1.00000E+00  1.17658E-01
      21    -1     0     0   502   501  0.000000000E+00  0.000000000E+00  1.595642201E+03  1.595642201E+03  0.000000000E+00  0.00000E+00  9.000E+00
      21    -1     0     0   511   502  0.000000000E+00  0.000000000E+00 -1.694045481E+03  1.694045481E+03  0.000000000E+00  0.00000E+00  9.000E+00
      25     1     1     2     0     0  8.849303440E+02  1.211617711E+03 -9.306369421E+01  1.508444577E+03  1.250000000E+02  0.00000E+00  9.000E+00
      25     1     1     2     0     0 -9.971274552E+02 -1.294489878E+03  2.285664299E+01  1.638937043E+03  1.250000000E+02  0.00000E+00  9.000E+00
      21     1     1     2   511   501  1.121971112E+02  8.287216714E+01 -2.819622972E+01  1.423060618E+02  1.118282261E-06  0.00000E+00  9.000E+00
#rwgt            1           1   3.4731974590408408E-002          10      153094           0
</event>
<event>
      5   9999  3.19816E-02  3.46846E+01 -1.00000E+00  1.48788E-01
      21    -1     0     0   512   501  0.000000000E+00  0.000000000E+00  5.997913443E+02  5.997913443E+02  0.000000000E+00  0.00000E+00  9.000E+00
      21    -1     0     0   501   502  0.000000000E+00  0.000000000E+00 -3.993257148E+02  3.993257148E+02  0.000000000E+00  0.00000E+00  9.000E+00
      25     1     1     2     0     0  3.315793554E+02  1.090353772E+02  3.963257050E+02  5.427086206E+02  1.250000000E+02  0.00000E+00  9.000E+00
      25     1     1     2     0     0 -3.272086597E+02 -7.462730128E+01 -2.140683844E+02  4.172349629E+02  1.250000000E+02  0.00000E+00  9.000E+00
      21     1     1     2   512   502 -4.370695704E+00 -3.440807597E+01  1.820830898E+01  3.917347558E+01  8.596304120E-07  0.00000E+00  9.000E+00
#rwgt            1           1   3.3733122440401928E-002          10      153196           0
</event>
<event>
      5   9999  3.19816E-02  2.34277E+02 -1.00000E+00  1.09203E-01
      21    -1     0     0   502   501  0.000000000E+00  0.000000000E+00  5.059046294E+02  5.059046294E+02  0.000000000E+00  0.00000E+00  9.000E+00
      21    -1     0     0   501   511  0.000000000E+00  0.000000000E+00 -4.234610267E+02  4.234610267E+02  0.000000000E+00  0.00000E+00  9.000E+00
      25     1     1     2     0     0 -1.088253218E+02  2.187668887E+02  3.540598757E+02  4.479791266E+02  1.250000000E+02  0.00000E+00  9.000E+00
      25     1     1     2     0     0 -6.862432784E+01 -6.580564962E+01 -1.510737813E+02  2.179173451E+02  1.250000000E+02  0.00000E+00  9.000E+00
      21     1     1     2   502   511  1.774496497E+02 -1.529612391E+02 -1.205424917E+02  2.634691844E+02  5.560829062E-06  0.00000E+00  9.000E+00
#rwgt            1           1   2.9740276196123926E-002          10      153354           0
</event>
<event>
      5   9999  3.19816E-02  6.14891E+01 -1.00000E+00  1.34137E-01
      21    -1     0     0   502   501  0.000000000E+00  0.000000000E+00  6.010037733E+02  6.010037733E+02  0.000000000E+00  0.00000E+00  9.000E+00
      21    -1     0     0   512   502  0.000000000E+00  0.000000000E+00 -1.391639903E+02  1.391639903E+02  0.000000000E+00  0.00000E+00  9.000E+00
      25     1     1     2     0     0  1.949533314E+02  8.439879935E+01  7.620576479E+01  2.579966615E+02  1.250000000E+02  0.00000E+00  9.000E+00
      25     1     1     2     0     0 -1.423593102E+02 -1.162544711E+02  3.373314569E+02  4.039786963E+02  1.250000000E+02  0.00000E+00  9.000E+00
      21     1     1     2   512   501 -5.259402119E+01  3.185567179E+01  4.830256136E+01  7.819240580E+01  9.536743164E-07  0.00000E+00  9.000E+00
#rwgt            1           1   2.7731587989696379E-002          10      153403           0
</event>
<event>
      5   9999  3.19816E-02  2.50588E+01 -1.00000E+00  1.58674E-01
      21    -1     0     0   502   511  0.000000000E+00  0.000000000E+00  1.881999372E+02  1.881999372E+02  0.000000000E+00  0.00000E+00  9.000E+00
      21    -1     0     0   501   502  0.000000000E+00  0.000000000E+00 -1.551763127E+02  1.551763127E+02  0.000000000E+00  0.00000E+00  9.000E+00
      25     1     1     2     0     0  2.905347660E+01  7.380846007E+01 -3.046273919E+01  1.511448701E+02  1.250000000E+02  0.00000E+00  9.000E+00
      25     1     1     2     0     0 -5.152436553E+01 -6.271776857E+01  3.279015700E+01  1.526056130E+02  1.250000000E+02  0.00000E+00  9.000E+00
      21     1     1     2   501   511  2.247088894E+01 -1.109069150E+01  3.069620663E+01  3.962576673E+01  3.371747881E-07  0.00000E+00  9.000E+00
#rwgt            1           1   4.6409170163844313E-002          10      153559           0
</event>
<event>
      5   9999  3.19816E-02  1.26590E+02 -1.00000E+00  1.19391E-01
      -2    -1     0     0     0   501  0.000000000E+00  0.000000000E+00  5.924757106E+02  5.924757106E+02  0.000000000E+00  0.00000E+00  9.000E+00
      21    -1     0     0   501   502  0.000000000E+00  0.000000000E+00 -1.892359199E+02  1.892359199E+02  0.000000000E+00  0.00000E+00  9.000E+00
      25     1     1     2     0     0 -1.288035850E+02  5.676963821E+01  3.274979701E+02  3.777473703E+02  1.250000000E+02  0.00000E+00  9.000E+00
      25     1     1     2     0     0  2.320219759E+02  1.651659435E+01  1.757994525E+01  2.646526963E+02  1.250000000E+02  0.00000E+00  9.000E+00
      -2     1     1     2     0   502 -1.032183909E+02 -7.328623257E+01  5.816187540E+01  1.393115640E+02  3.090257978E-06  0.00000E+00  9.000E+00
#rwgt            1           1   2.5600159575740175E-002          10      153674           0
</event>
<event>
      5   9999  3.19816E-02  1.94154E+02 -1.00000E+00  1.12119E-01
      21    -1     0     0   502   501  0.000000000E+00  0.000000000E+00  7.383863143E+02  7.383863143E+02  0.000000000E+00  0.00000E+00  9.000E+00
      21    -1     0     0   501   511  0.000000000E+00  0.000000000E+00 -2.396865655E+03  2.396865655E+03  0.000000000E+00  0.00000E+00  9.000E+00
      25     1     1     2     0     0 -1.883294821E+02 -5.250806411E+02  1.834601791E+02  6.003834698E+02  1.250000000E+02  0.00000E+00  9.000E+00
      25     1     1     2     0     0  1.713385732E+02  3.316719759E+02  2.286020573E+02  4.552440080E+02  1.250000000E+02  0.00000E+00  9.000E+00
      21     1     1     2   502   511  1.699090883E+01  1.934086653E+02 -2.070541577E+03  2.079624491E+03  0.000000000E+00  0.00000E+00  9.000E+00
#rwgt            1           1   2.4192418544085905E-002          10      153738           0
</event>
<event>
      5   9999  3.19816E-02  7.65508E+01 -1.00000E+00  1.29283E-01
      21    -1     0     0   502   501  0.000000000E+00  0.000000000E+00  3.999146776E+02  3.999146776E+02  0.000000000E+00  0.00000E+00  9.000E+00
      21    -1     0     0   501   512  0.000000000E+00  0.000000000E+00 -5.348541229E+02  5.348541229E+02  0.000000000E+00  0.00000E+00  9.000E+00
      25     1     1     2     0     0 -7.485182766E+01  1.529775087E+02  3.232712684E+02  3.861790093E+02  1.250000000E+02  0.00000E+00  9.000E+00
      25     1     1     2     0     0  4.973330024E-01 -1.711830126E+02 -3.990171978E+02  4.518225263E+02  1.250000000E+02  0.00000E+00  9.000E+00
      21     1     1     2   502   512  7.435449466E+01  1.820550387E+01 -5.919351593E+01  9.676726500E+01  1.507891493E-06  0.00000E+00  9.000E+00
#rwgt            1           1   2.8929340455311117E-002          10      153793           0
</event>
<event>
      5   9999  3.19816E-02  1.77306E+02 -1.00000E+00  1.13586E-01
       1    -1     0     0   502     0  0.000000000E+00  0.000000000E+00  1.335420860E+03  1.335420860E+03  0.000000000E+00  0.00000E+00  9.000E+00
      21    -1     0     0   501   502  0.000000000E+00  0.000000000E+00 -8.821320487E+02  8.821320487E+02  0.000000000E+00  0.00000E+00  9.000E+00
      25     1     1     2     0     0 -2.405126244E+02 -5.346514898E+02 -6.190456311E+02  8.617082055E+02  1.250000000E+02  0.00000E+00  9.000E+00
      25     1     1     2     0     0  3.187762120E+02  3.755530015E+02  3.626288529E+02  6.243260488E+02  1.250000000E+02  0.00000E+00  9.000E+00
       1     1     1     2   501     0 -7.826358759E+01  1.590984883E+02  7.097055896E+02  7.315186546E+02  1.321449896E-05  0.00000E+00  9.000E+00
#rwgt            1           1   3.7824849182171695E-002          10      153876           0
</event>
<event>
      5   9999  3.19816E-02  1.64090E+01 -1.00000E+00  1.73787E-01
      21    -1     0     0   502   511  0.000000000E+00  0.000000000E+00  2.063923682E+02  2.063923682E+02  0.000000000E+00  0.00000E+00  9.000E+00
      21    -1     0     0   501   502  0.000000000E+00  0.000000000E+00 -8.031118718E+02  8.031118718E+02  0.000000000E+00  0.00000E+00  9.000E+00
      25     1     1     2     0     0  2.690931049E+02  2.629896977E+02 -2.254938843E+02  4.561218829E+02  1.250000000E+02  0.00000E+00  9.000E+00
      25     1     1     2     0     0 -2.687627099E+02 -2.465840167E+02 -3.735085058E+02  5.368153085E+02  1.250000000E+02  0.00000E+00  9.000E+00
      21     1     1     2   501   511 -3.303950234E-01 -1.640568101E+01  2.282886517E+00  1.656704865E+01  1.490116119E-07  0.00000E+00  9.000E+00
#rwgt            1           1   2.9130348274712219E-002          10      153928           0
</event>
<event>
      5   9999  3.19816E-02  1.30047E+02 -1.00000E+00  1.18905E-01
      21    -1     0     0   502   501  0.000000000E+00  0.000000000E+00  2.920594010E+02  2.920594010E+02  0.000000000E+00  0.00000E+00  9.000E+00
      21    -1     0     0   512   502  0.000000000E+00  0.000000000E+00 -2.991154894E+03  2.991154894E+03  0.000000000E+00  0.00000E+00  9.000E+00
      25     1     1     2     0     0 -3.295055712E+02  5.822935054E+02 -4.646777824E+02  8.241298984E+02  1.250000000E+02  0.00000E+00  9.000E+00
      25     1     1     2     0     0  4.183455834E+02 -4.873220759E+02 -8.705274438E+02  1.089008202E+03  1.250000000E+02  0.00000E+00  9.000E+00
      21     1     1     2   512   501 -8.884001224E+01 -9.497142952E+01 -1.363890267E+03  1.370076195E+03  1.525878906E-05  0.00000E+00  9.000E+00
#rwgt            1           1   2.6463286092490716E-002          10      154100           0
</event>
<event>
      5   9999  3.19816E-02  8.43953E+01 -1.00000E+00  1.27235E-01
      21    -1     0     0   502   501  0.000000000E+00  0.000000000E+00  4.340134041E+02  4.340134041E+02  0.000000000E+00  0.00000E+00  9.000E+00
       1    -1     0     0   501     0  0.000000000E+00  0.000000000E+00 -2.849242564E+03  2.849242564E+03  0.000000000E+00  0.00000E+00  9.000E+00
      25     1     1     2     0     0 -8.417642864E+02 -1.521290879E+02 -2.227526184E+03  2.389394960E+03  1.250000000E+02  0.00000E+00  9.000E+00
      25     1     1     2     0     0  7.653516618E+02  1.163005373E+02 -1.981749418E+02  8.088184523E+02  1.250000000E+02  0.00000E+00  9.000E+00
       1     1     1     2   502     0  7.641262462E+01  3.582855055E+01  1.047196602E+01  8.504255587E+01  1.581489940E-06  0.00000E+00  9.000E+00
#rwgt            1           1   2.6447228605505226E-002          10      154155           0
</event>
<event>
      5   9999  3.19816E-02  3.16166E+01 -1.00000E+00  1.51473E-01
      21    -1     0     0   502   501  0.000000000E+00  0.000000000E+00  7.992775824E+01  7.992775824E+01  0.000000000E+00  0.00000E+00  9.000E+00
       2    -1     0     0   501     0  0.000000000E+00  0.000000000E+00 -1.841041789E+03  1.841041789E+03  0.000000000E+00  0.00000E+00  9.000E+00
      25     1     1     2     0     0 -7.986074512E+01  2.521148075E+02 -1.157596101E+03  1.193982139E+03  1.250000000E+02  0.00000E+00  9.000E+00
      25     1     1     2     0     0  5.011398770E+01 -2.414032116E+02 -2.520089068E+02  3.740593689E+02  1.250000000E+02  0.00000E+00  9.000E+00
       2     1     1     2   502     0  2.974675742E+01 -1.071159593E+01 -3.515090227E+02  3.529280392E+02  3.814697266E-06  0.00000E+00  9.000E+00
#rwgt            1           1   2.9730866370952590E-002          10      154319           0
</event>
<event>
      5   9999  3.19816E-02  4.58582E+01 -1.00000E+00  1.41253E-01
      21    -1     0     0   502   501  0.000000000E+00  0.000000000E+00  2.148629220E+03  2.148629220E+03  0.000000000E+00  0.00000E+00  9.000E+00
      -4    -1     0     0     0   502  0.000000000E+00  0.000000000E+00 -8.380920445E+02  8.380920445E+02  0.000000000E+00  0.00000E+00  9.000E+00
      25     1     1     2     0     0 -1.976775850E+02  2.624189143E+02  1.956233138E+03  1.987564641E+03  1.250000000E+02  0.00000E+00  9.000E+00
      25     1     1     2     0     0  2.291485096E+02 -2.290638971E+02  4.534651690E+00  3.473109148E+02  1.250000000E+02  0.00000E+00  9.000E+00
      -4     1     1     2     0   501 -3.147092468E+01 -3.335501717E+01 -6.502306139E+02  6.518457084E+02  1.868812365E-05  0.00000E+00  9.000E+00
#rwgt            1           1   2.5985632422727407E-002          10      154481           0
</event>
<event>
      5   9999  3.19816E-02  8.44970E+01 -1.00000E+00  1.27210E-01
      21    -1     0     0   502   511  0.000000000E+00  0.000000000E+00  8.443836940E+01  8.443836940E+01  0.000000000E+00  0.00000E+00  9.000E+00
      21    -1     0     0   501   502  0.000000000E+00  0.000000000E+00 -2.281570776E+03  2.281570776E+03  0.000000000E+00  0.00000E+00  9.000E+00
      25     1     1     2     0     0  1.684082658E+02 -2.035609401E+02 -1.564336682E+03  1.591405874E+03  1.250000000E+02  0.00000E+00  9.000E+00
      25     1     1     2     0     0 -2.526680746E+02  2.098878937E+02 -5.687480824E+02  6.685756988E+02  1.250000000E+02  0.00000E+00  9.000E+00
      21     1     1     2   501   511  8.425980877E+01 -6.326953610E+00 -6.404764210E+01  1.060275727E+02  3.162979880E-06  0.00000E+00  9.000E+00
#rwgt            2          11   1.1368486105932983E-002          10      154662           0
</event>
<event>
      5   9999  3.19816E-02  1.16605E+02 -1.00000E+00  1.20900E-01
      21    -1     0     0   502   501  0.000000000E+00  0.000000000E+00  8.333948589E+02  8.333948589E+02  0.000000000E+00  0.00000E+00  9.000E+00
      -1    -1     0     0     0   502  0.000000000E+00  0.000000000E+00 -2.369297498E+02  2.369297498E+02  0.000000000E+00  0.00000E+00  9.000E+00
      25     1     1     2     0     0  2.514154627E+01 -2.877072156E+02  2.138820641E+02  3.804971440E+02  1.250000000E+02  0.00000E+00  9.000E+00
      25     1     1     2     0     0 -8.078973891E+01  1.852380951E+02  4.814842549E+02  5.369285069E+02  1.250000000E+02  0.00000E+00  9.000E+00
      -1     1     1     2     0   501  5.564819263E+01  1.024691204E+02 -9.890120988E+01  1.528989578E+02  1.907348633E-06  0.00000E+00  9.000E+00
#rwgt            1           1   2.2971040401427008E-002          10      154682           0
</event>
<event>
      5   9999  3.19816E-02  4.74796E+01 -1.00000E+00  1.40369E-01
      21    -1     0     0   502   501  0.000000000E+00  0.000000000E+00  3.768017175E+02  3.768017175E+02  0.000000000E+00  0.00000E+00  9.000E+00
      21    -1     0     0   511   502  0.000000000E+00  0.000000000E+00 -7.083111255E+02  7.083111255E+02  0.000000000E+00  0.00000E+00  9.000E+00
      25     1     1     2     0     0 -4.136909092E+02 -5.618313406E+01 -3.095082634E+02  5.345250958E+02  1.250000000E+02  0.00000E+00  9.000E+00
      25     1     1     2     0     0  3.934148672E+02  1.325071620E+01  9.545718826E+01  4.238961123E+02  1.250000000E+02  0.00000E+00  9.000E+00
      21     1     1     2   511   501  2.027604193E+01  4.293241786E+01 -1.174583329E+02  1.266916349E+02  1.348699152E-06  0.00000E+00  9.000E+00
#rwgt            1           1   2.2128625379624844E-002          10      154742           0
</event>
<event>
      5   9999  3.19816E-02  2.80782E+02 -1.00000E+00  1.06535E-01
      21    -1     0     0   512   501  0.000000000E+00  0.000000000E+00  7.291024704E+02  7.291024704E+02  0.000000000E+00  0.00000E+00  9.000E+00
      21    -1     0     0   501   502  0.000000000E+00  0.000000000E+00 -1.324773706E+03  1.324773706E+03  0.000000000E+00  0.00000E+00  9.000E+00
      25     1     1     2     0     0  2.717679562E+02  7.421717780E+02 -2.967221306E+02  8.534317740E+02  1.250000000E+02  0.00000E+00  9.000E+00
      25     1     1     2     0     0 -4.741056926E+02 -5.474983694E+02 -4.693182483E+02  8.720179416E+02  1.250000000E+02  0.00000E+00  9.000E+00
      21     1     1     2   512   502  2.023377364E+02 -1.946734085E+02  1.703691430E+02  3.284264612E+02  7.629394531E-06  0.00000E+00  9.000E+00
#rwgt            1           1   2.9857175362807957E-002          10      154905           0
</event>
<event>
      5   9999  3.19816E-02  5.10756E+01 -1.00000E+00  1.38550E-01
      21    -1     0     0   511   501  0.000000000E+00  0.000000000E+00  1.692491846E+02  1.692491846E+02  0.000000000E+00  0.00000E+00  9.000E+00
      21    -1     0     0   501   502  0.000000000E+00  0.000000000E+00 -4.564836319E+02  4.564836319E+02  0.000000000E+00  0.00000E+00  9.000E+00
      25     1     1     2     0     0 -2.078228172E+02 -3.090276632E+01 -2.182650068E+01  2.454520329E+02  1.250000000E+02  0.00000E+00  9.000E+00
      25     1     1     2     0     0  1.584293262E+02  4.390256853E+01 -2.550232007E+02  3.281602045E+02  1.250000000E+02  0.00000E+00  9.000E+00
      21     1     1     2   511   502  4.939349104E+01 -1.299980221E+01 -1.038474584E+01  5.212057905E+01  7.539457465E-07  0.00000E+00  9.000E+00
#rwgt            1           1   2.9261064619200455E-002          10      154958           0
</event>
<event>
      5   9999  3.19816E-02  1.78688E+01 -1.00000E+00  1.70510E-01
      21    -1     0     0   502   501  0.000000000E+00  0.000000000E+00  3.871060195E+01  3.871060195E+01  0.000000000E+00  0.00000E+00  9.000E+00
      21    -1     0     0   512   502  0.000000000E+00  0.000000000E+00 -1.391314871E+03  1.391314871E+03  0.000000000E+00  0.00000E+00  9.000E+00
      25     1     1     2     0     0 -4.399109645E+01  4.403112253E+00 -1.151563858E+03  1.159171654E+03  1.250000000E+02  0.00000E+00  9.000E+00
      25     1     1     2     0     0  3.500746990E+01  1.104321789E+01 -8.989991001E+01  1.582860368E+02  1.250000000E+02  0.00000E+00  9.000E+00
      21     1     1     2   512   501  8.983626540E+00 -1.544633014E+01 -1.111405009E+02  1.125677823E+02  1.907348633E-06  0.00000E+00  9.000E+00
#rwgt            1           1   2.8194592026258045E-002          10      155090           0
</event>
<event>
      5   9999  3.19816E-02  1.52342E+02 -1.00000E+00  1.16128E-01
       1    -1     0     0   502     0  0.000000000E+00  0.000000000E+00  1.285756675E+03  1.285756675E+03  0.000000000E+00  0.00000E+00  9.000E+00
      21    -1     0     0   501   502  0.000000000E+00  0.000000000E+00 -5.357783528E+02  5.357783528E+02  0.000000000E+00  0.00000E+00  9.000E+00
      25     1     1     2     0     0 -2.730666900E+02 -5.721736619E+02  3.914841019E+01  6.473837461E+02  1.250000000E+02  0.00000E+00  9.000E+00
      25     1     1     2     0     0  1.214913765E+02  5.569101160E+02  1.635134434E+02  6.060286116E+02  1.250000000E+02  0.00000E+00  9.000E+00
       1     1     1     2   501     0  1.515753135E+02  1.526354592E+01  5.473164689E+02  5.681226704E+02  0.000000000E+00  0.00000E+00  9.000E+00
#rwgt            1           1   3.1120918183635216E-002          10      155284           0
</event>
<event>
      5   9999  3.19816E-02  1.13258E+02 -1.00000E+00  1.21444E-01
      21    -1     0     0   502   501  0.000000000E+00  0.000000000E+00  7.447782313E+02  7.447782313E+02  0.000000000E+00  0.00000E+00  9.000E+00
      21    -1     0     0   511   502  0.000000000E+00  0.000000000E+00 -8.550473016E+02  8.550473016E+02  0.000000000E+00  0.00000E+00  9.000E+00
      25     1     1     2     0     0 -5.120988959E+02  4.119471490E+02  5.933610332E+01  6.716334610E+02  1.250000000E+02  0.00000E+00  9.000E+00
      25     1     1     2     0     0  4.372627983E+02 -3.269355311E+02  1.576745992E+02  5.818692941E+02  1.250000000E+02  0.00000E+00  9.000E+00
      21     1     1     2   511   501  7.483609768E+01 -8.501161787E+01 -3.272797728E+02  3.463227777E+02  6.607249480E-06  0.00000E+00  9.000E+00
#rwgt            1           1   3.3537982639573388E-002          10      155353           0
</event>
<event>
      5   9999  3.19816E-02  1.95773E+01 -1.00000E+00  1.67138E-01
      21    -1     0     0   502   512  0.000000000E+00  0.000000000E+00  1.513899579E+02  1.513899579E+02  0.000000000E+00  0.00000E+00  9.000E+00
      21    -1     0     0   501   502  0.000000000E+00  0.000000000E+00 -1.108607764E+03  1.108607764E+03  0.000000000E+00  0.00000E+00  9.000E+00
      25     1     1     2     0     0  1.315670319E+02 -6.637238042E+01 -3.145470114E+01  1.957794039E+02  1.250000000E+02  0.00000E+00  9.000E+00
      25     1     1     2     0     0 -1.320789817E+02  8.594295970E+01 -9.831864175E+02  1.003549491E+03  1.250000000E+02  0.00000E+00  9.000E+00
      21     1     1     2   501   512  5.119497609E-01 -1.957057928E+01  5.742331278E+01  6.066882656E+01  9.536743164E-07  0.00000E+00  9.000E+00
#rwgt            1           1   2.9639082710577792E-002          10      155431           0
</event>
<event>
      5   9999  3.19816E-02  4.72264E+01 -1.00000E+00  1.40505E-01
      21    -1     0     0   502   511  0.000000000E+00  0.000000000E+00  7.029120578E+02  7.029120578E+02  0.000000000E+00  0.00000E+00  9.000E+00
      21    -1     0     0   501   502  0.000000000E+00  0.000000000E+00 -2.167845868E+02  2.167845868E+02  0.000000000E+00  0.00000E+00  9.000E+00
      25     1     1     2     0     0  9.548353859E+01 -1.488866142E+02 -1.271165968E+02  2.511333494E+02  1.250000000E+02  0.00000E+00  9.000E+00
      25     1     1     2     0     0 -1.080338815E+02  1.033583119E+02  5.770285262E+02  6.090494071E+02  1.250000000E+02  0.00000E+00  9.000E+00
      21     1     1     2   501   511  1.255034289E+01  4.552830229E+01  3.621554160E+01  5.951388804E+01  9.536743164E-07  0.00000E+00  9.000E+00
#rwgt            1           1   3.2478457682746771E-002          10      155617           0
</event>
<event>
      5   9999  3.19816E-02  1.21028E+02 -1.00000E+00  1.20211E-01
      21    -1     0     0   502   512  0.000000000E+00  0.000000000E+00  4.650100346E+02  4.650100346E+02  0.000000000E+00  0.00000E+00  9.000E+00
      21    -1     0     0   501   502  0.000000000E+00  0.000000000E+00 -3.484203567E+02  3.484203567E+02  0.000000000E+00  0.00000E+00  9.000E+00
      25     1     1     2     0     0 -1.542834027E+02  2.910543936E+02 -1.175280285E+02  3.714214128E+02  1.250000000E+02  0.00000E+00  9.000E+00
      25     1     1     2     0     0  6.290051248E+01 -2.117018140E+02  1.636564140E+02  3.019644919E+02  1.250000000E+02  0.00000E+00  9.000E+00
      21     1     1     2   501   512  9.138289026E+01 -7.935257955E+01  7.046129237E+01  1.400444866E+02  1.907348633E-06  0.00000E+00  9.000E+00
#rwgt            1           1   2.6298025588907127E-002          10      155749           0
</event>
<event>
      5   9999  3.19816E-02  1.32534E+02 -1.00000E+00  1.18565E-01
      21    -1     0     0   502   501  0.000000000E+00  0.000000000E+00  1.956998941E+02  1.956998941E+02  0.000000000E+00  0.00000E+00  9.000E+00
       1    -1     0     0   501     0  0.000000000E+00  0.000000000E+00 -7.138248006E+02  7.138248006E+02  0.000000000E+00  0.00000E+00  9.000E+00
      25     1     1     2     0     0  2.431606617E+02 -2.350271939E+02 -3.047368169E+02  4.720745882E+02  1.250000000E+02  0.00000E+00  9.000E+00
      25     1     1     2     0     0 -1.416365188E+02  1.498324296E+02 -9.308425713E+01  2.584576162E+02  1.250000000E+02  0.00000E+00  9.000E+00
       1     1     1     2   502     0 -1.015241429E+02  8.519476429E+01 -1.203038325E+02  1.789924902E+02  0.000000000E+00  0.00000E+00  9.000E+00
#rwgt            1           1   2.7796498198341638E-002          10      155821           0
</event>
<event>
      5   9999  3.19816E-02  5.93840E+01 -1.00000E+00  1.34943E-01
      21    -1     0     0   502   501  0.000000000E+00  0.000000000E+00  2.351372597E+02  2.351372597E+02  0.000000000E+00  0.00000E+00  9.000E+00
       1    -1     0     0   501     0  0.000000000E+00  0.000000000E+00 -2.324398761E+03  2.324398761E+03  0.000000000E+00  0.00000E+00  9.000E+00
      25     1     1     2     0     0 -2.225068345E+02  6.810298905E+01  8.579145568E+01  2.777273526E+02  1.250000000E+02  0.00000E+00  9.000E+00
      25     1     1     2     0     0  1.975569965E+02 -1.421452121E+01 -2.061649825E+02  3.120253507E+02  1.250000000E+02  0.00000E+00  9.000E+00
       1     1     1     2   502     0  2.494983809E+01 -5.388846784E+01 -1.968887975E+03  1.969783318E+03  0.000000000E+00  0.00000E+00  9.000E+00
#rwgt            1           1   2.4281628214824581E-002          10      155899           0
</event>
<event>
      5   9999  3.19816E-02  1.18539E+02 -1.00000E+00  1.20595E-01
      21    -1     0     0   502   501  0.000000000E+00  0.000000000E+00  4.893694746E+02  4.893694746E+02  0.000000000E+00  0.00000E+00  9.000E+00
      21    -1     0     0   511   502  0.000000000E+00  0.000000000E+00 -3.061349220E+02  3.061349220E+02  0.000000000E+00  0.00000E+00  9.000E+00
      25     1     1     2     0     0 -3.017474026E+02  8.421915456E+01  1.429957473E+02  3.663565813E+02  1.250000000E+02  0.00000E+00  9.000E+00
      25     1     1     2     0     0  1.995360665E+02 -1.442543822E+02  1.033698655E+02  2.948462272E+02  1.250000000E+02  0.00000E+00  9.000E+00
      21     1     1     2   511   501  1.022113361E+02  6.003522768E+01 -6.313106020E+01  1.343015880E+02  3.090257978E-06  0.00000E+00  9.000E+00
#rwgt            1           1   2.7300485543468998E-002          10      156079           0
</event>
<event>
      5   9999  3.19816E-02  4.74805E+02 -1.00000E+00  9.94941E-02
      21    -1     0     0   502   501  0.000000000E+00  0.000000000E+00  2.229690437E+03  2.229690437E+03  0.000000000E+00  0.00000E+00  9.000E+00
      21    -1     0     0   512   502  0.000000000E+00  0.000000000E+00 -3.934873163E+02  3.934873163E+02  0.000000000E+00  0.00000E+00  9.000E+00
      25     1     1     2     0     0 -4.002401638E+02  1.389436549E+02  1.794649564E+03  1.848212538E+03  1.250000000E+02  0.00000E+00  9.000E+00
      25     1     1     2     0     0  1.777742235E+01  1.424130661E+02 -1.699738503E+02  2.551737211E+02  1.250000000E+02  0.00000E+00  9.000E+00
      21     1     1     2   512   501  3.824627414E+02 -2.813567210E+02  2.115274061E+02  5.197914934E+02  4.672030912E-06  0.00000E+00  9.000E+00
#rwgt            2          11   2.4989892523884171E-003          10      156298           0
</event>
<event>
      5   9999  3.19816E-02  2.05704E+01 -1.00000E+00  1.65368E-01
      21    -1     0     0   502   501  0.000000000E+00  0.000000000E+00  1.932919061E+02  1.932919061E+02  0.000000000E+00  0.00000E+00  9.000E+00
      21    -1     0     0   501   511  0.000000000E+00  0.000000000E+00 -5.081835723E+02  5.081835723E+02  0.000000000E+00  0.00000E+00  9.000E+00
      25     1     1     2     0     0  2.639708702E+01 -1.997747696E+02  5.473969453E+01  2.433684427E+02  1.250000000E+02  0.00000E+00  9.000E+00
      25     1     1     2     0     0 -1.080108770E+01  2.131877408E+02 -3.557162436E+02  4.332721112E+02  1.250000000E+02  0.00000E+00  9.000E+00
      21     1     1     2   502   511 -1.559599932E+01 -1.341297124E+01 -1.391511703E+01  2.483492449E+01  5.591411304E-07  0.00000E+00  9.000E+00
#rwgt            1           1   2.6790047674867968E-002          10      156348           0
</event>
<event>
      5   9999  3.19816E-02  1.22076E+01 -1.00000E+00  1.86248E-01
      21    -1     0     0   502   501  0.000000000E+00  0.000000000E+00  1.049928462E+03  1.049928462E+03  0.000000000E+00  0.00000E+00  9.000E+00
      21    -1     0     0   501   512  0.000000000E+00  0.000000000E+00 -2.707549017E+02  2.707549017E+02  0.000000000E+00  0.00000E+00  9.000E+00
      25     1     1     2     0     0  1.281577857E+02  1.047243874E+02  5.656110939E+02  6.024388142E+02  1.250000000E+02  0.00000E+00  9.000E+00
      25     1     1     2     0     0 -1.254215438E+02 -1.166213446E+02  4.416087230E+02  4.898717852E+02  1.250000000E+02  0.00000E+00  9.000E+00
      21     1     1     2   502   512 -2.736241868E+00  1.189695717E+01 -2.280462563E+02  2.283727646E+02  0.000000000E+00  0.00000E+00  9.000E+00
#rwgt            1           1   2.4477757494674960E-002          10      156481           0
</event>
<event>
      5   9999  3.19816E-02  4.05429E+01 -1.00000E+00  1.44478E-01
       2    -1     0     0   502     0  0.000000000E+00  0.000000000E+00  2.900305499E+02  2.900305499E+02  0.000000000E+00  0.00000E+00  9.000E+00
      21    -1     0     0   501   502  0.000000000E+00  0.000000000E+00 -8.031390053E+02  8.031390053E+02  0.000000000E+00  0.00000E+00  9.000E+00
      25     1     1     2     0     0 -2.343708857E+02 -5.016142366E+01 -4.290682418E+02  5.071197458E+02  1.250000000E+02  0.00000E+00  9.000E+00
      25     1     1     2     0     0  2.515175615E+02  1.342294994E+01 -2.735238124E+02  3.922773703E+02  1.250000000E+02  0.00000E+00  9.000E+00
       2     1     1     2   501     0 -1.714667577E+01  3.673847372E+01  1.894835988E+02  1.937724391E+02  2.697398305E-06  0.00000E+00  9.000E+00
#rwgt            1           1   2.7610855042890830E-002          10      156671           0
</event>
<event>
      5   9999  3.19816E-02  9.62832E+00 -1.00000E+00  1.97678E-01
      21    -1     0     0   511   501  0.000000000E+00  0.000000000E+00  7.667049650E+01  7.667049650E+01  0.000000000E+00  0.00000E+00  9.000E+00
      21    -1     0     0   501   502  0.000000000E+00  0.000000000E+00 -4.410680747E+02  4.410680747E+02  0.000000000E+00  0.00000E+00  9.000E+00
      25     1     1     2     0     0 -1.225784933E+00  1.218268322E+02 -1.954443979E+02  2.620434930E+02  1.250000000E+02  0.00000E+00  9.000E+00
      25     1     1     2     0     0  1.410910438E+00 -1.314533690E+02 -1.652265580E+02  2.453707284E+02  1.250000000E+02  0.00000E+00  9.000E+00
      21     1     1     2   511   502 -1.851255045E-01  9.626536839E+00 -3.726622301E+00  1.032434970E+01  1.837138534E-07  0.00000E+00  9.000E+00
#rwgt            1           1   2.7485991560579792E-002          10      156773           0
</event>
<event>
      5   9999  3.19816E-02  4.10341E+01 -1.00000E+00  1.44156E-01
       2    -1     0     0   502     0  0.000000000E+00  0.000000000E+00  2.918469729E+03  2.918469729E+03  0.000000000E+00  0.00000E+00  9.000E+00
      21    -1     0     0   501   502  0.000000000E+00  0.000000000E+00 -5.559796935E+01  5.559796935E+01  0.000000000E+00  0.00000E+00  9.000E+00
      25     1     1     2     0     0  1.458186225E+02 -1.426973403E+02  7.625791867E+02  7.992356458E+02  1.250000000E+02  0.00000E+00  9.000E+00
      25     1     1     2     0     0 -1.691614009E+02  1.764451644E+02  4.721143338E+02  5.461368141E+02  1.250000000E+02  0.00000E+00  9.000E+00
       2     1     1     2   501     0  2.334277841E+01 -3.374782408E+01  1.628178239E+03  1.628695238E+03  2.157918644E-05  0.00000E+00  9.000E+00
#rwgt            1           1   2.9533334663104805E-002          10      156948           0
</event>
<event>
      5   9999  3.19816E-02  2.46382E+02 -1.00000E+00  1.08447E-01
       4    -1     0     0   502     0  0.000000000E+00  0.000000000E+00  4.555128638E+02  4.555128638E+02  0.000000000E+00  0.00000E+00  9.000E+00
      21    -1     0     0   501   502  0.000000000E+00  0.000000000E+00 -5.237339461E+02  5.237339461E+02  0.000000000E+00  0.00000E+00  9.000E+00
      25     1     1     2     0     0  3.871762093E+01 -4.872898749E+01 -2.926468416E+02  3.242541322E+02  1.250000000E+02  0.00000E+00  9.000E+00
      25     1     1     2     0     0 -2.577638100E+02 -6.406735520E+01 -3.686821485E+01  2.958565075E+02  1.250000000E+02  0.00000E+00  9.000E+00
       4     1     1     2   501     0  2.190461891E+02  1.127963427E+02  2.612939741E+02  3.591361702E+02  7.629394531E-06  0.00000E+00  9.000E+00
#rwgt            1           1   2.5741354989267030E-002          10      157036           0
</event>
<event>
      5   9999  3.19816E-02  3.54128E+01 -1.00000E+00  1.48199E-01
      21    -1     0     0   511   501  0.000000000E+00  0.000000000E+00  9.620563139E+01  9.620563139E+01  0.000000000E+00  0.00000E+00  9.000E+00
      21    -1     0     0   501   502  0.000000000E+00  0.000000000E+00 -4.724406328E+02  4.724406328E+02  0.000000000E+00  0.00000E+00  9.000E+00
      25     1     1     2     0     0 -1.097956638E+02 -7.018744570E+01 -1.092943882E+02  2.110725672E+02  1.250000000E+02  0.00000E+00  9.000E+00
      25     1     1     2     0     0  1.297723177E+02  4.094711103E+01 -2.637258892E+02  3.220153179E+02  1.250000000E+02  0.00000E+00  9.000E+00
      21     1     1     2   511   502 -1.997665381E+01  2.924033468E+01 -3.214723957E+00  3.555837904E+01  4.359703910E-07  0.00000E+00  9.000E+00
#rwgt            1           1   2.4708683183422026E-002          10      157069           0
</event>
<event>
      5   9999  3.19816E-02  1.86853E+01 -1.00000E+00  1.68843E-01
      21    -1     0     0   502   501  0.000000000E+00  0.000000000E+00  3.110096183E+02  3.110096183E+02  0.000000000E+00  0.00000E+00  9.000E+00
      21    -1     0     0   501   512  0.000000000E+00  0.000000000E+00 -1.592243189E+02  1.592243189E+02  0.000000000E+00  0.00000E+00  9.000E+00
      25     1     1     2     0     0  9.654968174E-02  1.771969786E+02  6.201888105E+01  2.255440537E+02  1.250000000E+02  0.00000E+00  9.000E+00
      25     1     1     2     0     0 -6.070566466E+00 -1.594923648E+02  9.688849608E+01  2.246932284E+02  1.250000000E+02  0.00000E+00  9.000E+00
      21     1     1     2   502   512  5.974016784E+00 -1.770461372E+01 -7.122077730E+00  1.999665509E+01  2.528810911E-07  0.00000E+00  9.000E+00
#rwgt            1           1   2.7676146148565811E-002          10      157166           0
</event>
<event>
      5   9999  3.19816E-02  2.53068E+01 -1.00000E+00  1.58355E-01
      21    -1     0     0   502   501  0.000000000E+00  0.000000000E+00  1.101083222E+02  1.101083222E+02  0.000000000E+00  0.00000E+00  9.000E+00
      21    -1     0     0   501   511  0.000000000E+00  0.000000000E+00 -8.612306950E+02  8.612306950E+02  0.000000000E+00  0.00000E+00  9.000E+00
      25     1     1     2     0     0 -1.030478078E+02  1.329102038E+02 -2.101972142E+02  2.968026985E+02  1.250000000E+02  0.00000E+00  9.000E+00
      25     1     1     2     0     0  1.199957763E+02 -1.517038075E+02 -1.332383585E+02  2.660648262E+02  1.250000000E+02  0.00000E+00  9.000E+00
      21     1     1     2   502   511 -1.694796851E+01  1.879360371E+01 -4.076868002E+02  4.084714925E+02  5.394796609E-06  0.00000E+00  9.000E+00
#rwgt            1           1   2.5607693417712248E-002          10      157306           0
</event>
<event>
      5   9999  3.19816E-02  2.55331E+01 -1.00000E+00  1.58068E-01
      21    -1     0     0   502   501  0.000000000E+00  0.000000000E+00  6.112161918E+02  6.112161918E+02  0.000000000E+00  0.00000E+00  9.000E+00
      21    -1     0     0   512   502  0.000000000E+00  0.000000000E+00 -2.857443200E+02  2.857443200E+02  0.000000000E+00  0.00000E+00  9.000E+00
      25     1     1     2     0     0  3.672733842E+02 -3.806346071E+01  1.489860771E+02  4.173253131E+02  1.250000000E+02  0.00000E+00  9.000E+00
      25     1     1     2     0     0 -3.913748261E+02  4.649300280E+01  1.846458329E+02  4.528299211E+02  1.250000000E+02  0.00000E+00  9.000E+00
      21     1     1     2   512   501  2.410144196E+01 -8.429542096E+00 -8.160038207E+00  2.680527761E+01  5.591411304E-07  0.00000E+00  9.000E+00
#rwgt            1           1   3.4779673375691253E-002          10      157453           0
</event>
<event>
      5   9999  3.88344E-02  2.45589E+01 -1.00000E+00  1.59332E-01
       2    -1     0     0   502     0  0.000000000E+00  0.000000000E+00  2.589615798E+03  2.589615798E+03  0.000000000E+00  0.00000E+00  9.000E+00
      21    -1     0     0   501   502  0.000000000E+00  0.000000000E+00 -2.473108085E+01  2.473108085E+01  0.000000000E+00  0.00000E+00  9.000E+00
      25     1     1     2     0     0 -1.515137475E+02  6.384898317E+01  6.183449389E+02  6.519268148E+02  1.250000000E+02  0.00000E+00  9.000E+00
      25     1     1     2     0     0  1.397276947E+02 -4.230303773E+01  1.185020422E+03  1.200504800E+03  1.250000000E+02  0.00000E+00  9.000E+00
       2     1     1     2   501     0  1.178605278E+01 -2.154594544E+01  7.615193563E+02  7.619152636E+02  1.525878906E-05  0.00000E+00  9.000E+00
#rwgt            1           1  0.11312870221013557               10      157575           0
</event>
<event>
      5   9999  3.19816E-02  3.07848E+02 -1.00000E+00  1.05229E-01
      21    -1     0     0   511   501  0.000000000E+00  0.000000000E+00  2.285837889E+02  2.285837889E+02  0.000000000E+00  0.00000E+00  9.000E+00
      21    -1     0     0   501   502  0.000000000E+00  0.000000000E+00 -7.715622875E+02  7.715622875E+02  0.000000000E+00  0.00000E+00  9.000E+00
      25     1     1     2     0     0 -2.651885938E+02  7.032969862E+01 -2.403723162E+02  3.855841117E+02  1.250000000E+02  0.00000E+00  9.000E+00
      25     1     1     2     0     0  5.971623513E+01  1.589107720E+02 -1.985718674E+02  2.896108574E+02  1.250000000E+02  0.00000E+00  9.000E+00
      21     1     1     2   511   502  2.054723586E+02 -2.292404706E+02 -1.040343151E+02  3.249511074E+02  5.046370146E-06  0.00000E+00  9.000E+00
#rwgt            2          11   4.0678764132879592E-003          10      157702           0
</event>
<event>
      5   9999  3.19816E-02  1.86525E+02 -1.00000E+00  1.12762E-01
      21    -1     0     0   502   501  0.000000000E+00  0.000000000E+00  3.485580625E+02  3.485580625E+02  0.000000000E+00  0.00000E+00  9.000E+00
      21    -1     0     0   512   502  0.000000000E+00  0.000000000E+00 -8.823803307E+02  8.823803307E+02  0.000000000E+00  0.00000E+00  9.000E+00
      25     1     1     2     0     0  3.409277999E+01  3.090603408E+02  2.011987312E+01  3.357237275E+02  1.250000000E+02  0.00000E+00  9.000E+00
      25     1     1     2     0     0 -4.757800823E+01 -4.950972507E+02 -4.463633642E+02  6.798898495E+02  1.250000000E+02  0.00000E+00  9.000E+00
      21     1     1     2   512   501  1.348522824E+01  1.860369099E+02 -1.075787771E+02  2.153248163E+02  3.015782986E-06  0.00000E+00  9.000E+00
#rwgt            1           1   3.0890775340295964E-002          10      157722           0
</event>
<event>
      5   9999  3.19816E-02  1.39715E+02 -1.00000E+00  1.17629E-01
       1    -1     0     0   502     0  0.000000000E+00  0.000000000E+00  1.195259523E+03  1.195259523E+03  0.000000000E+00  0.00000E+00  9.000E+00
      21    -1     0     0   501   502  0.000000000E+00  0.000000000E+00 -7.471189739E+02  7.471189739E+02  0.000000000E+00  0.00000E+00  9.000E+00
      25     1     1     2     0     0  4.723480737E+02  4.644634879E+02 -3.036279663E+02  7.393605184E+02  1.250000000E+02  0.00000E+00  9.000E+00
      25     1     1     2     0     0 -6.115400809E+02 -4.765407944E+02  5.547176688E+02  9.614619552E+02  1.250000000E+02  0.00000E+00  9.000E+00
       1     1     1     2   501     0  1.391920071E+02  1.207730656E+01  1.970508462E+02  2.415560228E+02  2.697398305E-06  0.00000E+00  9.000E+00
#rwgt            1           1   3.0795242821286858E-002          10      157808           0
</event>
<event>
      5   9999  3.19816E-02  8.36712E+01 -1.00000E+00  1.27413E-01
      21    -1     0     0   511   501  0.000000000E+00  0.000000000E+00  5.334946185E+02  5.334946185E+02  0.000000000E+00  0.00000E+00  9.000E+00
      21    -1     0     0   501   502  0.000000000E+00  0.000000000E+00 -3.406101877E+02  3.406101877E+02  0.000000000E+00  0.00000E+00  9.000E+00
      25     1     1     2     0     0 -1.083891032E+02 -4.239027456E+01 -2.835549914E+02  3.310189817E+02  1.250000000E+02  0.00000E+00  9.000E+00
      25     1     1     2     0     0  8.972302663E+01 -3.917229469E+01  2.065479844E+02  2.605220913E+02  1.250000000E+02  0.00000E+00  9.000E+00
      21     1     1     2   511   502  1.866607662E+01  8.156256924E+01  2.698914379E+02  2.825637333E+02  3.814697266E-06  0.00000E+00  9.000E+00
#rwgt            1           1   3.1060352745548466E-002          10      157887           0
</event>
<event>
      5   9999  3.19816E-02  9.31184E+01 -1.00000E+00  1.25237E-01
      -2    -1     0     0     0   501  0.000000000E+00  0.000000000E+00  1.637939639E+03  1.637939639E+03  0.000000000E+00  0.00000E+00  9.000E+00
      21    -1     0     0   501   502  0.000000000E+00  0.000000000E+00 -4.518530891E+02  4.518530891E+02  0.000000000E+00  0.00000E+00  9.000E+00
      25     1     1     2     0     0  4.146020270E+02  1.352693511E+02  4.414914720E+02  6.330342470E+02  1.250000000E+02  0.00000E+00  9.000E+00
      25     1     1     2     0     0 -3.927597926E+02 -4.474887384E+01 -2.324330743E+02  4.753029039E+02  1.250000000E+02  0.00000E+00  9.000E+00
      -2     1     1     2     0   502 -2.184223435E+01 -9.052047726E+01  9.770281525E+02  9.814555775E+02  0.000000000E+00  0.00000E+00  9.000E+00
#rwgt            1           1   3.0024076110848421E-002          10      157974           0
</event>
<event>
      5   9999  3.19816E-02  4.17549E+01 -1.00000E+00  1.43693E-01
      21    -1     0     0   502   501  0.000000000E+00  0.000000000E+00  1.998637621E+02  1.998637621E+02  0.000000000E+00  0.00000E+00  9.000E+00
       2    -1     0     0   501     0  0.000000000E+00  0.000000000E+00 -8.858084502E+02  8.858084502E+02  0.000000000E+00  0.00000E+00  9.000E+00
      25     1     1     2     0     0 -2.990409330E+01  3.359265209E+02 -3.572921530E+02  5.069749154E+02  1.250000000E+02  0.00000E+00  9.000E+00
      25     1     1     2     0     0  5.812605268E+01 -3.666997781E+02 -1.929078664E+02  4.366758640E+02  1.250000000E+02  0.00000E+00  9.000E+00
       2     1     1     2   502     0 -2.822195938E+01  3.077325718E+01 -1.357446686E+02  1.420214329E+02  1.907348633E-06  0.00000E+00  9.000E+00
#rwgt            1           1   2.7111683374818518E-002          10      158059           0
</event>
<event>
      5   9999  3.19816E-02  8.47294E+00 -1.00000E+00  2.04462E-01
      21    -1     0     0   502   501  0.000000000E+00  0.000000000E+00  1.795374812E+02  1.795374812E+02  0.000000000E+00  0.00000E+00  9.000E+00
      21    -1     0     0   501   511  0.000000000E+00  0.000000000E+00 -1.667132842E+03  1.667132842E+03  0.000000000E+00  0.00000E+00  9.000E+00
      25     1     1     2     0     0  9.375264552E+01  1.864303029E+02  1.278219269E+01  2.435861261E+02  1.250000000E+02  0.00000E+00  9.000E+00
      25     1     1     2     0     0 -8.946866033E+01 -1.937404455E+02 -2.465095659E+02  3.491875821E+02  1.250000000E+02  0.00000E+00  9.000E+00
      21     1     1     2   502   511 -4.283985189E+00  7.310142578E+00 -1.253867988E+03  1.253896615E+03  2.157918644E-05  0.00000E+00  9.000E+00
#rwgt            1           1   2.8281831540404586E-002          10      158182           0
</event>
<event>
      5   9999  3.19816E-02  1.78247E+01 -1.00000E+00  1.70604E-01
      21    -1     0     0   502   501  0.000000000E+00  0.000000000E+00  2.770145510E+02  2.770145510E+02  0.000000000E+00  0.00000E+00  9.000E+00
      21    -1     0     0   501   512  0.000000000E+00  0.000000000E+00 -1.100790914E+03  1.100790914E+03  0.000000000E+00  0.00000E+00  9.000E+00
      25     1     1     2     0     0 -2.851653177E+02 -3.872455062E+01  1.275381051E+02  3.386883781E+02  1.250000000E+02  0.00000E+00  9.000E+00
      25     1     1     2     0     0  2.863344963E+02  5.651089777E+01 -5.328284162E+02  6.202515993E+02  1.250000000E+02  0.00000E+00  9.000E+00
      21     1     1     2   502   512 -1.169178611E+00 -1.778634715E+01 -4.184860517E+02  4.188654875E+02  5.394796609E-06  0.00000E+00  9.000E+00
#rwgt            1           1   2.8518676490990217E-002          10      158362           0
</event>
<event>
      5   9999  3.19816E-02  2.58262E+01 -1.00000E+00  1.57700E-01
      21    -1     0     0   502   501  0.000000000E+00  0.000000000E+00  1.003716217E+03  1.003716217E+03  0.000000000E+00  0.00000E+00  9.000E+00
       2    -1     0     0   501     0  0.000000000E+00  0.000000000E+00 -1.836617748E+03  1.836617748E+03  0.000000000E+00  0.00000E+00  9.000E+00
      25     1     1     2     0     0 -9.218883348E+02  7.240720477E+01 -1.428686647E+01  9.332470303E+02  1.250000000E+02  0.00000E+00  9.000E+00
      25     1     1     2     0     0  9.268933313E+02 -9.774381940E+01  1.377154591E+02  9.504081489E+02  1.250000000E+02  0.00000E+00  9.000E+00
       2     1     1     2   502     0 -5.004996522E+00  2.533661462E+01 -9.563301231E+02  9.566787854E+02  0.000000000E+00  0.00000E+00  9.000E+00
#rwgt            1           1   3.1683405825702546E-002          10      158497           0
</event>
<event>
      5   9999  3.19816E-02  2.69400E+01 -1.00000E+00  1.56357E-01
      21    -1     0     0   502   501  0.000000000E+00  0.000000000E+00  7.306366487E+02  7.306366487E+02  0.000000000E+00  0.00000E+00  9.000E+00
      21    -1     0     0   501   511  0.000000000E+00  0.000000000E+00 -2.672227293E+02  2.672227293E+02  0.000000000E+00  0.00000E+00  9.000E+00
      25     1     1     2     0     0 -2.673314477E+02  2.655895539E+02  1.200328921E+02  4.147732022E+02  1.250000000E+02  0.00000E+00  9.000E+00
      25     1     1     2     0     0  2.703604714E+02 -2.923587684E+02  3.602184077E+02  5.513172727E+02  1.250000000E+02  0.00000E+00  9.000E+00
      21     1     1     2   502   511 -3.029023730E+00  2.676921449E+01 -1.683738028E+01  3.176890309E+01  7.152557373E-07  0.00000E+00  9.000E+00
#rwgt            1           1   3.2146818325529812E-002          10      158862           0
</event>
<event>
      5   9999  3.19816E-02  1.20696E+01 -1.00000E+00  1.86764E-01
      21    -1     0     0   512   501  0.000000000E+00  0.000000000E+00  1.105429483E+02  1.105429483E+02  0.000000000E+00  0.00000E+00  9.000E+00
      21    -1     0     0   501   502  0.000000000E+00  0.000000000E+00 -1.601193012E+03  1.601193012E+03  0.000000000E+00  0.00000E+00  9.000E+00
      25     1     1     2     0     0  1.776885113E+02 -1.687526126E+02 -1.374864785E+03  1.402115840E+03  1.250000000E+02  0.00000E+00  9.000E+00
      25     1     1     2     0     0 -1.810562440E+02  1.571623621E+02 -9.692716724E+01  2.872303036E+02  1.250000000E+02  0.00000E+00  9.000E+00
      21     1     1     2   512   502  3.367732710E+00  1.159025059E+01 -1.885811163E+01  2.238981702E+01  4.129530925E-07  0.00000E+00  9.000E+00
#rwgt            1           1   3.4061167828360647E-002          10      159035           0
</event>
<event>
      5   9999  3.19816E-02  1.58662E+02 -1.00000E+00  1.15435E-01
      21    -1     0     0   511   501  0.000000000E+00  0.000000000E+00  1.444930668E+03  1.444930668E+03  0.000000000E+00  0.00000E+00  9.000E+00
      21    -1     0     0   501   502  0.000000000E+00  0.000000000E+00 -8.291627198E+01  8.291627198E+01  0.000000000E+00  0.00000E+00  9.000E+00
      25     1     1     2     0     0  9.456409650E+01  1.097438617E+02  3.041184692E+02  3.593036694E+02  1.250000000E+02  0.00000E+00  9.000E+00
      25     1     1     2     0     0  5.731316155E+01 -6.384380749E+01  6.825855757E+01  1.662680394E+02  1.250000000E+02  0.00000E+00  9.000E+00
      21     1     1     2   511   502 -1.518772580E+02 -4.590005418E+01  9.896373692E+02  1.002275231E+03  0.000000000E+00  0.00000E+00  9.000E+00
#rwgt            2          11   5.5724434826529019E-003          10      159364           0
</event>
<event>
      5   9999  3.19816E-02  2.33964E+01 -1.00000E+00  1.60938E-01
      21    -1     0     0   502   501  0.000000000E+00  0.000000000E+00  5.524981066E+02  5.524981066E+02  0.000000000E+00  0.00000E+00  9.000E+00
      21    -1     0     0   512   502  0.000000000E+00  0.000000000E+00 -1.335026822E+02  1.335026822E+02  0.000000000E+00  0.00000E+00  9.000E+00
      25     1     1     2     0     0 -5.360305059E+01  1.241819030E+02  4.469655185E+02  4.834228033E+02  1.250000000E+02  0.00000E+00  9.000E+00
      25     1     1     2     0     0  4.677260047E+01 -1.018047496E+02 -4.482610860E+01  1.737419443E+02  1.250000000E+02  0.00000E+00  9.000E+00
      21     1     1     2   512   501  6.830450121E+00 -2.237715343E+01  1.685601460E+01  2.883604121E+01  2.384185791E-07  0.00000E+00  9.000E+00
#rwgt            1           1   2.4065451455644021E-002          10      159399           0
</event>
<event>
      5   9999  3.19816E-02  2.35694E+02 -1.00000E+00  1.09112E-01
      21    -1     0     0   502   511  0.000000000E+00  0.000000000E+00  1.354016615E+03  1.354016615E+03  0.000000000E+00  0.00000E+00  9.000E+00
      21    -1     0     0   501   502  0.000000000E+00  0.000000000E+00 -8.348157035E+02  8.348157035E+02  0.000000000E+00  0.00000E+00  9.000E+00
      25     1     1     2     0     0  4.480024923E+02  2.513687751E+02  8.400897052E+02  9.926067736E+02  1.250000000E+02  0.00000E+00  9.000E+00
      25     1     1     2     0     0 -6.141348394E+02 -8.418110445E+01 -5.713949154E+02  8.522706193E+02  1.250000000E+02  0.00000E+00  9.000E+00
      21     1     1     2   501   511  1.661323471E+02 -1.671876706E+02  2.505061220E+02  3.439549260E+02  0.000000000E+00  0.00000E+00  9.000E+00
#rwgt            1           1   2.9633957082766647E-002          10      159525           0
</event>
<event>
      5   9999  3.19816E-02  3.74010E+01 -1.00000E+00  1.46673E-01
      21    -1     0     0   502   501  0.000000000E+00  0.000000000E+00  6.809658562E+02  6.809658562E+02  0.000000000E+00  0.00000E+00  9.000E+00
      21    -1     0     0   512   502  0.000000000E+00  0.000000000E+00 -2.519346415E+02  2.519346415E+02  0.000000000E+00  0.00000E+00  9.000E+00
      25     1     1     2     0     0  7.456741113E+01 -2.586359790E+02 -8.092609879E+01  3.076148597E+02  1.250000000E+02  0.00000E+00  9.000E+00
      25     1     1     2     0     0 -1.116467269E+02  2.635308616E+02  4.943916385E+02  5.847748275E+02  1.250000000E+02  0.00000E+00  9.000E+00
      21     1     1     2   512   501  3.707931576E+01 -4.894882607E+00  1.556567497E+01  4.051081053E+01  2.384185791E-07  0.00000E+00  9.000E+00
#rwgt            1           1   2.8676213191377815E-002          10      159611           0
</event>
<event>
      5   9999  3.19816E-02  1.40308E+02 -1.00000E+00  1.17555E-01
      21    -1     0     0   502   501  0.000000000E+00  0.000000000E+00  3.269543455E+03  3.269543455E+03  0.000000000E+00  0.00000E+00  9.000E+00
      21    -1     0     0   511   502  0.000000000E+00  0.000000000E+00 -1.191894522E+02  1.191894522E+02  0.000000000E+00  0.00000E+00  9.000E+00
      25     1     1     2     0     0 -3.679816469E+02  4.299210694E+02  2.145467884E+03  2.222363620E+03  1.250000000E+02  0.00000E+00  9.000E+00
      25     1     1     2     0     0  2.488581484E+02 -3.557864064E+02  7.691528164E+02  8.920400215E+02  1.250000000E+02  0.00000E+00  9.000E+00
      21     1     1     2   511   501  1.191234985E+02 -7.413466297E+01  2.357333026E+02  2.743292659E+02  0.000000000E+00  0.00000E+00  9.000E+00
#rwgt            1           1   5.5843861216691625E-002          10      159740           0
</event>
<event>
      5   9999  3.19816E-02  1.47886E+02 -1.00000E+00  1.16638E-01
      21    -1     0     0   502   501  0.000000000E+00  0.000000000E+00  2.278495572E+02  2.278495572E+02  0.000000000E+00  0.00000E+00  9.000E+00
      21    -1     0     0   512   502  0.000000000E+00  0.000000000E+00 -8.141563978E+02  8.141563978E+02  0.000000000E+00  0.00000E+00  9.000E+00
      25     1     1     2     0     0  8.848619822E+01  3.310051864E+02 -9.009695466E+01  3.756816497E+02  1.250000000E+02  0.00000E+00  9.000E+00
      25     1     1     2     0     0  4.330448833E+01 -2.639127790E+02 -3.032894442E+02  4.232430986E+02  1.250000000E+02  0.00000E+00  9.000E+00
      21     1     1     2   512   501 -1.317906865E+02 -6.709240744E+01 -1.929204417E+02  2.430812067E+02  2.697398305E-06  0.00000E+00  9.000E+00
#rwgt            1           1   2.7750146111468952E-002          10      159802           0
</event>
<event>
      5   9999  3.19816E-02  6.43188E+01 -1.00000E+00  1.33110E-01
      21    -1     0     0   511   501  0.000000000E+00  0.000000000E+00  1.102716030E+03  1.102716030E+03  0.000000000E+00  0.00000E+00  9.000E+00
      21    -1     0     0   501   502  0.000000000E+00  0.000000000E+00 -1.005169862E+03  1.005169862E+03  0.000000000E+00  0.00000E+00  9.000E+00
      25     1     1     2     0     0  6.067324166E+02  1.245130647E+02 -6.845862930E+02  9.316174758E+02  1.250000000E+02  0.00000E+00  9.000E+00
      25     1     1     2     0     0 -5.432047468E+02 -1.345698151E+02  2.258664034E+02  6.162962472E+02  1.250000000E+02  0.00000E+00  9.000E+00
      21     1     1     2   511   502 -6.352766975E+01  1.005675039E+01  5.562660572E+02  5.599721685E+02  7.629394531E-06  0.00000E+00  9.000E+00
#rwgt            1           1   3.1426995882040273E-002          10      159887           0
</event>
<event>
      5   9999  3.19816E-02  7.64525E+01 -1.00000E+00  1.29310E-01
      21    -1     0     0   502   501  0.000000000E+00  0.000000000E+00  1.737023553E+03  1.737023553E+03  0.000000000E+00  0.00000E+00  9.000E+00
      21    -1     0     0   512   502  0.000000000E+00  0.000000000E+00 -1.555985000E+03  1.555985000E+03  0.000000000E+00  0.00000E+00  9.000E+00
      25     1     1     2     0     0 -5.317218821E+02  1.381608498E+03  6.294570312E+02  1.613509019E+03  1.250000000E+02  0.00000E+00  9.000E+00
      25     1     1     2     0     0  5.512415764E+02 -1.307689822E+03 -2.236308677E+02  1.442066473E+03  1.250000000E+02  0.00000E+00  9.000E+00
      21     1     1     2   512   501 -1.951969430E+01 -7.391867551E+01 -2.247876101E+02  2.374330616E+02  2.697398305E-06  0.00000E+00  9.000E+00
#rwgt            2          11   1.2603369058808352E-002          10      160202           0
</event>
<event>
      5   9999  3.19816E-02  4.02331E+02 -1.00000E+00  1.01610E-01
       2    -1     0     0   502     0  0.000000000E+00  0.000000000E+00  1.493884980E+03  1.493884980E+03  0.000000000E+00  0.00000E+00  9.000E+00
      21    -1     0     0   501   502  0.000000000E+00  0.000000000E+00 -4.262467830E+02  4.262467830E+02  0.000000000E+00  0.00000E+00  9.000E+00
      25     1     1     2     0     0  2.116433247E+02 -2.255602564E+02  2.922684648E+01  3.348873463E+02  1.250000000E+02  0.00000E+00  9.000E+00
      25     1     1     2     0     0 -4.567868556E+02  5.445817911E+02  3.851800101E+02  8.180539095E+02  1.250000000E+02  0.00000E+00  9.000E+00
       2     1     1     2   501     0  2.451435309E+02 -3.190215347E+02  6.532313407E+02  7.671905075E+02  7.629394531E-06  0.00000E+00  9.000E+00
#rwgt            2          18   1.0974785159487592E-003          10      160327           0
</event>
<event>
      5   9999  3.19816E-02  4.40484E+02 -1.00000E+00  1.00441E-01
      21    -1     0     0   502   511  0.000000000E+00  0.000000000E+00  5.983693104E+02  5.983693104E+02  0.000000000E+00  0.00000E+00  9.000E+00
      21    -1     0     0   501   502  0.000000000E+00  0.000000000E+00 -9.281055187E+02  9.281055187E+02  0.000000000E+00  0.00000E+00  9.000E+00
      25     1     1     2     0     0  4.077860909E+01 -3.033819430E+02 -1.191024793E+02  3.514454423E+02  1.250000000E+02  0.00000E+00  9.000E+00
      25     1     1     2     0     0 -4.695133516E+02  2.023239740E+02 -4.330582542E+02  6.815733484E+02  1.250000000E+02  0.00000E+00  9.000E+00
      21     1     1     2   501   511  4.287347425E+02  1.010579690E+02  2.224245251E+02  4.934560384E+02  3.814697266E-06  0.00000E+00  9.000E+00
#rwgt            2          11   2.8540650601890506E-003          10      160346           0
</event>
<event>
      5   9999  3.19816E-02  3.49953E+01 -1.00000E+00  1.48535E-01
      21    -1     0     0   512   501  0.000000000E+00  0.000000000E+00  3.200600950E+02  3.200600950E+02  0.000000000E+00  0.00000E+00  9.000E+00
      21    -1     0     0   501   502  0.000000000E+00  0.000000000E+00 -2.301919800E+02  2.301919800E+02  0.000000000E+00  0.00000E+00  9.000E+00
      25     1     1     2     0     0 -1.594819491E+01 -1.610806056E+02 -9.412982018E+01  2.251371348E+02  1.250000000E+02  0.00000E+00  9.000E+00
      25     1     1     2     0     0 -8.009224148E+00  1.865896479E+02  1.267344902E+02  2.580047972E+02  1.250000000E+02  0.00000E+00  9.000E+00
      21     1     1     2   512   502  2.395741906E+01 -2.550904234E+01  5.726344489E+01  6.711014297E+01  0.000000000E+00  0.00000E+00  9.000E+00
#rwgt            1           1   2.8587057824751190E-002          10      160396           0
</event>
<event>
      5   9999  3.19816E-02  2.82032E+01 -1.00000E+00  1.54926E-01
      21    -1     0     0   502   511  0.000000000E+00  0.000000000E+00  1.151278630E+02  1.151278630E+02  0.000000000E+00  0.00000E+00  9.000E+00
      21    -1     0     0   501   502  0.000000000E+00  0.000000000E+00 -4.634569276E+02  4.634569276E+02  0.000000000E+00  0.00000E+00  9.000E+00
      25     1     1     2     0     0 -1.371432743E+02 -9.817808017E+01 -9.713746425E+01  2.313177470E+02  1.250000000E+02  0.00000E+00  9.000E+00
      25     1     1     2     0     0  1.434514004E+02  7.068936734E+01 -2.454139641E+02  3.184781071E+02  1.250000000E+02  0.00000E+00  9.000E+00
      21     1     1     2   501   511 -6.308126018E+00  2.748871283E+01 -5.777636214E+00  2.878893654E+01  3.475518164E-07  0.00000E+00  9.000E+00
#rwgt            1           1   2.6466669426425966E-002          10      160480           0
</event>
<event>
      5   9999  3.19816E-02  4.11512E+01 -1.00000E+00  1.44080E-01
      21    -1     0     0   512   501  0.000000000E+00  0.000000000E+00  2.808386140E+02  2.808386140E+02  0.000000000E+00  0.00000E+00  9.000E+00
      21    -1     0     0   501   502  0.000000000E+00  0.000000000E+00 -5.020664609E+02  5.020664609E+02  0.000000000E+00  0.00000E+00  9.000E+00
      25     1     1     2     0     0 -1.734169849E+02 -2.510988879E+02 -7.232603509E+01  3.376094749E+02  1.250000000E+02  0.00000E+00  9.000E+00
      25     1     1     2     0     0  1.340749496E+02  2.631663860E+02 -2.013115479E+02  3.786607692E+02  1.250000000E+02  0.00000E+00  9.000E+00
      21     1     1     2   512   502  3.934203530E+01 -1.206749811E+01  5.240973601E+01  6.663483084E+01  6.743495762E-07  0.00000E+00  9.000E+00
#rwgt            1           1   2.8213937354414190E-002          10      160584           0
</event>
<event>
      5   9999  3.19816E-02  7.50749E+01 -1.00000E+00  1.29700E-01
      21    -1     0     0   502   501  0.000000000E+00  0.000000000E+00  1.314102819E+03  1.314102819E+03  0.000000000E+00  0.00000E+00  9.000E+00
      21    -1     0     0   511   502  0.000000000E+00  0.000000000E+00 -3.762261042E+02  3.762261042E+02  0.000000000E+00  0.00000E+00  9.000E+00
      25     1     1     2     0     0 -2.916648618E+02  2.434595113E+02 -1.846747160E+02  4.405345344E+02  1.250000000E+02  0.00000E+00  9.000E+00
      25     1     1     2     0     0  2.307080692E+02 -2.872831124E+02  1.106649167E+03  1.173053783E+03  1.250000000E+02  0.00000E+00  9.000E+00
      21     1     1     2   511   501  6.095679257E+01  4.382360107E+01  1.590226419E+01  7.674060580E+01  8.085167388E-07  0.00000E+00  9.000E+00
#rwgt            1           1   2.8647521776628753E-002          10      160666           0
</event>
<event>
      5   9999  3.19816E-02  1.30711E+02 -1.00000E+00  1.18813E-01
      21    -1     0     0   512   501  0.000000000E+00  0.000000000E+00  1.225300689E+03  1.225300689E+03  0.000000000E+00  0.00000E+00  9.000E+00
      21    -1     0     0   501   502  0.000000000E+00  0.000000000E+00 -5.983621878E+02  5.983621878E+02  0.000000000E+00  0.00000E+00  9.000E+00
      25     1     1     2     0     0  3.944265936E+02 -2.462799086E+02  9.647626248E+01  4.910792200E+02  1.250000000E+02  0.00000E+00  9.000E+00
      25     1     1     2     0     0 -5.076682867E+02  3.115605805E+02 -1.604487298E+02  6.294170950E+02  1.250000000E+02  0.00000E+00  9.000E+00
      21     1     1     2   512   502  1.132416931E+02 -6.528067187E+01  6.909109681E+02  7.031665613E+02  1.078959322E-05  0.00000E+00  9.000E+00
#rwgt            1           1   3.0739753138633186E-002          10      160790           0
</event>
<event>
      5   9999  3.19816E-02  8.95140E+00 -1.00000E+00  2.01488E-01
      21    -1     0     0   502   501  0.000000000E+00  0.000000000E+00  2.191723011E+03  2.191723011E+03  0.000000000E+00  0.00000E+00  9.000E+00
      21    -1     0     0   511   502  0.000000000E+00  0.000000000E+00 -9.630090292E+01  9.630090292E+01  0.000000000E+00  0.00000E+00  9.000E+00
      25     1     1     2     0     0 -2.974986901E+02  1.192641314E+02  3.229797043E+02  4.718795323E+02  1.250000000E+02  0.00000E+00  9.000E+00
      25     1     1     2     0     0  3.056478221E+02 -1.155601816E+02  1.772988061E+03  1.807176364E+03  1.250000000E+02  0.00000E+00  9.000E+00
      21     1     1     2   511   501 -8.149132022E+00 -3.703949810E+00 -5.456571243E-01  8.968017540E+00  6.277970801E-08  0.00000E+00  9.000E+00
#rwgt            1           1   3.2055786626760396E-002          10      160850           0
</event>
<event>
      5   9999  3.19816E-02  4.26139E+01 -1.00000E+00  1.43156E-01
      21    -1     0     0   502   512  0.000000000E+00  0.000000000E+00  1.487151503E+02  1.487151503E+02  0.000000000E+00  0.00000E+00  9.000E+00
      21    -1     0     0   501   502  0.000000000E+00  0.000000000E+00 -5.629264106E+02  5.629264106E+02  0.000000000E+00  0.00000E+00  9.000E+00
      25     1     1     2     0     0  1.815489358E+02 -8.285187669E+01 -3.948121042E+02  4.597021287E+02  1.250000000E+02  0.00000E+00  9.000E+00
      25     1     1     2     0     0 -1.393332040E+02  8.866373063E+01 -5.786010578E+00  2.072039498E+02  1.250000000E+02  0.00000E+00  9.000E+00
      21     1     1     2   501   512 -4.221573178E+01 -5.811853936E+00 -1.361314552E+01  4.473548241E+01  1.685873940E-07  0.00000E+00  9.000E+00
#rwgt            1           1   2.6115375774292220E-002          10      161071           0
</event>
<event>
      5   9999  3.19816E-02  2.59344E+01 -1.00000E+00  1.57566E-01
      21    -1     0     0   511   501  0.000000000E+00  0.000000000E+00  4.141571471E+02  4.141571471E+02  0.000000000E+00  0.00000E+00  9.000E+00
      21    -1     0     0   501   502  0.000000000E+00  0.000000000E+00 -6.916478909E+02  6.916478909E+02  0.000000000E+00  0.00000E+00  9.000E+00
      25     1     1     2     0     0  1.489415595E+02  1.400342252E+02 -6.278521966E+02  6.720242207E+02  1.250000000E+02  0.00000E+00  9.000E+00
      25     1     1     2     0     0 -1.547368087E+02 -1.147556189E+02  3.097162908E+02  3.855664830E+02  1.250000000E+02  0.00000E+00  9.000E+00
      21     1     1     2   511   502  5.795249110E+00 -2.527860629E+01  4.064516192E+01  4.821433434E+01  6.743495762E-07  0.00000E+00  9.000E+00
#rwgt            1           1   2.8106187650046324E-002          10      161184           0
</event>
<event>
      5   9999  3.19816E-02  1.51750E+01 -1.00000E+00  1.76910E-01
       2    -1     0     0   502     0  0.000000000E+00  0.000000000E+00  1.999902131E+03  1.999902131E+03  0.000000000E+00  0.00000E+00  9.000E+00
      21    -1     0     0   501   502  0.000000000E+00  0.000000000E+00 -2.085542851E+01  2.085542851E+01  0.000000000E+00  0.00000E+00  9.000E+00
      25     1     1     2     0     0 -4.444561360E+01 -8.929304204E+01  1.078450093E+03  1.090242296E+03  1.250000000E+02  0.00000E+00  9.000E+00
      25     1     1     2     0     0  5.849590687E+01  8.355978435E+01  4.236956190E+02  4.533728997E+02  1.250000000E+02  0.00000E+00  9.000E+00
       2     1     1     2   501     0 -1.405029327E+01  5.733257696E+00  4.769009907E+02  4.771423644E+02  5.394796609E-06  0.00000E+00  9.000E+00
#rwgt            1           1   3.0911346734392338E-002          10      161374           0
</event>
<event>
      5   9999  3.19816E-02  3.22855E+01 -1.00000E+00  1.50858E-01
      21    -1     0     0   502   501  0.000000000E+00  0.000000000E+00  4.576069556E+02  4.576069556E+02  0.000000000E+00  0.00000E+00  9.000E+00
      21    -1     0     0   501   511  0.000000000E+00  0.000000000E+00 -6.745592959E+02  6.745592959E+02  0.000000000E+00  0.00000E+00  9.000E+00
      25     1     1     2     0     0  2.152923348E+02 -4.187041639E+02  1.000731162E+02  4.972962848E+02  1.250000000E+02  0.00000E+00  9.000E+00
      25     1     1     2     0     0 -2.221349410E+02  4.502562194E+02 -2.927510060E+02  5.944768681E+02  1.250000000E+02  0.00000E+00  9.000E+00
      21     1     1     2   502   511  6.842606256E+00 -3.155205550E+01 -2.427445051E+01  4.039309860E+01  5.840038640E-07  0.00000E+00  9.000E+00
#rwgt            1           1   2.3859736075066883E-002          10      161512           0
</event>
<event>
      5   9999  3.19816E-02  4.07452E+01 -1.00000E+00  1.44345E-01
      21    -1     0     0   502   512  0.000000000E+00  0.000000000E+00  4.992987352E+02  4.992987352E+02  0.000000000E+00  0.00000E+00  9.000E+00
      21    -1     0     0   501   502  0.000000000E+00  0.000000000E+00 -6.108771174E+02  6.108771174E+02  0.000000000E+00  0.00000E+00  9.000E+00
      25     1     1     2     0     0 -4.648185664E+01 -1.656145647E+02  1.739260778E+02  2.747071670E+02  1.250000000E+02  0.00000E+00  9.000E+00
      25     1     1     2     0     0  3.625343458E+01  2.050550363E+02 -5.324278294E+02  5.852061799E+02  1.250000000E+02  0.00000E+00  9.000E+00
      21     1     1     2   501   512  1.022842205E+01 -3.944047160E+01  2.469233694E+02  2.502625057E+02  0.000000000E+00  0.00000E+00  9.000E+00
#rwgt            1           1   2.3770265129278007E-002          10      161658           0
</event>
<event>
      5   9999  3.19816E-02  5.17600E+01 -1.00000E+00  1.38224E-01
      21    -1     0     0   511   501  0.000000000E+00  0.000000000E+00  3.561339805E+02  3.561339805E+02  0.000000000E+00  0.00000E+00  9.000E+00
      21    -1     0     0   501   502  0.000000000E+00  0.000000000E+00 -1.080043041E+03  1.080043041E+03  0.000000000E+00  0.00000E+00  9.000E+00
      25     1     1     2     0     0 -7.357347548E+01  5.347282340E+01  3.151895537E+02  3.510581916E+02  1.250000000E+02  0.00000E+00  9.000E+00
      25     1     1     2     0     0  7.660813374E+01 -1.051437558E+02 -1.009497786E+03  1.025492465E+03  1.250000000E+02  0.00000E+00  9.000E+00
      21     1     1     2   511   502 -3.034658258E+00  5.167093237E+01 -2.960082838E+01  5.962636534E+01  6.743495762E-07  0.00000E+00  9.000E+00
#rwgt            1           1   3.0013498474096904E-002          10      161794           0
</event>
<event>
      5   9999  3.19816E-02  1.38063E+02 -1.00000E+00  1.17839E-01
      21    -1     0     0   512   501  0.000000000E+00  0.000000000E+00  2.189672934E+03  2.189672934E+03  0.000000000E+00  0.00000E+00  9.000E+00
      21    -1     0     0   501   502  0.000000000E+00  0.000000000E+00 -8.022850537E+02  8.022850537E+02  0.000000000E+00  0.00000E+00  9.000E+00
      25     1     1     2     0     0  9.501695656E+01  1.036865746E+03 -1.345458284E+02  1.057282543E+03  1.250000000E+02  0.00000E+00  9.000E+00
      25     1     1     2     0     0  4.284030371E+01 -1.044396874E+03  1.293278042E+03  1.667571053E+03  1.250000000E+02  0.00000E+00  9.000E+00
      21     1     1     2   512   502 -1.378572603E+02  7.531128203E+00  2.286556671E+02  2.671043920E+02  2.697398305E-06  0.00000E+00  9.000E+00
#rwgt            1           1   5.4480438228107608E-002          10      161953           0
</event>
<event>
      5   9999  3.19816E-02  4.28506E+02 -1.00000E+00  1.00794E-01
      21    -1     0     0   502   501  0.000000000E+00  0.000000000E+00  9.947146542E+02  9.947146542E+02  0.000000000E+00  0.00000E+00  9.000E+00
       2    -1     0     0   501     0  0.000000000E+00  0.000000000E+00 -1.903094576E+03  1.903094576E+03  0.000000000E+00  0.00000E+00  9.000E+00
      25     1     1     2     0     0 -4.747573535E+01  7.660002048E+02  2.669644235E+02  8.221345769E+02  1.250000000E+02  0.00000E+00  9.000E+00
      25     1     1     2     0     0  3.468915809E+02 -4.594584942E+02  2.101113839E+02  6.254659627E+02  1.250000000E+02  0.00000E+00  9.000E+00
       2     1     1     2   502     0 -2.994158456E+02 -3.065417106E+02 -1.385455729E+03  1.450208691E+03  0.000000000E+00  0.00000E+00  9.000E+00
#rwgt            2          13   2.3178117709660739E-003          10      162049           0
</event>
<event>
      5   9999  3.19816E-02  1.17664E+01 -1.00000E+00  1.87930E-01
      21    -1     0     0   502   511  0.000000000E+00  0.000000000E+00  4.254307344E+02  4.254307344E+02  0.000000000E+00  0.00000E+00  9.000E+00
      21    -1     0     0   501   502  0.000000000E+00  0.000000000E+00 -9.705296606E+01  9.705296606E+01  0.000000000E+00  0.00000E+00  9.000E+00
      25     1     1     2     0     0  9.825172666E+01  3.350330496E+01  1.229040443E+01  1.629476213E+02  1.250000000E+02  0.00000E+00  9.000E+00
      25     1     1     2     0     0 -9.618158084E+01 -2.192048560E+01  2.994880838E+02  3.391894995E+02  1.250000000E+02  0.00000E+00  9.000E+00
      21     1     1     2   501   511 -2.070145820E+00 -1.158281936E+01  1.659928004E+01  2.034657971E+01  4.129530925E-07  0.00000E+00  9.000E+00
#rwgt            1           1   2.4173114804047595E-002          10      162083           0
</event>
<event>
      5   9999  3.19816E-02  8.75033E+01 -1.00000E+00  1.26493E-01
      21    -1     0     0   502   512  0.000000000E+00  0.000000000E+00  6.940393382E+02  6.940393382E+02  0.000000000E+00  0.00000E+00  9.000E+00
      21    -1     0     0   501   502  0.000000000E+00  0.000000000E+00 -1.919928118E+03  1.919928118E+03  0.000000000E+00  0.00000E+00  9.000E+00
      25     1     1     2     0     0 -1.036243409E+03 -3.198936415E+02 -7.492049064E+02  1.324033737E+03  1.250000000E+02  0.00000E+00  9.000E+00
      25     1     1     2     0     0  1.044108751E+03  2.327445950E+02 -5.157163631E+02  1.194119549E+03  1.250000000E+02  0.00000E+00  9.000E+00
      21     1     1     2   501   512 -7.865341691E+00  8.714904653E+01  3.903249002E+01  9.581417008E+01  9.536743164E-07  0.00000E+00  9.000E+00
#rwgt            1           1   3.3178259658608801E-002          10      162279           0
</event>
<event>
      5   9999  3.19816E-02  2.04421E+02 -1.00000E+00  1.11303E-01
      21    -1     0     0   502   501  0.000000000E+00  0.000000000E+00  4.884141001E+02  4.884141001E+02  0.000000000E+00  0.00000E+00  9.000E+00
       2    -1     0     0   501     0  0.000000000E+00  0.000000000E+00 -2.449552203E+03  2.449552203E+03  0.000000000E+00  0.00000E+00  9.000E+00
      25     1     1     2     0     0  2.488547901E+02 -1.260815015E+02  3.643175960E+02  4.755812889E+02  1.250000000E+02  0.00000E+00  9.000E+00
      25     1     1     2     0     0 -3.334759085E+02 -6.000219888E+01 -4.555604320E+02  5.813490798E+02  1.250000000E+02  0.00000E+00  9.000E+00
       2     1     1     2   502     0  8.462111839E+01  1.860837004E+02 -1.869895267E+03  1.881035934E+03  2.157918644E-05  0.00000E+00  9.000E+00
#rwgt            1           1   3.0448377051723825E-002          10      162398           0
</event>
<event>
      5   9999  3.19816E-02  6.52365E+01 -1.00000E+00  1.32790E-01
      21    -1     0     0   502   511  0.000000000E+00  0.000000000E+00  1.208318877E+02  1.208318877E+02  0.000000000E+00  0.00000E+00  9.000E+00
      21    -1     0     0   501   502  0.000000000E+00  0.000000000E+00 -8.871515406E+02  8.871515406E+02  0.000000000E+00  0.00000E+00  9.000E+00
      25     1     1     2     0     0  1.835073977E+02 -1.056928593E+02 -3.215721836E+02  4.048204723E+02  1.250000000E+02  0.00000E+00  9.000E+00
      25     1     1     2     0     0 -1.220937413E+02  8.368922341E+01 -4.878908791E+02  5.249507384E+02  1.250000000E+02  0.00000E+00  9.000E+00
      21     1     1     2   501   511 -6.141365637E+01  2.200363594E+01  4.314340986E+01  7.821221770E+01  2.654916936E-06  0.00000E+00  9.000E+00
#rwgt            1           1   2.5766706493534394E-002          10      162429           0
</event>
<event>
      5   9999  3.19816E-02  1.31013E+02 -1.00000E+00  1.18772E-01
      21    -1     0     0   512   501  0.000000000E+00  0.000000000E+00  2.263985868E+02  2.263985868E+02  0.000000000E+00  0.00000E+00  9.000E+00
      21    -1     0     0   501   502  0.000000000E+00  0.000000000E+00 -1.695241339E+03  1.695241339E+03  0.000000000E+00  0.00000E+00  9.000E+00
      25     1     1     2     0     0  2.825339911E+02  1.033062239E+02 -1.362182497E+02  3.530977819E+02  1.250000000E+02  0.00000E+00  9.000E+00
      25     1     1     2     0     0 -1.884014223E+02 -1.218228578E+01 -1.402087790E+03  1.420253032E+03  1.250000000E+02  0.00000E+00  9.000E+00
      21     1     1     2   512   502 -9.413256883E+01 -9.112393812E+01  6.946328699E+01  1.482891124E+02  4.672030912E-06  0.00000E+00  9.000E+00
#rwgt            1           1   3.1419418727123311E-002          10      162498           0
</event>
<event>
      5   9999  3.19816E-02  2.18365E+02 -1.00000E+00  1.10277E-01
      21    -1     0     0   502   501  0.000000000E+00  0.000000000E+00  1.259101475E+03  1.259101475E+03  0.000000000E+00  0.00000E+00  9.000E+00
      21    -1     0     0   501   511  0.000000000E+00  0.000000000E+00 -5.740170684E+02  5.740170684E+02  0.000000000E+00  0.00000E+00  9.000E+00
      25     1     1     2     0     0 -3.924286090E+02 -2.774750704E+02 -2.100579233E+02  5.392049322E+02  1.250000000E+02  0.00000E+00  9.000E+00
      25     1     1     2     0     0  4.607350301E+02  7.006804312E+01  9.528499774E+02  1.068051674E+03  1.250000000E+02  0.00000E+00  9.000E+00
      21     1     1     2   502   511 -6.830642111E+01  2.074070273E+02 -5.770764757E+01  2.258619373E+02  3.303624740E-06  0.00000E+00  9.000E+00
#rwgt            1           1   3.0963366985939954E-002          10      162578           0
</event>
<event>
      5   9999  3.19816E-02  3.88253E+01 -1.00000E+00  1.45648E-01
      21    -1     0     0   502   512  0.000000000E+00  0.000000000E+00  1.136767621E+03  1.136767621E+03  0.000000000E+00  0.00000E+00  9.000E+00
      21    -1     0     0   501   502  0.000000000E+00  0.000000000E+00 -3.407964051E+02  3.407964051E+02  0.000000000E+00  0.00000E+00  9.000E+00
      25     1     1     2     0     0 -3.374710277E+02  4.470732220E+02  1.320800597E+02  5.889238512E+02  1.250000000E+02  0.00000E+00  9.000E+00
      25     1     1     2     0     0  2.987067128E+02 -4.448982282E+02  6.350051564E+02  8.402479886E+02  1.250000000E+02  0.00000E+00  9.000E+00
      21     1     1     2   501   512  3.876431486E+01 -2.174993850E+00  2.888599973E+01  4.839218620E+01  7.539457465E-07  0.00000E+00  9.000E+00
#rwgt            1           1   2.9837979986035552E-002          10      162647           0
</event>
<event>
      5   9999  3.19816E-02  6.01046E+01 -1.00000E+00  1.34663E-01
      21    -1     0     0   502   501  0.000000000E+00  0.000000000E+00  1.309440975E+03  1.309440975E+03  0.000000000E+00  0.00000E+00  9.000E+00
      21    -1     0     0   511   502  0.000000000E+00  0.000000000E+00 -2.188669943E+02  2.188669943E+02  0.000000000E+00  0.00000E+00  9.000E+00
      25     1     1     2     0     0 -1.677452699E+02  1.193120499E+02 -2.495893668E+01  2.421193700E+02  1.250000000E+02  0.00000E+00  9.000E+00
      25     1     1     2     0     0  1.119615220E+02 -1.416892183E+02  1.178704932E+03  1.198991882E+03  1.250000000E+02  0.00000E+00  9.000E+00
      21     1     1     2   511   501  5.578374788E+01  2.237716841E+01 -6.317201408E+01  8.719671758E+01  2.611744678E-06  0.00000E+00  9.000E+00
#rwgt            1           1   2.7669785201585178E-002          10      162792           0
</event>
<event>
      5   9999  3.19816E-02  3.54741E+01 -1.00000E+00  1.48150E-01
      21    -1     0     0   512   501  0.000000000E+00  0.000000000E+00  2.304205967E+03  2.304205967E+03  0.000000000E+00  0.00000E+00  9.000E+00
      21    -1     0     0   501   502  0.000000000E+00  0.000000000E+00 -4.098172480E+02  4.098172480E+02  0.000000000E+00  0.00000E+00  9.000E+00
      25     1     1     2     0     0 -6.943503096E+02  3.396104292E+02  1.620008110E+03  1.799307887E+03  1.250000000E+02  0.00000E+00  9.000E+00
      25     1     1     2     0     0  7.089749149E+02 -3.719296262E+02  2.035295482E+02  8.354797148E+02  1.250000000E+02  0.00000E+00  9.000E+00
      21     1     1     2   512   502 -1.462460534E+01  3.231919700E+01  7.085106070E+01  7.923561308E+01  9.536743164E-07  0.00000E+00  9.000E+00
#rwgt            1           1   4.0012157108614166E-002          10      162907           0
</event>
<event>
      5   9999  3.19816E-02  7.63829E+02 -1.00000E+00  9.38908E-02
      21    -1     0     0   511   501  0.000000000E+00  0.000000000E+00  1.941950136E+03  1.941950136E+03  0.000000000E+00  0.00000E+00  9.000E+00
      21    -1     0     0   501   502  0.000000000E+00  0.000000000E+00 -5.026857919E+02  5.026857919E+02  0.000000000E+00  0.00000E+00  9.000E+00
      25     1     1     2     0     0 -1.158849771E+01 -2.466742100E+02  8.305102706E+02  8.754169114E+02  1.250000000E+02  0.00000E+00  9.000E+00
      25     1     1     2     0     0 -4.606239737E+02 -3.537003663E+02  2.539046264E+00  5.940621525E+02  1.250000000E+02  0.00000E+00  9.000E+00
      21     1     1     2   511   502  4.722124714E+02  6.003745764E+02  6.062150273E+02  9.751568640E+02  7.629394531E-06  0.00000E+00  9.000E+00
#rwgt            2          11   1.1463858888113585E-003          10      163187           0
</event>
<event>
      5   9999  3.19816E-02  9.26074E+01 -1.00000E+00  1.25347E-01
      21    -1     0     0   502   512  0.000000000E+00  0.000000000E+00  1.061069108E+03  1.061069108E+03  0.000000000E+00  0.00000E+00  9.000E+00
      21    -1     0     0   501   502  0.000000000E+00  0.000000000E+00 -3.352377503E+02  3.352377503E+02  0.000000000E+00  0.00000E+00  9.000E+00
      25     1     1     2     0     0  1.548340575E+02  4.545609480E+02  6.430109392E+02  8.122113695E+02  1.250000000E+02  0.00000E+00  9.000E+00
      25     1     1     2     0     0 -2.176555857E+02 -3.865198748E+02  1.524695688E+00  4.608675431E+02  1.250000000E+02  0.00000E+00  9.000E+00
      21     1     1     2   501   512  6.282152821E+01 -6.804107323E+01  8.129572253E+01  1.232279455E+02  1.651812370E-06  0.00000E+00  9.000E+00
#rwgt            1           1   2.6485982263127397E-002          10      163222           0
</event>
<event>
      5   9999  3.19816E-02  7.27176E+01 -1.00000E+00  1.30388E-01
      21    -1     0     0   502   501  0.000000000E+00  0.000000000E+00  1.442524541E+03  1.442524541E+03  0.000000000E+00  0.00000E+00  9.000E+00
      21    -1     0     0   511   502  0.000000000E+00  0.000000000E+00 -1.496646959E+02  1.496646959E+02  0.000000000E+00  0.00000E+00  9.000E+00
      25     1     1     2     0     0  2.699894111E+02  8.599557477E+01  4.114746258E+02  5.150008628E+02  1.250000000E+02  0.00000E+00  9.000E+00
      25     1     1     2     0     0 -2.049810728E+02 -5.341083676E+01  9.475030667E+02  9.789060318E+02  1.250000000E+02  0.00000E+00  9.000E+00
      21     1     1     2   511   501 -6.500833824E+01 -3.258473801E+01 -6.611784707E+01  9.828234273E+01  2.132480600E-06  0.00000E+00  9.000E+00
#rwgt            1           1   2.7275617771930240E-002          10      163278           0
</event>
<event>
      5   9999  3.19816E-02  8.98934E+01 -1.00000E+00  1.25946E-01
       2    -1     0     0   502     0  0.000000000E+00  0.000000000E+00  4.915850821E+02  4.915850821E+02  0.000000000E+00  0.00000E+00  9.000E+00
      21    -1     0     0   501   502  0.000000000E+00  0.000000000E+00 -1.361635104E+02  1.361635104E+02  0.000000000E+00  0.00000E+00  9.000E+00
      25     1     1     2     0     0 -1.031587190E+02 -4.210602596E+01  4.637544708E+01  1.737536210E+02  1.250000000E+02  0.00000E+00  9.000E+00
      25     1     1     2     0     0  1.409495720E+02 -3.945786510E+01  3.090651615E+02  3.641016054E+02  1.250000000E+02  0.00000E+00  9.000E+00
       2     1     1     2   501     0 -3.779085306E+01  8.156389106E+01 -1.903685769E-02  8.989336607E+01  6.276172310E-07  0.00000E+00  9.000E+00
#rwgt            1           1   2.5164474020749127E-002          10      163370           0
</event>
<event>
      5   9999  3.19816E-02  7.74542E+01 -1.00000E+00  1.29033E-01
      21    -1     0     0   502   501  0.000000000E+00  0.000000000E+00  7.003777086E+02  7.003777086E+02  0.000000000E+00  0.00000E+00  9.000E+00
      21    -1     0     0   511   502  0.000000000E+00  0.000000000E+00 -8.416449773E+02  8.416449773E+02  0.000000000E+00  0.00000E+00  9.000E+00
      25     1     1     2     0     0 -3.275658600E+02 -5.647722174E+02 -2.198565091E+02  7.001635057E+02  1.250000000E+02  0.00000E+00  9.000E+00
      25     1     1     2     0     0  3.966877120E+02  5.298247012E+02  1.957233722E+02  7.014328146E+02  1.250000000E+02  0.00000E+00  9.000E+00
      21     1     1     2   511   501 -6.912185199E+01  3.494751613E+01 -1.171341319E+02  1.404263656E+02  2.336015456E-06  0.00000E+00  9.000E+00
#rwgt            1           1   2.3334868856689370E-002          10      163429           0
</event>
<event>
      5   9999  3.19816E-02  1.22528E+02 -1.00000E+00  1.19985E-01
       2    -1     0     0   502     0  0.000000000E+00  0.000000000E+00  8.717777035E+02  8.717777035E+02  0.000000000E+00  0.00000E+00  9.000E+00
      21    -1     0     0   501   502  0.000000000E+00  0.000000000E+00 -6.700813569E+02  6.700813569E+02  0.000000000E+00  0.00000E+00  9.000E+00
      25     1     1     2     0     0 -2.299822477E+02  5.883474640E+02  3.224971752E+02  7.201902531E+02  1.250000000E+02  0.00000E+00  9.000E+00
      25     1     1     2     0     0  1.213337441E+02 -6.449915578E+02 -1.703877031E+02  6.894874592E+02  1.250000000E+02  0.00000E+00  9.000E+00
       2     1     1     2   501     0  1.086485035E+02  5.664409379E+01  4.958687439E+01  1.321813481E+02  2.780414531E-06  0.00000E+00  9.000E+00
#rwgt            1           1   3.0773541577539757E-002          10      163539           0
</event>
<event>
      5   9999  3.19816E-02  5.09897E+01 -1.00000E+00  1.38592E-01
      21    -1     0     0   502   501  0.000000000E+00  0.000000000E+00  1.905236190E+03  1.905236190E+03  0.000000000E+00  0.00000E+00  9.000E+00
      21    -1     0     0   511   502  0.000000000E+00  0.000000000E+00 -2.631334601E+02  2.631334601E+02  0.000000000E+00  0.00000E+00  9.000E+00
      25     1     1     2     0     0  5.647166042E+02 -1.568972657E+01  5.691902661E+02  8.116363531E+02  1.250000000E+02  0.00000E+00  9.000E+00
      25     1     1     2     0     0 -5.925872509E+02  5.838837602E+01  1.128023850E+03  1.281651925E+03  1.250000000E+02  0.00000E+00  9.000E+00
      21     1     1     2   511   501  2.787064670E+01 -4.269864945E+01 -5.511138543E+01  7.508137197E+01  0.000000000E+00  0.00000E+00  9.000E+00
#rwgt            1           1   2.6609555089955071E-002          10      163634           0
</event>
<event>
      5   9999  3.19816E-02  7.14527E+00 -1.00000E+00  2.14301E-01
      21    -1     0     0   502   501  0.000000000E+00  0.000000000E+00  1.792532377E+03  1.792532377E+03  0.000000000E+00  0.00000E+00  9.000E+00
      21    -1     0     0   512   502  0.000000000E+00  0.000000000E+00 -3.211102104E+01  3.211102104E+01  0.000000000E+00  0.00000E+00  9.000E+00
      25     1     1     2     0     0  6.312508827E+01 -1.667422085E+02  5.358043434E+02  5.783589156E+02  1.250000000E+02  0.00000E+00  9.000E+00
      25     1     1     2     0     0 -5.788660472E+01  1.716015427E+02  1.211732877E+03  1.231551669E+03  1.250000000E+02  0.00000E+00  9.000E+00
      21     1     1     2   512   501 -5.238483548E+00 -4.859334240E+00  1.288413531E+01  1.473281310E+01  3.769728732E-07  0.00000E+00  9.000E+00
#rwgt            1           1   2.8135200493313420E-002          10      163757           0
</event>
<event>
      5   9999  3.19816E-02  5.94669E+02 -1.00000E+00  9.67587E-02
      21    -1     0     0   511   501  0.000000000E+00  0.000000000E+00  3.487478083E+02  3.487478083E+02  0.000000000E+00  0.00000E+00  9.000E+00
      21    -1     0     0   501   502  0.000000000E+00  0.000000000E+00 -2.040803158E+03  2.040803158E+03  0.000000000E+00  0.00000E+00  9.000E+00
      25     1     1     2     0     0  7.153436964E+01 -2.343365620E+02 -2.972895009E+02  4.050146141E+02  1.250000000E+02  0.00000E+00  9.000E+00
      25     1     1     2     0     0 -6.439020889E+02  3.956618436E+02 -1.041448224E+03  1.292825432E+03  1.250000000E+02  0.00000E+00  9.000E+00
      21     1     1     2   511   502  5.723677193E+02 -1.613252816E+02 -3.533176241E+02  6.917109194E+02  1.009274029E-05  0.00000E+00  9.000E+00
#rwgt            2          11   1.7159242074538607E-003          10      164069           0
</event>
<event>
      5   9999  3.19816E-02  3.79815E+01 -1.00000E+00  1.46249E-01
      21    -1     0     0   512   501  0.000000000E+00  0.000000000E+00  1.589566910E+03  1.589566910E+03  0.000000000E+00  0.00000E+00  9.000E+00
      21    -1     0     0   501   502  0.000000000E+00  0.000000000E+00 -1.205713824E+02  1.205713824E+02  0.000000000E+00  0.00000E+00  9.000E+00
      25     1     1     2     0     0  7.306624252E+01 -3.735957715E+02  7.256632319E+02  8.289297934E+02  1.250000000E+02  0.00000E+00  9.000E+00
      25     1     1     2     0     0 -5.958527931E+01  4.091043645E+02  6.496523624E+02  7.801217716E+02  1.250000000E+02  0.00000E+00  9.000E+00
      21     1     1     2   512   502 -1.348096321E+01 -3.550859296E+01  9.367993324E+01  1.010867273E+02  0.000000000E+00  0.00000E+00  9.000E+00
#rwgt            1           1   3.0341361841619143E-002          10      164089           0
</event>
<event>
      5   9999  3.19816E-02  4.51134E+01 -1.00000E+00  1.41673E-01
      21    -1     0     0   511   501  0.000000000E+00  0.000000000E+00  1.683125602E+02  1.683125602E+02  0.000000000E+00  0.00000E+00  9.000E+00
      21    -1     0     0   501   502  0.000000000E+00  0.000000000E+00 -1.104166040E+03  1.104166040E+03  0.000000000E+00  0.00000E+00  9.000E+00
      25     1     1     2     0     0 -2.111463130E+02 -2.594102013E+02 -1.316874234E+02  3.805824425E+02  1.250000000E+02  0.00000E+00  9.000E+00
      25     1     1     2     0     0  1.879158187E+02  2.207377095E+02 -7.783108260E+02  8.398989422E+02  1.250000000E+02  0.00000E+00  9.000E+00
      21     1     1     2   511   502  2.323049429E+01  3.867249176E+01 -2.585523045E+01  5.199721555E+01  8.259061849E-07  0.00000E+00  9.000E+00
#rwgt            1           1   2.4075414038592029E-002          10      164186           0
</event>
<event>
      5   9999  3.19816E-02  3.09254E+02 -1.00000E+00  1.05165E-01
      21    -1     0     0   502   512  0.000000000E+00  0.000000000E+00  9.888601857E+02  9.888601857E+02  0.000000000E+00  0.00000E+00  9.000E+00
      21    -1     0     0   501   502  0.000000000E+00  0.000000000E+00 -8.459239145E+02  8.459239145E+02  0.000000000E+00  0.00000E+00  9.000E+00
      25     1     1     2     0     0  7.289836599E+02  2.901057837E+02 -7.237398109E+00  7.945161559E+02  1.250000000E+02  0.00000E+00  9.000E+00
      25     1     1     2     0     0 -5.018483697E+02 -4.999804714E+02  1.234588698E+02  7.298625559E+02  1.250000000E+02  0.00000E+00  9.000E+00
      21     1     1     2   501   512 -2.271352902E+02  2.098746878E+02  2.671479957E+01  3.104053884E+02  5.751771012E-06  0.00000E+00  9.000E+00
#rwgt            1           1   3.0239463111494391E-002          10      164234           0
</event>
<event>
      5   9999  3.19816E-02  9.92326E+01 -1.00000E+00  1.23979E-01
      -2    -1     0     0     0   501  0.000000000E+00  0.000000000E+00  1.323266427E+03  1.323266427E+03  0.000000000E+00  0.00000E+00  9.000E+00
      21    -1     0     0   501   502  0.000000000E+00  0.000000000E+00 -1.147861459E+03  1.147861459E+03  0.000000000E+00  0.00000E+00  9.000E+00
      25     1     1     2     0     0 -4.446370349E+02 -1.745540855E+02  2.787643997E+02  5.670148253E+02  1.250000000E+02  0.00000E+00  9.000E+00
      25     1     1     2     0     0  3.595030612E+02  2.255374774E+02 -9.519527564E+02  1.049737422E+03  1.250000000E+02  0.00000E+00  9.000E+00
      -2     1     1     2     0   502  8.513397377E+01 -5.098339191E+01  8.485933252E+02  8.543756383E+02  1.078959322E-05  0.00000E+00  9.000E+00
#rwgt            2           4   2.2470004214450410E-004          10      164378           0
</event>
<event>
      5   9999  3.19816E-02  6.35511E+01 -1.00000E+00  1.33382E-01
      21    -1     0     0   502   511  0.000000000E+00  0.000000000E+00  2.087944491E+02  2.087944491E+02  0.000000000E+00  0.00000E+00  9.000E+00
      21    -1     0     0   501   502  0.000000000E+00  0.000000000E+00 -5.426552288E+02  5.426552288E+02  0.000000000E+00  0.00000E+00  9.000E+00
      25     1     1     2     0     0  3.216697147E+01  5.270411420E+01 -1.722301885E+01  1.404780057E+02  1.250000000E+02  0.00000E+00  9.000E+00
      25     1     1     2     0     0  2.325606793E+00  6.719163978E-01 -4.479604261E+02  4.650799966E+02  1.250000000E+02  0.00000E+00  9.000E+00
      21     1     1     2   501   511 -3.449257826E+01 -5.337603060E+01  1.313226652E+02  1.458916755E+02  1.907348633E-06  0.00000E+00  9.000E+00
#rwgt            1           1   2.8055846686848282E-002          10      164412           0
</event>
<event>
      5   9999  3.19816E-02  9.09994E+01 -1.00000E+00  1.25699E-01
      21    -1     0     0   502   512  0.000000000E+00  0.000000000E+00  4.197865514E+02  4.197865514E+02  0.000000000E+00  0.00000E+00  9.000E+00
      21    -1     0     0   501   502  0.000000000E+00  0.000000000E+00 -1.065588189E+03  1.065588189E+03  0.000000000E+00  0.00000E+00  9.000E+00
      25     1     1     2     0     0  1.659569201E+02  1.085440492E+02  2.568390167E+02  3.477280409E+02  1.250000000E+02  0.00000E+00  9.000E+00
      25     1     1     2     0     0 -2.328296292E+02 -4.682750450E+01 -9.813152440E+02  1.017352967E+03  1.250000000E+02  0.00000E+00  9.000E+00
      21     1     1     2   501   512  6.687270907E+01 -6.171654472E+01  7.867458947E+01  1.202937328E+02  2.336015456E-06  0.00000E+00  9.000E+00
#rwgt            1           1   2.6265913096310857E-002          10      164470           0
</event>
<event>
      5   9999  3.19816E-02  1.55984E+01 -1.00000E+00  1.75798E-01
      21    -1     0     0   502   501  0.000000000E+00  0.000000000E+00  1.781778965E+02  1.781778965E+02  0.000000000E+00  0.00000E+00  9.000E+00
      21    -1     0     0   511   502  0.000000000E+00  0.000000000E+00 -5.853121709E+02  5.853121709E+02  0.000000000E+00  0.00000E+00  9.000E+00
      25     1     1     2     0     0 -1.472722830E+02  1.743199814E+02 -4.145184022E+02  4.894150457E+02  1.250000000E+02  0.00000E+00  9.000E+00
      25     1     1     2     0     0  1.382084939E+02 -1.616251997E+02  2.795881301E+01  2.482558926E+02  1.250000000E+02  0.00000E+00  9.000E+00
      21     1     1     2   511   501  9.063789046E+00 -1.269478167E+01 -2.057468531E+01  2.581912913E+01  2.384185791E-07  0.00000E+00  9.000E+00
#rwgt            1           1   2.8912851636479765E-002          10      164583           0
</event>
<event>
      5   9999  3.19816E-02  7.42099E+01 -1.00000E+00  1.29949E-01
      21    -1     0     0   502   501  0.000000000E+00  0.000000000E+00  3.539846037E+02  3.539846037E+02  0.000000000E+00  0.00000E+00  9.000E+00
      21    -1     0     0   501   512  0.000000000E+00  0.000000000E+00 -7.770003468E+02  7.770003468E+02  0.000000000E+00  0.00000E+00  9.000E+00
      25     1     1     2     0     0 -2.186901284E+02  3.374125118E+02  4.149333691E+01  4.231066915E+02  1.250000000E+02  0.00000E+00  9.000E+00
      25     1     1     2     0     0  1.907457873E+02 -2.686650215E+02 -1.470408056E+02  3.818518661E+02  1.250000000E+02  0.00000E+00  9.000E+00
      21     1     1     2   502   512  2.794434108E+01 -6.874749030E+01 -3.174682745E+02  3.260263930E+02  6.607249480E-06  0.00000E+00  9.000E+00
#rwgt            1           1   2.5817111768725597E-002          10      164731           0
</event>
<event>
      5   9999  3.19816E-02  8.85808E+00 -1.00000E+00  2.02048E-01
      21    -1     0     0   502   501  0.000000000E+00  0.000000000E+00  1.194237652E+03  1.194237652E+03  0.000000000E+00  0.00000E+00  9.000E+00
      21    -1     0     0   501   511  0.000000000E+00  0.000000000E+00 -1.226246047E+03  1.226246047E+03  0.000000000E+00  0.00000E+00  9.000E+00
      25     1     1     2     0     0 -7.492103723E+02 -2.090144532E+02  8.195391810E+02  1.136781726E+03  1.250000000E+02  0.00000E+00  9.000E+00
      25     1     1     2     0     0  7.432657393E+02  2.155815586E+02 -4.951830738E+02  9.272273962E+02  1.250000000E+02  0.00000E+00  9.000E+00
      21     1     1     2   502   511  5.944632963E+00 -6.567105352E+00 -3.563645022E+02  3.564745769E+02  5.394796609E-06  0.00000E+00  9.000E+00
#rwgt            1           1   3.2447785741407421E-002          10      164809           0
</event>
<event>
      5   9999  3.19816E-02  6.33211E+01 -1.00000E+00  1.33465E-01
      21    -1     0     0   502   501  0.000000000E+00  0.000000000E+00  2.149080202E+03  2.149080202E+03  0.000000000E+00  0.00000E+00  9.000E+00
      21    -1     0     0   512   502  0.000000000E+00  0.000000000E+00 -1.951730172E+02  1.951730172E+02  0.000000000E+00  0.00000E+00  9.000E+00
      25     1     1     2     0     0 -1.148953042E+02 -4.575987916E+01 -8.614732434E+01  1.958092412E+02  1.250000000E+02  0.00000E+00  9.000E+00
      25     1     1     2     0     0  5.660149110E+01  7.048621100E+01  2.071852345E+03  2.077587345E+03  1.250000000E+02  0.00000E+00  9.000E+00
      21     1     1     2   512   501  5.829381309E+01 -2.472633184E+01 -3.179783591E+01  7.085663342E+01  2.336015456E-06  0.00000E+00  9.000E+00
#rwgt            2          11   3.9095237880696311E-003          10      165284           0
</event>
<event>
      5   9999  3.19816E-02  7.65692E+01 -1.00000E+00  1.29278E-01
      21    -1     0     0   511   501  0.000000000E+00  0.000000000E+00  8.353069556E+02  8.353069556E+02  0.000000000E+00  0.00000E+00  9.000E+00
      21    -1     0     0   501   502  0.000000000E+00  0.000000000E+00 -7.747446271E+02  7.747446271E+02  0.000000000E+00  0.00000E+00  9.000E+00
      25     1     1     2     0     0  1.137201560E+02 -6.400394390E+02  2.902867554E+02  7.228237390E+02  1.250000000E+02  0.00000E+00  9.000E+00
      25     1     1     2     0     0 -1.353545944E+02  5.665901944E+02 -3.882826558E+02  7.111495872E+02  1.250000000E+02  0.00000E+00  9.000E+00
      21     1     1     2   511   502  2.163443840E+01  7.344924455E+01  1.585582289E+02  1.760782564E+02  0.000000000E+00  0.00000E+00  9.000E+00
#rwgt            1           1   2.4759892899907897E-002          10      165334           0
</event>
<event>
      5   9999  3.19816E-02  4.92499E+01 -1.00000E+00  1.39451E-01
      21    -1     0     0   502   501  0.000000000E+00  0.000000000E+00  1.999859586E+03  1.999859586E+03  0.000000000E+00  0.00000E+00  9.000E+00
       1    -1     0     0   501     0  0.000000000E+00  0.000000000E+00 -3.946856191E+02  3.946856191E+02  0.000000000E+00  0.00000E+00  9.000E+00
      25     1     1     2     0     0 -1.763641456E+02 -3.763171651E+02  1.502824229E+02  4.592697761E+02  1.250000000E+02  0.00000E+00  9.000E+00
      25     1     1     2     0     0  1.298052072E+02  3.923738375E+02  1.664689637E+03  1.719774174E+03  1.250000000E+02  0.00000E+00  9.000E+00
       1     1     1     2   502     0  4.655893837E+01 -1.605667247E+01 -2.097980928E+02  2.155012557E+02  4.672030912E-06  0.00000E+00  9.000E+00
#rwgt            1           1   3.2863059112634749E-002          10      165456           0
</event>
<event>
      5   9999  3.19816E-02  2.89940E+01 -1.00000E+00  1.54076E-01
      21    -1     0     0   502   511  0.000000000E+00  0.000000000E+00  4.728968046E+02  4.728968046E+02  0.000000000E+00  0.00000E+00  9.000E+00
      21    -1     0     0   501   502  0.000000000E+00  0.000000000E+00 -7.214518107E+02  7.214518107E+02  0.000000000E+00  0.00000E+00  9.000E+00
      25     1     1     2     0     0  3.444649209E+02  3.456569855E+02 -4.209002139E+02  6.564425515E+02  1.250000000E+02  0.00000E+00  9.000E+00
      25     1     1     2     0     0 -3.240947144E+02 -3.250243052E+02  1.432092488E+02  4.968018436E+02  1.250000000E+02  0.00000E+00  9.000E+00
      21     1     1     2   501   511 -2.037020653E+01 -2.063268031E+01  2.913595896E+01  4.110422016E+01  3.371747881E-07  0.00000E+00  9.000E+00
#rwgt            1           1   2.9321150098799150E-002          10      165606           0
</event>
<event>
      5   9999  3.19816E-02  1.71388E+01 -1.00000E+00  1.72098E-01
      21    -1     0     0   502   501  0.000000000E+00  0.000000000E+00  1.609624091E+03  1.609624091E+03  0.000000000E+00  0.00000E+00  9.000E+00
      21    -1     0     0   501   512  0.000000000E+00  0.000000000E+00 -1.619943446E+02  1.619943446E+02  0.000000000E+00  0.00000E+00  9.000E+00
      25     1     1     2     0     0  3.022401737E+00 -4.130731973E+02  2.845052359E+02  5.169205263E+02  1.250000000E+02  0.00000E+00  9.000E+00
      25     1     1     2     0     0 -2.001578832E+01  4.108455163E+02  1.160229275E+03  1.237316305E+03  1.250000000E+02  0.00000E+00  9.000E+00
      21     1     1     2   502   512  1.699338658E+01  2.227681048E+00  2.895235433E+00  1.738160345E+01  2.190014490E-07  0.00000E+00  9.000E+00
#rwgt            1           1   3.4450636674043925E-002          10      165790           0
</event>
<event>
      5   9999  3.19816E-02  6.50311E+01 -1.00000E+00  1.32861E-01
      21    -1     0     0   502   501  0.000000000E+00  0.000000000E+00  3.068409409E+02  3.068409409E+02  0.000000000E+00  0.00000E+00  9.000E+00
      21    -1     0     0   511   502  0.000000000E+00  0.000000000E+00 -2.217805159E+03  2.217805159E+03  0.000000000E+00  0.00000E+00  9.000E+00
      25     1     1     2     0     0  6.111808939E+01 -2.712732495E+02 -4.315992738E+02  5.284198425E+02  1.250000000E+02  0.00000E+00  9.000E+00
      25     1     1     2     0     0 -2.381961531E+00  2.433607697E+02  1.852042251E+02  3.303872621E+02  1.250000000E+02  0.00000E+00  9.000E+00
      21     1     1     2   511   501 -5.873612786E+01  2.791247985E+01 -1.664569169E+03  1.665838995E+03  0.000000000E+00  0.00000E+00  9.000E+00
#rwgt            1           1   3.0332364438822527E-002          10      166008           0
</event>
<event>
      5   9999  3.19816E-02  1.27236E+02 -1.00000E+00  1.19299E-01
      21    -1     0     0   502   501  0.000000000E+00  0.000000000E+00  1.963284110E+03  1.963284110E+03  0.000000000E+00  0.00000E+00  9.000E+00
      21    -1     0     0   512   502  0.000000000E+00  0.000000000E+00 -3.181566347E+02  3.181566347E+02  0.000000000E+00  0.00000E+00  9.000E+00
      25     1     1     2     0     0 -3.790566006E+02  5.472825589E+02  3.862171877E+02  7.797376621E+02  1.250000000E+02  0.00000E+00  9.000E+00
      25     1     1     2     0     0  4.791450664E+02 -4.687255071E+02  1.135256399E+03  1.324279308E+03  1.250000000E+02  0.00000E+00  9.000E+00
      21     1     1     2   512   501 -1.000884658E+02 -7.855705179E+01  1.236538886E+02  1.774237739E+02  0.000000000E+00  0.00000E+00  9.000E+00
#rwgt            1           1   2.1352479803504777E-002          10      166118           0
</event>
<event>
      5   9999  3.19816E-02  1.28864E+02 -1.00000E+00  1.19069E-01
      21    -1     0     0   511   501  0.000000000E+00  0.000000000E+00  1.916110178E+03  1.916110178E+03  0.000000000E+00  0.00000E+00  9.000E+00
      21    -1     0     0   501   502  0.000000000E+00  0.000000000E+00 -1.968709584E+02  1.968709584E+02  0.000000000E+00  0.00000E+00  9.000E+00
      25     1     1     2     0     0 -4.610052690E+00 -2.861884070E+02  1.242029045E+03  1.280697546E+03  1.250000000E+02  0.00000E+00  9.000E+00
      25     1     1     2     0     0  1.793818127E+00  4.150216083E+02  1.158826334E+02  4.486646162E+02  1.250000000E+02  0.00000E+00  9.000E+00
      21     1     1     2   511   502  2.816234563E+00 -1.288332013E+02  3.613275415E+02  3.836189739E+02  5.394796609E-06  0.00000E+00  9.000E+00
#rwgt            1           1   3.3961809971981831E-002          10      166210           0
</event>
<event>
      5   9999  3.19816E-02  4.53788E+01 -1.00000E+00  1.41522E-01
      21    -1     0     0   502   512  0.000000000E+00  0.000000000E+00  2.974506390E+03  2.974506390E+03  0.000000000E+00  0.00000E+00  9.000E+00
      21    -1     0     0   501   502  0.000000000E+00  0.000000000E+00 -1.734041334E+02  1.734041334E+02  0.000000000E+00  0.00000E+00  9.000E+00
      25     1     1     2     0     0 -4.535950302E+02 -2.200397802E+02  3.798773128E+02  6.435042572E+02  1.250000000E+02  0.00000E+00  9.000E+00
      25     1     1     2     0     0  4.170652090E+02  2.469620294E+02  1.485230360E+03  1.567312303E+03  1.250000000E+02  0.00000E+00  9.000E+00
      21     1     1     2   501   512  3.652982118E+01 -2.692224921E+01  9.359945833E+02  9.370939629E+02  0.000000000E+00  0.00000E+00  9.000E+00
#rwgt            1           1   2.7238317187554990E-002          10      166285           0
</event>
<event>
      5   9999  3.19816E-02  9.96217E+01 -1.00000E+00  1.23902E-01
      21    -1     0     0   511   501  0.000000000E+00  0.000000000E+00  3.572087667E+02  3.572087667E+02  0.000000000E+00  0.00000E+00  9.000E+00
      21    -1     0     0   501   502  0.000000000E+00  0.000000000E+00 -9.680030516E+02  9.680030516E+02  0.000000000E+00  0.00000E+00  9.000E+00
      25     1     1     2     0     0  1.820436233E+02 -9.780525666E+01 -8.035004742E+02  8.390135643E+02  1.250000000E+02  0.00000E+00  9.000E+00
      25     1     1     2     0     0 -1.409561396E+02  1.885592755E+02 -3.033058574E+00  2.665660014E+02  1.250000000E+02  0.00000E+00  9.000E+00
      21     1     1     2   511   502 -4.108748365E+01 -9.075401886E+01  1.957392478E+02  2.196322526E+02  4.672030912E-06  0.00000E+00  9.000E+00
#rwgt            1           1   2.8769938875121970E-002          10      166392           0
</event>
<event>
      5   9999  3.19816E-02  1.12485E+02 -1.00000E+00  1.21573E-01
      21    -1     0     0   502   501  0.000000000E+00  0.000000000E+00  6.319770440E+02  6.319770440E+02  0.000000000E+00  0.00000E+00  9.000E+00
      21    -1     0     0   512   502  0.000000000E+00  0.000000000E+00 -5.685363629E+02  5.685363629E+02  0.000000000E+00  0.00000E+00  9.000E+00
      25     1     1     2     0     0 -1.234981723E+02  5.318498039E+02 -4.206812681E+01  5.617034269E+02  1.250000000E+02  0.00000E+00  9.000E+00
      25     1     1     2     0     0  1.940388740E+02 -4.442315817E+02  1.423202886E+02  5.204544623E+02  1.250000000E+02  0.00000E+00  9.000E+00
      21     1     1     2   512   501 -7.054070168E+01 -8.761822218E+01 -3.681148078E+01  1.183555177E+02  1.784161275E-06  0.00000E+00  9.000E+00
#rwgt            1           1   3.0157746384384447E-002          10      166450           0
</event>
<event>
      5   9999  3.19816E-02  2.58899E+02 -1.00000E+00  1.07714E-01
      21    -1     0     0   511   501  0.000000000E+00  0.000000000E+00  2.158872226E+02  2.158872226E+02  0.000000000E+00  0.00000E+00  9.000E+00
      21    -1     0     0   501   502  0.000000000E+00  0.000000000E+00 -1.410759068E+03  1.410759068E+03  0.000000000E+00  0.00000E+00  9.000E+00
      25     1     1     2     0     0  1.767179670E+02  2.297233871E+02 -7.559357653E+02  8.191861544E+02  1.250000000E+02  0.00000E+00  9.000E+00
      25     1     1     2     0     0 -7.690240998E+00 -3.361597770E+01 -5.201918616E+02  5.361098270E+02  1.250000000E+02  0.00000E+00  9.000E+00
      21     1     1     2   511   502 -1.690277260E+02 -1.961074094E+02  8.125578163E+01  2.713503090E+02  5.135693366E-06  0.00000E+00  9.000E+00
#rwgt            2          11   1.0009247504013717E-002          10      166582           0
</event>
<event>
      5   9999  3.19816E-02  2.07396E+02 -1.00000E+00  1.11077E-01
      21    -1     0     0   502   501  0.000000000E+00  0.000000000E+00  2.381906964E+03  2.381906964E+03  0.000000000E+00  0.00000E+00  9.000E+00
      21    -1     0     0   512   502  0.000000000E+00  0.000000000E+00 -1.854517407E+03  1.854517407E+03  0.000000000E+00  0.00000E+00  9.000E+00
      25     1     1     2     0     0 -2.110233225E+02  1.958358154E+03  2.321457760E+02  1.987262983E+03  1.250000000E+02  0.00000E+00  9.000E+00
      25     1     1     2     0     0  3.344111100E+02 -1.791658829E+03  5.619042322E+02  1.911343380E+03  1.250000000E+02  0.00000E+00  9.000E+00
      21     1     1     2   512   501 -1.233877876E+02 -1.666993254E+02 -2.666604507E+02  3.378180090E+02  0.000000000E+00  0.00000E+00  9.000E+00
#rwgt            1           1   1.7683815520975116E-002          10      166602           0
</event>
<event>
      5   9999  3.19816E-02  5.90669E+01 -1.00000E+00  1.35068E-01
      21    -1     0     0   511   501  0.000000000E+00  0.000000000E+00  1.358897031E+02  1.358897031E+02  0.000000000E+00  0.00000E+00  9.000E+00
      21    -1     0     0   501   502  0.000000000E+00  0.000000000E+00 -5.371433275E+02  5.371433275E+02  0.000000000E+00  0.00000E+00  9.000E+00
      25     1     1     2     0     0 -1.636034307E+02 -3.193801931E+01 -3.944675392E+02  4.461118236E+02  1.250000000E+02  0.00000E+00  9.000E+00
      25     1     1     2     0     0  1.048192131E+02  3.770988757E+01 -1.029575788E+01  1.677501287E+02  1.250000000E+02  0.00000E+00  9.000E+00
      21     1     1     2   511   502  5.878421764E+01 -5.771868259E+00  3.509672778E+00  5.917107832E+01  5.960464478E-07  0.00000E+00  9.000E+00
#rwgt            1           1   3.2699364579346607E-002          10      166685           0
</event>
<event>
      5   9999  3.19816E-02  6.43457E+01 -1.00000E+00  1.33100E-01
      21    -1     0     0   512   501  0.000000000E+00  0.000000000E+00  7.638120546E+02  7.638120546E+02  0.000000000E+00  0.00000E+00  9.000E+00
      21    -1     0     0   501   502  0.000000000E+00  0.000000000E+00 -1.308247498E+02  1.308247498E+02  0.000000000E+00  0.00000E+00  9.000E+00
      25     1     1     2     0     0  2.672813982E+02  4.054741959E+01  2.236096732E+02  3.724375451E+02  1.250000000E+02  0.00000E+00  9.000E+00
      25     1     1     2     0     0 -2.134769016E+02 -7.583835899E+01  3.097809989E+02  4.036249639E+02  1.250000000E+02  0.00000E+00  9.000E+00
      21     1     1     2   512   502 -5.380449663E+01  3.529093940E+01  9.959663272E+01  1.185742953E+02  1.348699152E-06  0.00000E+00  9.000E+00
#rwgt            1           1   2.6170704907491567E-002          10      166777           0
</event>
<event>
      5   9999  3.19816E-02  6.85378E+00 -1.00000E+00  2.16858E-01
      21    -1     0     0   502   501  0.000000000E+00  0.000000000E+00  4.944703129E+02  4.944703129E+02  0.000000000E+00  0.00000E+00  9.000E+00
      21    -1     0     0   511   502  0.000000000E+00  0.000000000E+00 -2.478408744E+02  2.478408744E+02  0.000000000E+00  0.00000E+00  9.000E+00
      25     1     1     2     0     0  8.836333366E+01  2.096133842E+02  1.216747623E+02  2.866628636E+02  1.250000000E+02  0.00000E+00  9.000E+00
      25     1     1     2     0     0 -8.286560353E+01 -2.137059655E+02  2.314698097E+02  3.489129129E+02  1.250000000E+02  0.00000E+00  9.000E+00
      21     1     1     2   511   501 -5.497730134E+00  4.092581270E+00 -1.065151335E+02  1.067354108E+02  1.348699152E-06  0.00000E+00  9.000E+00
#rwgt            1           1   2.4645830192699687E-002          10      166829           0
</event>
<event>
      5   9999  3.19816E-02  2.13435E+02 -1.00000E+00  1.10630E-01
      21    -1     0     0   502   501  0.000000000E+00  0.000000000E+00  8.995539499E+02  8.995539499E+02  0.000000000E+00  0.00000E+00  9.000E+00
      21    -1     0     0   512   502  0.000000000E+00  0.000000000E+00 -7.125216083E+02  7.125216083E+02  0.000000000E+00  0.00000E+00  9.000E+00
      25     1     1     2     0     0  5.853751375E+02 -3.138388929E+01  9.365015928E+01  6.066665908E+02  1.250000000E+02  0.00000E+00  9.000E+00
      25     1     1     2     0     0 -7.563548689E+02  1.591361263E+02  1.130182585E+02  7.910721340E+02  1.250000000E+02  0.00000E+00  9.000E+00
      21     1     1     2   512   501  1.709797315E+02 -1.277522370E+02 -1.963607625E+01  2.143368333E+02  1.192092896E-06  0.00000E+00  9.000E+00
#rwgt            1           1   2.4801448327324043E-002          10      167077           0
</event>
<event>
      5   9999  3.19816E-02  5.52339E+01 -1.00000E+00  1.36653E-01
      21    -1     0     0   502   501  0.000000000E+00  0.000000000E+00  9.258148651E+02  9.258148651E+02  0.000000000E+00  0.00000E+00  9.000E+00
       2    -1     0     0   501     0  0.000000000E+00  0.000000000E+00 -9.693834265E+02  9.693834265E+02  0.000000000E+00  0.00000E+00  9.000E+00
      25     1     1     2     0     0  1.204417952E+02 -1.939371145E+02 -6.216978147E+01  2.675965473E+02  1.250000000E+02  0.00000E+00  9.000E+00
      25     1     1     2     0     0 -1.755907250E+02  1.908752407E+02  7.969165535E+02  8.473290113E+02  1.250000000E+02  0.00000E+00  9.000E+00
       2     1     1     2   502     0  5.514892988E+01  3.061873726E+00 -7.783153334E+02  7.802727329E+02  0.000000000E+00  0.00000E+00  9.000E+00
#rwgt            1           1   2.6934126535460658E-002          10      167139           0
</event>
<event>
      5   9999  3.19816E-02  4.07898E+01 -1.00000E+00  1.44315E-01
      21    -1     0     0   502   501  0.000000000E+00  0.000000000E+00  1.215382609E+02  1.215382609E+02  0.000000000E+00  0.00000E+00  9.000E+00
      21    -1     0     0   501   511  0.000000000E+00  0.000000000E+00 -1.212684604E+03  1.212684604E+03  0.000000000E+00  0.00000E+00  9.000E+00
      25     1     1     2     0     0  7.577578691E+01 -2.597641081E+02 -1.949471686E+02  3.561583360E+02  1.250000000E+02  0.00000E+00  9.000E+00
      25     1     1     2     0     0 -1.131530892E+02  2.760964618E+02 -6.244881832E+02  7.033088715E+02  1.250000000E+02  0.00000E+00  9.000E+00
      21     1     1     2   502   511  3.737730233E+01 -1.633235365E+01 -2.717109909E+02  2.747556571E+02  3.814697266E-06  0.00000E+00  9.000E+00
#rwgt            1           1   3.0467203628290938E-002          10      167236           0
</event>
<event>
      5   9999  3.19816E-02  5.25603E+02 -1.00000E+00  9.82397E-02
      21    -1     0     0   502   512  0.000000000E+00  0.000000000E+00  3.635897782E+02  3.635897782E+02  0.000000000E+00  0.00000E+00  9.000E+00
      21    -1     0     0   501   502  0.000000000E+00  0.000000000E+00 -1.953777669E+03  1.953777669E+03  0.000000000E+00  0.00000E+00  9.000E+00
      25     1     1     2     0     0 -4.532707616E+02  1.908910158E+02 -4.258810574E+02  6.624903307E+02  1.250000000E+02  0.00000E+00  9.000E+00
      25     1     1     2     0     0  1.522220802E+02  2.399552658E+02 -1.078530765E+03  1.122320677E+03  1.250000000E+02  0.00000E+00  9.000E+00
      21     1     1     2   501   512  3.010486815E+02 -4.308462817E+02 -8.577606831E+01  5.325564392E+02  6.942853822E-06  0.00000E+00  9.000E+00
#rwgt            1           1   2.9978619631886562E-002          10      167304           0
</event>
<event>
      5   9999  3.19816E-02  8.66104E+01 -1.00000E+00  1.26703E-01
      21    -1     0     0   511   501  0.000000000E+00  0.000000000E+00  1.563818595E+03  1.563818595E+03  0.000000000E+00  0.00000E+00  9.000E+00
      21    -1     0     0   501   502  0.000000000E+00  0.000000000E+00 -6.713471488E+02  6.713471488E+02  0.000000000E+00  0.00000E+00  9.000E+00
      25     1     1     2     0     0 -1.960535745E+02 -5.126969172E+02  9.869528873E+02  1.136220108E+03  1.250000000E+02  0.00000E+00  9.000E+00
      25     1     1     2     0     0  1.161686760E+02  4.792341580E+02 -4.826455752E+02  7.012362588E+02  1.250000000E+02  0.00000E+00  9.000E+00
      21     1     1     2   511   502  7.988489850E+01  3.346275922E+01  3.881641341E+02  3.977093767E+02  9.344061824E-06  0.00000E+00  9.000E+00
#rwgt            1           1   2.9639413222820814E-002          10      167336           0
</event>
<event>
      5   9999  3.19816E-02  5.15073E+01 -1.00000E+00  1.38344E-01
      21    -1     0     0   502   512  0.000000000E+00  0.000000000E+00  2.492585489E+02  2.492585489E+02  0.000000000E+00  0.00000E+00  9.000E+00
      21    -1     0     0   501   502  0.000000000E+00  0.000000000E+00 -6.374140555E+02  6.374140555E+02  0.000000000E+00  0.00000E+00  9.000E+00
      25     1     1     2     0     0 -3.411425152E+02 -6.587686693E+01 -2.490266471E+02  4.453731562E+02  1.250000000E+02  0.00000E+00  9.000E+00
      25     1     1     2     0     0  2.896995013E+02  6.330337396E+01 -1.859720960E+02  3.716769278E+02  1.250000000E+02  0.00000E+00  9.000E+00
      21     1     1     2   501   512  5.144301397E+01  2.573492972E+00  4.684323636E+01  6.962252039E+01  1.348699152E-06  0.00000E+00  9.000E+00
#rwgt            1           1   2.8632287717926880E-002          10      167448           0
</event>
<event>
      5   9999  3.19816E-02  2.33321E+02 -1.00000E+00  1.09265E-01
      21    -1     0     0   511   501  0.000000000E+00  0.000000000E+00  4.766988293E+02  4.766988293E+02  0.000000000E+00  0.00000E+00  9.000E+00
      21    -1     0     0   501   502  0.000000000E+00  0.000000000E+00 -1.015379377E+03  1.015379377E+03  0.000000000E+00  0.00000E+00  9.000E+00
      25     1     1     2     0     0  4.419536533E+02  3.422242201E+00 -5.240741143E+02  6.968596850E+02  1.250000000E+02  0.00000E+00  9.000E+00
      25     1     1     2     0     0 -4.875736505E+02 -2.322394386E+02 -5.983119349E+01  5.575553723E+02  1.250000000E+02  0.00000E+00  9.000E+00
      21     1     1     2   511   502  4.561999726E+01  2.288171964E+02  4.522475995E+01  2.376631491E+02  4.548736579E-06  0.00000E+00  9.000E+00
#rwgt            1           1   2.8682132812979089E-002          10      167538           0
</event>
<event>
      5   9999  3.19816E-02  2.13223E+02 -1.00000E+00  1.10645E-01
      21    -1     0     0   502   501  0.000000000E+00  0.000000000E+00  7.816441117E+02  7.816441117E+02  0.000000000E+00  0.00000E+00  9.000E+00
      -2    -1     0     0     0   502  0.000000000E+00  0.000000000E+00 -2.576826276E+02  2.576826276E+02  0.000000000E+00  0.00000E+00  9.000E+00
      25     1     1     2     0     0  2.530988370E+02 -2.239785294E+02  5.395252065E+02  6.487972344E+02  1.250000000E+02  0.00000E+00  9.000E+00
      25     1     1     2     0     0 -9.674393321E+01  7.900489567E+01  3.955353947E-01  1.767097015E+02  1.250000000E+02  0.00000E+00  9.000E+00
      -2     1     1     2     0   501 -1.563549038E+02  1.449736338E+02 -1.595925771E+01  2.138198034E+02  4.376783312E-06  0.00000E+00  9.000E+00
#rwgt            2           9   7.9742572286303209E-005          10      167617           0
</event>
<event>
      5   9999  3.19816E-02  5.39875E+01 -1.00000E+00  1.37201E-01
      21    -1     0     0   502   501  0.000000000E+00  0.000000000E+00  9.634766277E+02  9.634766277E+02  0.000000000E+00  0.00000E+00  9.000E+00
      21    -1     0     0   511   502  0.000000000E+00  0.000000000E+00 -1.464687834E+02  1.464687834E+02  0.000000000E+00  0.00000E+00  9.000E+00
      25     1     1     2     0     0 -2.814781843E+02  8.132873296E+01  2.433056669E+02  4.008328562E+02  1.250000000E+02  0.00000E+00  9.000E+00
      25     1     1     2     0     0  3.187851561E+02 -4.230520597E+01  5.519392251E+02  6.509036905E+02  1.250000000E+02  0.00000E+00  9.000E+00
      21     1     1     2   511   501 -3.730697180E+01 -3.902352699E+01  2.176295237E+01  5.820886444E+01  3.371747881E-07  0.00000E+00  9.000E+00
#rwgt            1           1   2.8018750623227132E-002          10      167636           0
</event>
<event>
      5   9999  3.19816E-02  2.63289E+01 -1.00000E+00  1.57084E-01
      21    -1     0     0   502   501  0.000000000E+00  0.000000000E+00  4.611825665E+02  4.611825665E+02  0.000000000E+00  0.00000E+00  9.000E+00
      21    -1     0     0   501   512  0.000000000E+00  0.000000000E+00 -2.325424730E+02  2.325424730E+02  0.000000000E+00  0.00000E+00  9.000E+00
      25     1     1     2     0     0 -2.022867965E+02 -1.166945223E+02 -5.250788445E+01  2.700363633E+02  1.250000000E+02  0.00000E+00  9.000E+00
      25     1     1     2     0     0  2.135090693E+02  1.405120151E+02  2.768904835E+02  3.970177438E+02  1.250000000E+02  0.00000E+00  9.000E+00
      21     1     1     2   502   512 -1.122227274E+01 -2.381749283E+01  4.257494478E+00  2.667093229E+01  1.032382731E-07  0.00000E+00  9.000E+00
#rwgt            1           1   2.5684155618600650E-002          10      167750           0
</event>
<event>
      5   9999  3.19816E-02  3.97631E+01 -1.00000E+00  1.45000E-01
      21    -1     0     0   502   501  0.000000000E+00  0.000000000E+00  3.348954731E+02  3.348954731E+02  0.000000000E+00  0.00000E+00  9.000E+00
      21    -1     0     0   511   502  0.000000000E+00  0.000000000E+00 -2.889903553E+02  2.889903553E+02  0.000000000E+00  0.00000E+00  9.000E+00
      25     1     1     2     0     0  2.476960332E+02  1.191414005E+02 -3.053687829E+01  3.034888780E+02  1.250000000E+02  0.00000E+00  9.000E+00
      25     1     1     2     0     0 -2.206133651E+02 -9.002719412E+01  7.934581223E+01  2.805279138E+02  1.250000000E+02  0.00000E+00  9.000E+00
      21     1     1     2   511   501 -2.708266812E+01 -2.911420638E+01 -2.903816081E+00  3.986903653E+01  3.397987560E-07  0.00000E+00  9.000E+00
#rwgt            1           1   3.0158900129538931E-002          10      167880           0
</event>
<event>
      5   9999  3.19816E-02  1.24223E+02 -1.00000E+00  1.19734E-01
      21    -1     0     0   512   501  0.000000000E+00  0.000000000E+00  1.479052081E+02  1.479052081E+02  0.000000000E+00  0.00000E+00  9.000E+00
      21    -1     0     0   501   502  0.000000000E+00  0.000000000E+00 -1.776371221E+03  1.776371221E+03  0.000000000E+00  0.00000E+00  9.000E+00
      25     1     1     2     0     0 -4.850336064E+01 -2.542290185E+02 -9.885980074E+02  1.029531928E+03  1.250000000E+02  0.00000E+00  9.000E+00
      25     1     1     2     0     0  4.625401555E+01  3.784312431E+02 -6.565198697E+02  7.694107999E+02  1.250000000E+02  0.00000E+00  9.000E+00
      21     1     1     2   512   502  2.249345083E+00 -1.242022246E+02  1.665186420E+01  1.253337015E+02  2.396077066E-06  0.00000E+00  9.000E+00
#rwgt            2          11   4.4295940321712555E-003          10      168078           0
</event>
<event>
      5   9999  3.19816E-02  2.83984E+01 -1.00000E+00  1.54713E-01
      21    -1     0     0   502   511  0.000000000E+00  0.000000000E+00  1.038987173E+03  1.038987173E+03  0.000000000E+00  0.00000E+00  9.000E+00
      21    -1     0     0   501   502  0.000000000E+00  0.000000000E+00 -9.837063838E+01  9.837063838E+01  0.000000000E+00  0.00000E+00  9.000E+00
      25     1     1     2     0     0 -1.067116896E+01 -2.473922352E+02  3.483948404E+02  4.453321869E+02  1.250000000E+02  0.00000E+00  9.000E+00
      25     1     1     2     0     0  1.448938617E+01  2.755327338E+02  4.220418239E+02  5.194925705E+02  1.250000000E+02  0.00000E+00  9.000E+00
      21     1     1     2   501   511 -3.818217216E+00 -2.814049857E+01  1.701798704E+02  1.725330540E+02  2.697398305E-06  0.00000E+00  9.000E+00
#rwgt            1           1   2.6106631886851930E-002          10      168098           0
</event>
<event>
      5   9999  3.19816E-02  5.80524E+01 -1.00000E+00  1.35474E-01
      21    -1     0     0   502   501  0.000000000E+00  0.000000000E+00  6.983120276E+01  6.983120276E+01  0.000000000E+00  0.00000E+00  9.000E+00
      21    -1     0     0   512   502  0.000000000E+00  0.000000000E+00 -1.096894033E+03  1.096894033E+03  0.000000000E+00  0.00000E+00  9.000E+00
      25     1     1     2     0     0 -1.180499222E+02  8.124758623E+01 -1.481724779E+02  2.410747552E+02  1.250000000E+02  0.00000E+00  9.000E+00
      25     1     1     2     0     0  1.761014304E+02 -8.092750187E+01 -6.573837236E+02  6.966629992E+02  1.250000000E+02  0.00000E+00  9.000E+00
      21     1     1     2   512   501 -5.805150818E+01 -3.200843568E-01 -2.215066286E+02  2.289874812E+02  0.000000000E+00  0.00000E+00  9.000E+00
#rwgt            1           1   2.6963905278760525E-002          10      168314           0
</event>
<event>
      5   9999  3.19816E-02  1.61445E+02 -1.00000E+00  1.15142E-01
      21    -1     0     0   502   501  0.000000000E+00  0.000000000E+00  2.219923654E+02  2.219923654E+02  0.000000000E+00  0.00000E+00  9.000E+00
      21    -1     0     0   511   502  0.000000000E+00  0.000000000E+00 -9.455462420E+02  9.455462420E+02  0.000000000E+00  0.00000E+00  9.000E+00
      25     1     1     2     0     0  7.955204691E+01  3.594097442E+02 -3.695824788E+02  5.363954707E+02  1.250000000E+02  0.00000E+00  9.000E+00
      25     1     1     2     0     0 -9.490583041E+01 -1.986967574E+02 -1.259681318E+01  2.535176478E+02  1.250000000E+02  0.00000E+00  9.000E+00
      21     1     1     2   511   501  1.535378349E+01 -1.607129868E+02 -3.413745846E+02  3.776254888E+02  0.000000000E+00  0.00000E+00  9.000E+00
#rwgt            1           1   2.6366749772256039E-002          10      168422           0
</event>
<event>
      5   9999  3.19816E-02  1.67701E+01 -1.00000E+00  1.72938E-01
      21    -1     0     0   502   501  0.000000000E+00  0.000000000E+00  8.556735662E+02  8.556735662E+02  0.000000000E+00  0.00000E+00  9.000E+00
      21    -1     0     0   512   502  0.000000000E+00  0.000000000E+00 -2.832591534E+02  2.832591534E+02  0.000000000E+00  0.00000E+00  9.000E+00
      25     1     1     2     0     0 -1.935260985E+02  4.067813111E+02  3.811562649E+02  6.031819661E+02  1.250000000E+02  0.00000E+00  9.000E+00
      25     1     1     2     0     0  2.020421658E+02 -4.212282427E+02  1.832305868E+02  5.171583096E+02  1.250000000E+02  0.00000E+00  9.000E+00
      21     1     1     2   512   501 -8.516067305E+00  1.444693156E+01  8.027561120E+00  1.859244393E+01  1.685873940E-07  0.00000E+00  9.000E+00
#rwgt            1           1   2.9814108184439025E-002          10      168468           0
</event>
<event>
      5   9999  3.19816E-02  1.31204E+02 -1.00000E+00  1.18745E-01
      21    -1     0     0   502   501  0.000000000E+00  0.000000000E+00  6.684098661E+02  6.684098661E+02  0.000000000E+00  0.00000E+00  9.000E+00
      21    -1     0     0   511   502  0.000000000E+00  0.000000000E+00 -1.957499345E+02  1.957499345E+02  0.000000000E+00  0.00000E+00  9.000E+00
      25     1     1     2     0     0  4.221474934E+01  2.345832340E+02  2.762954316E+02  3.857143299E+02  1.250000000E+02  0.00000E+00  9.000E+00
      25     1     1     2     0     0 -1.504643329E+02 -1.604439699E+02  2.311683950E+02  3.427033846E+02  1.250000000E+02  0.00000E+00  9.000E+00
      21     1     1     2   511   501  1.082495836E+02 -7.413926409E+01 -3.480389500E+01  1.357420861E+02  1.066240300E-06  0.00000E+00  9.000E+00
#rwgt            1           1   2.3697268108861930E-002          10      168689           0
</event>
<event>
      5   9999  3.19816E-02  6.75935E+01 -1.00000E+00  1.31995E-01
      21    -1     0     0   502   501  0.000000000E+00  0.000000000E+00  8.920489509E+02  8.920489509E+02  0.000000000E+00  0.00000E+00  9.000E+00
      21    -1     0     0   512   502  0.000000000E+00  0.000000000E+00 -2.298266584E+02  2.298266584E+02  0.000000000E+00  0.00000E+00  9.000E+00
      25     1     1     2     0     0  2.049658271E+02  2.708384015E+02  4.718215957E+02  5.946469946E+02  1.250000000E+02  0.00000E+00  9.000E+00
      25     1     1     2     0     0 -2.084685859E+02 -3.383410342E+02  1.939579743E+02  4.595416222E+02  1.250000000E+02  0.00000E+00  9.000E+00
      21     1     1     2   512   501  3.502758802E+00  6.750263271E+01 -3.557277535E+00  6.768699259E+01  1.363761567E-06  0.00000E+00  9.000E+00
#rwgt            1           1   2.6410355104597154E-002          10      168758           0
</event>
<event>
      5   9999  3.19816E-02  4.82454E+01 -1.00000E+00  1.39967E-01
      21    -1     0     0   502   501  0.000000000E+00  0.000000000E+00  1.196069785E+03  1.196069785E+03  0.000000000E+00  0.00000E+00  9.000E+00
       1    -1     0     0   501     0  0.000000000E+00  0.000000000E+00 -1.342085938E+03  1.342085938E+03  0.000000000E+00  0.00000E+00  9.000E+00
      25     1     1     2     0     0 -1.671774066E+02 -4.115475547E+02  9.815988363E+02  1.084657066E+03  1.250000000E+02  0.00000E+00  9.000E+00
      25     1     1     2     0     0  1.853758594E+02  4.562290235E+02 -2.353528184E+02  5.599331034E+02  1.250000000E+02  0.00000E+00  9.000E+00
       1     1     1     2   502     0 -1.819845280E+01 -4.468146883E+01 -8.922621705E+02  8.935655534E+02  1.078959322E-05  0.00000E+00  9.000E+00
#rwgt            1           1   2.3526239338722912E-002          10      168855           0
</event>
<event>
      5   9999  3.19816E-02  7.52899E+01 -1.00000E+00  1.29638E-01
      21    -1     0     0   502   501  0.000000000E+00  0.000000000E+00  8.701617062E+01  8.701617062E+01  0.000000000E+00  0.00000E+00  9.000E+00
      21    -1     0     0   511   502  0.000000000E+00  0.000000000E+00 -1.175411274E+03  1.175411274E+03  0.000000000E+00  0.00000E+00  9.000E+00
      25     1     1     2     0     0  7.683012062E+01  1.775573576E+02 -2.078754637E+02  3.102687401E+02  1.250000000E+02  0.00000E+00  9.000E+00
      25     1     1     2     0     0 -5.738267483E+01 -2.502922403E+02 -6.600218894E+02  7.191612277E+02  1.250000000E+02  0.00000E+00  9.000E+00
      21     1     1     2   511   501 -1.944744579E+01  7.273488268E+01 -2.204977500E+02  2.329974765E+02  3.814697266E-06  0.00000E+00  9.000E+00
#rwgt            1           1   2.6574196718052976E-002          10      168994           0
</event>
<event>
      5   9999  3.19816E-02  2.82497E+02 -1.00000E+00  1.06447E-01
       2    -1     0     0   502     0  0.000000000E+00  0.000000000E+00  1.935660178E+03  1.935660178E+03  0.000000000E+00  0.00000E+00  9.000E+00
      21    -1     0     0   501   502  0.000000000E+00  0.000000000E+00 -9.385677016E+01  9.385677016E+01  0.000000000E+00  0.00000E+00  9.000E+00
      25     1     1     2     0     0 -7.413168189E+00 -4.106484341E+01  3.612667203E+02  3.845515825E+02  1.250000000E+02  0.00000E+00  9.000E+00
      25     1     1     2     0     0 -1.720521629E+02 -1.771021804E+02  2.210801456E+02  3.542154145E+02  1.250000000E+02  0.00000E+00  9.000E+00
       2     1     1     2   501     0  1.794653311E+02  2.181670238E+02  1.259456542E+03  1.290749951E+03  1.525878906E-05  0.00000E+00  9.000E+00
#rwgt            1           1   2.8477496347814133E-002          10      169059           0
</event>
<event>
      5   9999  3.19816E-02  6.66263E+01 -1.00000E+00  1.32316E-01
      21    -1     0     0   502   501  0.000000000E+00  0.000000000E+00  6.508203380E+02  6.508203380E+02  0.000000000E+00  0.00000E+00  9.000E+00
      21    -1     0     0   501   511  0.000000000E+00  0.000000000E+00 -6.676838059E+01  6.676838059E+01  0.000000000E+00  0.00000E+00  9.000E+00
      25     1     1     2     0     0 -4.345324291E+01  6.560691595E+01  4.108027832E+02  4.365505451E+02  1.250000000E+02  0.00000E+00  9.000E+00
      25     1     1     2     0     0  8.602341758E+01 -1.435421172E+01  1.382582548E+02  2.057824501E+02  1.250000000E+02  0.00000E+00  9.000E+00
      21     1     1     2   502   511 -4.257017468E+01 -5.125270422E+01  3.499091951E+01  7.525572344E+01  1.168007728E-06  0.00000E+00  9.000E+00
#rwgt            1           1   2.5245988182700973E-002          10      169090           0
</event>
<event>
      5   9999  3.19903E-02  3.79964E+01 -1.00000E+00  1.46238E-01
      21    -1     0     0   512   501  0.000000000E+00  0.000000000E+00  1.082680364E+03  1.082680364E+03  0.000000000E+00  0.00000E+00  9.000E+00
      21    -1     0     0   501   502  0.000000000E+00  0.000000000E+00 -2.611115678E+02  2.611115678E+02  0.000000000E+00  0.00000E+00  9.000E+00
      25     1     1     2     0     0  6.919456996E+01 -4.794200778E+02  2.041089084E+02  5.402933888E+02  1.250000000E+02  0.00000E+00  9.000E+00
      25     1     1     2     0     0 -8.738163697E+01  4.460590440E+02  5.372853350E+02  7.147760155E+02  1.250000000E+02  0.00000E+00  9.000E+00
      21     1     1     2   512   502  1.818706700E+01  3.336103385E+01  8.017455295E+01  8.872252773E+01  1.348699152E-06  0.00000E+00  9.000E+00
#rwgt            1           1   3.2906266716247690E-002          10      169185           0
</event>
<event>
      5   9999  3.19816E-02  1.25138E+02 -1.00000E+00  1.19601E-01
      21    -1     0     0   511   501  0.000000000E+00  0.000000000E+00  1.097328315E+02  1.097328315E+02  0.000000000E+00  0.00000E+00  9.000E+00
      21    -1     0     0   501   502  0.000000000E+00  0.000000000E+00 -1.538670505E+03  1.538670505E+03  0.000000000E+00  0.00000E+00  9.000E+00
      25     1     1     2     0     0 -1.041601857E+02  6.082915487E+01 -1.281229576E+03  1.292951567E+03  1.250000000E+02  0.00000E+00  9.000E+00
      25     1     1     2     0     0 -1.447920513E+01 -1.006303220E+02 -1.632264076E+02  2.293555520E+02  1.250000000E+02  0.00000E+00  9.000E+00
      21     1     1     2   511   502  1.186393908E+02  3.980116717E+01  1.551830985E+01  1.260962168E+02  2.071636581E-06  0.00000E+00  9.000E+00
#rwgt            1           1   3.1907250777049111E-002          10      169355           0
</event>
<event>
      5   9999  3.19816E-02  1.42556E+01 -1.00000E+00  1.79492E-01
      21    -1     0     0   502   512  0.000000000E+00  0.000000000E+00  1.934628224E+02  1.934628224E+02  0.000000000E+00  0.00000E+00  9.000E+00
      21    -1     0     0   501   502  0.000000000E+00  0.000000000E+00 -3.357067105E+02  3.357067105E+02  0.000000000E+00  0.00000E+00  9.000E+00
      25     1     1     2     0     0 -1.773273435E+02  4.322141231E+01 -7.700950032E+01  2.342403475E+02  1.250000000E+02  0.00000E+00  9.000E+00
      25     1     1     2     0     0  1.865577053E+02 -5.408522788E+01 -1.042278371E+02  2.534115848E+02  1.250000000E+02  0.00000E+00  9.000E+00
      21     1     1     2   501   512 -9.230361792E+00  1.086381557E+01  3.899344929E+01  4.151760055E+01  6.743495762E-07  0.00000E+00  9.000E+00
#rwgt            1           1   3.4114394751595584E-002          10      169452           0
</event>
<event>
      5   9999  3.19816E-02  1.16763E+02 -1.00000E+00  1.20875E-01
      21    -1     0     0   502   501  0.000000000E+00  0.000000000E+00  1.899751844E+02  1.899751844E+02  0.000000000E+00  0.00000E+00  9.000E+00
      21    -1     0     0   511   502  0.000000000E+00  0.000000000E+00 -7.191665807E+02  7.191665807E+02  0.000000000E+00  0.00000E+00  9.000E+00
      25     1     1     2     0     0 -2.223991919E+02  3.880723907E+01 -1.213186442E+02  2.851501636E+02  1.250000000E+02  0.00000E+00  9.000E+00
      25     1     1     2     0     0  3.311998271E+02  3.571585417E+00 -2.849568928E+02  4.544573824E+02  1.250000000E+02  0.00000E+00  9.000E+00
      21     1     1     2   511   501 -1.088006352E+02 -4.237882448E+01 -1.229158593E+02  1.695342191E+02  3.015782986E-06  0.00000E+00  9.000E+00
#rwgt            1           1   1.9085724455129693E-002          10      169584           0
</event>
<event>
      5   9999  3.19816E-02  8.92400E+00 -1.00000E+00  2.01652E-01
      21    -1     0     0   502   501  0.000000000E+00  0.000000000E+00  2.914277002E+02  2.914277002E+02  0.000000000E+00  0.00000E+00  9.000E+00
      21    -1     0     0   501   512  0.000000000E+00  0.000000000E+00 -2.644587678E+02  2.644587678E+02  0.000000000E+00  0.00000E+00  9.000E+00
      25     1     1     2     0     0 -2.034531655E+02  6.972040166E+01  1.280252506E+02  2.797670276E+02  1.250000000E+02  0.00000E+00  9.000E+00
      25     1     1     2     0     0  1.992659033E+02 -6.183975601E+01 -8.480831663E+01  2.575820378E+02  1.250000000E+02  0.00000E+00  9.000E+00
      21     1     1     2   502   512  4.187262216E+00 -7.880645650E+00 -1.624800151E+01  1.853740256E+01  0.000000000E+00  0.00000E+00  9.000E+00
#rwgt            1           1   2.5942088285807616E-002          10      169683           0
</event>
<event>
      5   9999  3.19816E-02  6.63324E+02 -1.00000E+00  9.54854E-02
      21    -1     0     0   502   501  0.000000000E+00  0.000000000E+00  6.530191591E+02  6.530191591E+02  0.000000000E+00  0.00000E+00  9.000E+00
       2    -1     0     0   501     0  0.000000000E+00  0.000000000E+00 -1.311099743E+03  1.311099743E+03  0.000000000E+00  0.00000E+00  9.000E+00
      25     1     1     2     0     0 -3.375506072E+02 -3.922370778E+02  2.601827742E+02  5.925457059E+02  1.250000000E+02  0.00000E+00  9.000E+00
      25     1     1     2     0     0  1.384291796E+01 -1.867377021E+02 -5.899428564E+02  6.314429266E+02  1.250000000E+02  0.00000E+00  9.000E+00
       2     1     1     2   502     0  3.237076892E+02  5.789747799E+02 -3.283205012E+02  7.401302692E+02  0.000000000E+00  0.00000E+00  9.000E+00
#rwgt            2          13   6.2209270267010567E-004          10      170169           0
</event>
<event>
      5   9999  3.19816E-02  1.18479E+02 -1.00000E+00  1.20604E-01
      21    -1     0     0   502   511  0.000000000E+00  0.000000000E+00  6.349021430E+02  6.349021430E+02  0.000000000E+00  0.00000E+00  9.000E+00
      21    -1     0     0   501   502  0.000000000E+00  0.000000000E+00 -8.799675065E+02  8.799675065E+02  0.000000000E+00  0.00000E+00  9.000E+00
      25     1     1     2     0     0 -2.218068483E+02 -3.922327538E+02 -3.288479516E+02  5.716736713E+02  1.250000000E+02  0.00000E+00  9.000E+00
      25     1     1     2     0     0  2.162197301E+02  2.738855444E+02 -3.401114568E+02  5.030557287E+02  1.250000000E+02  0.00000E+00  9.000E+00
      21     1     1     2   501   511  5.587118211E+00  1.183472094E+02  4.238940450E+02  4.401402496E+02  7.629394531E-06  0.00000E+00  9.000E+00
#rwgt            1           1   3.1299358341728152E-002          10      170203           0
</event>
<event>
      5   9999  3.19816E-02  1.24414E+02 -1.00000E+00  1.19706E-01
      21    -1     0     0   502   501  0.000000000E+00  0.000000000E+00  2.175870050E+02  2.175870050E+02  0.000000000E+00  0.00000E+00  9.000E+00
      21    -1     0     0   512   502  0.000000000E+00  0.000000000E+00 -1.132056291E+03  1.132056291E+03  0.000000000E+00  0.00000E+00  9.000E+00
      25     1     1     2     0     0 -3.345300627E+02 -3.134855892E+02 -5.165748154E+02  7.018960873E+02  1.250000000E+02  0.00000E+00  9.000E+00
      25     1     1     2     0     0  2.168313622E+02  2.731637298E+02 -2.207094354E+02  4.312446148E+02  1.250000000E+02  0.00000E+00  9.000E+00
      21     1     1     2   512   501  1.176987005E+02  4.032185935E+01 -1.771850351E+02  2.165025937E+02  1.907348633E-06  0.00000E+00  9.000E+00
#rwgt            1           1   2.9164241068347699E-002          10      170275           0
</event>
<event>
      5   9999  3.19816E-02  6.74811E+00 -1.00000E+00  2.17828E-01
      21    -1     0     0   511   501  0.000000000E+00  0.000000000E+00  5.448676775E+02  5.448676775E+02  0.000000000E+00  0.00000E+00  9.000E+00
      21    -1     0     0   501   502  0.000000000E+00  0.000000000E+00 -5.994138078E+01  5.994138078E+01  0.000000000E+00  0.00000E+00  9.000E+00
      25     1     1     2     0     0 -8.856095875E+01  2.011486755E+01  9.784034904E+01  1.828807951E+02  1.250000000E+02  0.00000E+00  9.000E+00
      25     1     1     2     0     0  9.383426867E+01 -2.432547287E+01  3.479961688E+02  3.822602937E+02  1.250000000E+02  0.00000E+00  9.000E+00
      21     1     1     2   511   502 -5.273309923E+00  4.210605315E+00  3.908977884E+01  3.966796951E+01  6.743495762E-07  0.00000E+00  9.000E+00
#rwgt            1           1   2.9525460569774443E-002          10      170351           0
</event>
<event>
      5   9999  3.19816E-02  4.34035E+02 -1.00000E+00  1.00630E-01
      21    -1     0     0   502   512  0.000000000E+00  0.000000000E+00  2.334072316E+03  2.334072316E+03  0.000000000E+00  0.00000E+00  9.000E+00
      21    -1     0     0   501   502  0.000000000E+00  0.000000000E+00 -5.845566728E+02  5.845566728E+02  0.000000000E+00  0.00000E+00  9.000E+00
      25     1     1     2     0     0 -4.873748354E+01  1.426133219E+02  1.221329851E+01  1.961837571E+02  1.250000000E+02  0.00000E+00  9.000E+00
      25     1     1     2     0     0  4.785770513E+02 -2.028122827E+02 -3.178565431E+02  6.219538552E+02  1.250000000E+02  0.00000E+00  9.000E+00
      21     1     1     2   501   512 -4.298395677E+02  6.019896080E+01  2.055158888E+03  2.100491377E+03  0.000000000E+00  0.00000E+00  9.000E+00
#rwgt            2          11   2.3956535006317867E-003          10      170634           0
</event>
<event>
      5   9999  3.19816E-02  1.18706E+02 -1.00000E+00  1.20568E-01
      21    -1     0     0   511   501  0.000000000E+00  0.000000000E+00  1.076334014E+03  1.076334014E+03  0.000000000E+00  0.00000E+00  9.000E+00
      21    -1     0     0   501   502  0.000000000E+00  0.000000000E+00 -1.344439263E+02  1.344439263E+02  0.000000000E+00  0.00000E+00  9.000E+00
      25     1     1     2     0     0 -1.624367180E+02 -1.508417039E+02  1.591646802E+02  3.001621269E+02  1.250000000E+02  0.00000E+00  9.000E+00
      25     1     1     2     0     0  1.622311004E+02  2.695478261E+02  4.983127944E+02  6.024247684E+02  1.250000000E+02  0.00000E+00  9.000E+00
      21     1     1     2   511   502  2.056176360E-01 -1.187061222E+02  2.844126132E+02  3.081910451E+02  3.814697266E-06  0.00000E+00  9.000E+00
#rwgt            1           1   3.1659579717258114E-002          10      170654           0
</event>
<event>
      5   9999  3.19816E-02  1.47285E+01 -1.00000E+00  1.78134E-01
      21    -1     0     0   512   501  0.000000000E+00  0.000000000E+00  3.344511610E+02  3.344511610E+02  0.000000000E+00  0.00000E+00  9.000E+00
      21    -1     0     0   501   502  0.000000000E+00  0.000000000E+00 -1.206462836E+03  1.206462836E+03  0.000000000E+00  0.00000E+00  9.000E+00
      25     1     1     2     0     0 -8.271841037E+01 -5.512135855E+02 -7.205676350E+02  9.195224135E+02  1.250000000E+02  0.00000E+00  9.000E+00
      25     1     1     2     0     0  7.030883854E+01  5.432806637E+02 -1.793638604E+02  5.898250646E+02  1.250000000E+02  0.00000E+00  9.000E+00
      21     1     1     2   512   502  1.240957183E+01  7.932921793E+00  2.791982065E+01  3.156651875E+01  6.743495762E-07  0.00000E+00  9.000E+00
#rwgt            2          11   8.5417956882115377E-003          10      170827           0
</event>
<event>
      5   9999  3.19816E-02  6.57034E+01 -1.00000E+00  1.32629E-01
      21    -1     0     0   502   501  0.000000000E+00  0.000000000E+00  1.613403584E+02  1.613403584E+02  0.000000000E+00  0.00000E+00  9.000E+00
       1    -1     0     0   501     0  0.000000000E+00  0.000000000E+00 -1.142036563E+03  1.142036563E+03  0.000000000E+00  0.00000E+00  9.000E+00
      25     1     1     2     0     0 -1.232831973E+02  9.959814848E+01 -5.171370829E+02  5.551344886E+02  1.250000000E+02  0.00000E+00  9.000E+00
      25     1     1     2     0     0  1.251836712E+02 -1.652740280E+02  3.566700794E+01  2.447112407E+02  1.250000000E+02  0.00000E+00  9.000E+00
       1     1     1     2   502     0 -1.900473830E+00  6.567587956E+01 -4.992261298E+02  5.035311923E+02  9.344061824E-06  0.00000E+00  9.000E+00
#rwgt            1           1   2.3905522344194879E-002          10      170922           0
</event>
<event>
      5   9999  3.19816E-02  2.84879E+01 -1.00000E+00  1.54616E-01
      21    -1     0     0   502   501  0.000000000E+00  0.000000000E+00  8.246250420E+01  8.246250420E+01  0.000000000E+00  0.00000E+00  9.000E+00
      21    -1     0     0   501   511  0.000000000E+00  0.000000000E+00 -1.923871538E+03  1.923871538E+03  0.000000000E+00  0.00000E+00  9.000E+00
      25     1     1     2     0     0 -9.905188945E+01  2.371136628E+02 -1.148201531E+03  1.183226911E+03  1.250000000E+02  0.00000E+00  9.000E+00
      25     1     1     2     0     0  9.210678811E+01 -2.094853082E+02 -1.988357223E+02  3.279152318E+02  1.250000000E+02  0.00000E+00  9.000E+00
      21     1     1     2   502   511  6.945101338E+00 -2.762835459E+01 -4.943717807E+02  4.951919001E+02  5.394796609E-06  0.00000E+00  9.000E+00
#rwgt            1           1   2.6752428447010947E-002          10      171024           0
</event>
<event>
      5   9999  3.19816E-02  5.67262E+01 -1.00000E+00  1.36019E-01
      21    -1     0     0   502   512  0.000000000E+00  0.000000000E+00  3.611493059E+03  3.611493059E+03  0.000000000E+00  0.00000E+00  9.000E+00
      21    -1     0     0   501   502  0.000000000E+00  0.000000000E+00 -1.995316027E+02  1.995316027E+02  0.000000000E+00  0.00000E+00  9.000E+00
      25     1     1     2     0     0  8.219959375E+02 -5.487173508E+01  1.865988893E+03  2.043582095E+03  1.250000000E+02  0.00000E+00  9.000E+00
      25     1     1     2     0     0 -7.765556456E+02  2.091522402E+01  1.341276291E+03  1.555031577E+03  1.250000000E+02  0.00000E+00  9.000E+00
      21     1     1     2   501   512 -4.544029194E+01  3.395651107E+01  2.046962725E+02  2.124109902E+02  0.000000000E+00  0.00000E+00  9.000E+00
#rwgt            1           1   4.8269588740936425E-002          10      171143           0
</event>
<event>
      5   9999  3.19816E-02  1.79905E+01 -1.00000E+00  1.70255E-01
      21    -1     0     0   502   501  0.000000000E+00  0.000000000E+00  1.179911244E+03  1.179911244E+03  0.000000000E+00  0.00000E+00  9.000E+00
      21    -1     0     0   511   502  0.000000000E+00  0.000000000E+00 -7.984887082E+02  7.984887082E+02  0.000000000E+00  0.00000E+00  9.000E+00
      25     1     1     2     0     0  7.953020226E+02  1.010613394E+02  6.961220532E+02  1.069078863E+03  1.250000000E+02  0.00000E+00  9.000E+00
      25     1     1     2     0     0 -8.088439274E+02 -1.129051740E+02 -2.838279040E+02  8.735899246E+02  1.250000000E+02  0.00000E+00  9.000E+00
      21     1     1     2   511   501  1.354190476E+01  1.184383457E+01 -3.087161365E+01  3.573116471E+01  8.920806376E-07  0.00000E+00  9.000E+00
#rwgt            1           1   3.6470564095932599E-002          10      171301           0
</event>
<event>
      5   9999  3.19816E-02  1.28193E+02 -1.00000E+00  1.19163E-01
      21    -1     0     0   512   501  0.000000000E+00  0.000000000E+00  8.171803374E+02  8.171803374E+02  0.000000000E+00  0.00000E+00  9.000E+00
      21    -1     0     0   501   502  0.000000000E+00  0.000000000E+00 -3.292787715E+02  3.292787715E+02  0.000000000E+00  0.00000E+00  9.000E+00
      25     1     1     2     0     0 -5.547725903E+01  4.486222018E+01  2.761559984E+02  3.114120751E+02  1.250000000E+02  0.00000E+00  9.000E+00
      25     1     1     2     0     0  1.833598059E+02 -5.377284768E+01 -2.600950983E+02  3.461022937E+02  1.250000000E+02  0.00000E+00  9.000E+00
      21     1     1     2   512   502 -1.278825468E+02  8.910627497E+00  4.718406658E+02  4.889447402E+02  7.629394531E-06  0.00000E+00  9.000E+00
#rwgt            2          11   2.1176309138605624E-003          10      171533           0
</event>
<event>
      5   9999  3.19816E-02  6.98306E+01 -1.00000E+00  1.31274E-01
      21    -1     0     0   502   501  0.000000000E+00  0.000000000E+00  4.199637197E+02  4.199637197E+02  0.000000000E+00  0.00000E+00  9.000E+00
      21    -1     0     0   511   502  0.000000000E+00  0.000000000E+00 -1.413167588E+02  1.413167588E+02  0.000000000E+00  0.00000E+00  9.000E+00
      25     1     1     2     0     0  4.356551975E+00 -4.369729395E+01 -3.615686770E+01  1.373344535E+02  1.250000000E+02  0.00000E+00  9.000E+00
      25     1     1     2     0     0  1.951686750E+01  1.093202771E+02  3.120956762E+02  3.540629071E+02  1.250000000E+02  0.00000E+00  9.000E+00
      21     1     1     2   511   501 -2.387341947E+01 -6.562298313E+01  2.708152520E+00  6.988311786E+01  1.351330763E-06  0.00000E+00  9.000E+00
#rwgt            1           1   3.2107533574098027E-002          10      171553           0
</event>
<event>
      5   9999  3.19816E-02  3.45600E+01 -1.00000E+00  1.48891E-01
      21    -1     0     0   502   512  0.000000000E+00  0.000000000E+00  2.444879633E+02  2.444879633E+02  0.000000000E+00  0.00000E+00  9.000E+00
      21    -1     0     0   501   502  0.000000000E+00  0.000000000E+00 -2.201935092E+02  2.201935092E+02  0.000000000E+00  0.00000E+00  9.000E+00
      25     1     1     2     0     0  1.820842155E+02 -4.521041427E+01  4.766663417E+00  2.254913838E+02  1.250000000E+02  0.00000E+00  9.000E+00
      25     1     1     2     0     0 -1.563841316E+02  2.210412599E+01  4.407445048E+00  2.014671551E+02  1.250000000E+02  0.00000E+00  9.000E+00
      21     1     1     2   501   512 -2.570008389E+01  2.310628829E+01  1.512034569E+01  3.772293366E+01  2.920019320E-07  0.00000E+00  9.000E+00
#rwgt            1           1   2.4955908451187069E-002          10      171635           0
</event>
<event>
      5   9999  3.19816E-02  4.33824E+01 -1.00000E+00  1.42687E-01
      21    -1     0     0   511   501  0.000000000E+00  0.000000000E+00  8.789590735E+02  8.789590735E+02  0.000000000E+00  0.00000E+00  9.000E+00
      21    -1     0     0   501   502  0.000000000E+00  0.000000000E+00 -6.199861974E+01  6.199861974E+01  0.000000000E+00  0.00000E+00  9.000E+00
      25     1     1     2     0     0 -3.472728604E+01 -1.117935467E+02  5.876618866E+02  6.121072409E+02  1.250000000E+02  0.00000E+00  9.000E+00
      25     1     1     2     0     0 -1.237853298E+00  1.360533890E+02  1.481119349E+02  2.367999202E+02  1.250000000E+02  0.00000E+00  9.000E+00
      21     1     1     2   511   502  3.596513933E+01 -2.425984236E+01  8.118663227E+01  9.205053209E+01  0.000000000E+00  0.00000E+00  9.000E+00
#rwgt            1           1   2.8365085402613802E-002          10      171770           0
</event>
<event>
      5   9999  3.19816E-02  7.00877E+01 -1.00000E+00  1.31193E-01
      21    -1     0     0   502   501  0.000000000E+00  0.000000000E+00  6.580544797E+01  6.580544797E+01  0.000000000E+00  0.00000E+00  9.000E+00
      21    -1     0     0   512   502  0.000000000E+00  0.000000000E+00 -9.606470615E+02  9.606470615E+02  0.000000000E+00  0.00000E+00  9.000E+00
      25     1     1     2     0     0 -3.499653596E+00  1.339019587E+02 -4.107090023E+02  4.497208764E+02  1.250000000E+02  0.00000E+00  9.000E+00
      25     1     1     2     0     0  3.291623871E+01 -1.975175640E+02 -3.148429447E+02  3.935069843E+02  1.250000000E+02  0.00000E+00  9.000E+00
      21     1     1     2   512   501 -2.941658511E+01  6.361560532E+01 -1.692896665E+02  1.832246488E+02  2.697398305E-06  0.00000E+00  9.000E+00
#rwgt            1           1   2.6512785381778380E-002          10      171833           0
</event>
<event>
      5   9999  3.19816E-02  3.54974E+02 -1.00000E+00  1.03271E-01
      21    -1     0     0   502   501  0.000000000E+00  0.000000000E+00  7.328968700E+02  7.328968700E+02  0.000000000E+00  0.00000E+00  9.000E+00
      21    -1     0     0   511   502  0.000000000E+00  0.000000000E+00 -1.245223254E+03  1.245223254E+03  0.000000000E+00  0.00000E+00  9.000E+00
      25     1     1     2     0     0 -2.568391184E+02 -3.247051966E+02  3.088875400E+02  5.314473726E+02  1.250000000E+02  0.00000E+00  9.000E+00
      25     1     1     2     0     0 -5.103012683E+01  5.014063330E+02  3.434060556E+01  5.204004822E+02  1.250000000E+02  0.00000E+00  9.000E+00
      21     1     1     2   511   501  3.078692452E+02 -1.767011364E+02 -8.555545297E+02  9.262722694E+02  1.078959322E-05  0.00000E+00  9.000E+00
#rwgt            2          11   2.6055753037076781E-003          10      172064           0
</event>
<event>
      5   9999  3.19816E-02  5.75633E+01 -1.00000E+00  1.35673E-01
      21    -1     0     0   512   501  0.000000000E+00  0.000000000E+00  2.360734212E+02  2.360734212E+02  0.000000000E+00  0.00000E+00  9.000E+00
      21    -1     0     0   501   502  0.000000000E+00  0.000000000E+00 -2.718659059E+02  2.718659059E+02  0.000000000E+00  0.00000E+00  9.000E+00
      25     1     1     2     0     0 -7.708033114E+00 -1.479174699E+02 -7.633715523E+01  2.083059120E+02  1.250000000E+02  0.00000E+00  9.000E+00
      25     1     1     2     0     0 -4.187425003E+01  1.771600621E+02 -1.274063555E+01  2.211932734E+02  1.250000000E+02  0.00000E+00  9.000E+00
      21     1     1     2   512   502  4.958228315E+01 -2.924259215E+01  5.328530607E+01  7.844014177E+01  0.000000000E+00  0.00000E+00  9.000E+00
#rwgt            1           1   3.0423567159357331E-002          10      172084           0
</event>
<event>
      5   9999  3.19816E-02  7.59150E+01 -1.00000E+00  1.29461E-01
      21    -1     0     0   511   501  0.000000000E+00  0.000000000E+00  8.210383349E+02  8.210383349E+02  0.000000000E+00  0.00000E+00  9.000E+00
      21    -1     0     0   501   502  0.000000000E+00  0.000000000E+00 -1.078790610E+03  1.078790610E+03  0.000000000E+00  0.00000E+00  9.000E+00
      25     1     1     2     0     0  1.381352648E+02  8.139949536E+02 -5.492256041E+02  9.994713103E+02  1.250000000E+02  0.00000E+00  9.000E+00
      25     1     1     2     0     0 -1.454475934E+02 -7.384329059E+02  2.151009629E+02  7.926736928E+02  1.250000000E+02  0.00000E+00  9.000E+00
      21     1     1     2   511   502  7.312328596E+00 -7.556204768E+01  7.637236568E+01  1.076839423E+02  1.348699152E-06  0.00000E+00  9.000E+00
#rwgt            1           1   3.6762220704681423E-002          10      172156           0
</event>
<event>
      5   9999  3.19816E-02  6.61379E+01 -1.00000E+00  1.32481E-01
       1    -1     0     0   502     0  0.000000000E+00  0.000000000E+00  1.895191529E+03  1.895191529E+03  0.000000000E+00  0.00000E+00  9.000E+00
      21    -1     0     0   501   502  0.000000000E+00  0.000000000E+00 -3.831807374E+02  3.831807374E+02  0.000000000E+00  0.00000E+00  9.000E+00
      25     1     1     2     0     0  6.125642516E+01 -2.779712813E+02 -2.286938267E+02  3.859355507E+02  1.250000000E+02  0.00000E+00  9.000E+00
      25     1     1     2     0     0 -1.221134993E+02  3.038679572E+02  3.339997745E+02  4.841779543E+02  1.250000000E+02  0.00000E+00  9.000E+00
       1     1     1     2   501     0  6.085707414E+01 -2.589667586E+01  1.406704843E+03  1.408258761E+03  0.000000000E+00  0.00000E+00  9.000E+00
#rwgt            1           1   2.9068094743577015E-002          10      172286           0
</event>
<event>
      5   9999  3.19816E-02  1.46442E+02 -1.00000E+00  1.16808E-01
      21    -1     0     0   502   501  0.000000000E+00  0.000000000E+00  4.654057423E+01  4.654057423E+01  0.000000000E+00  0.00000E+00  9.000E+00
      21    -1     0     0   511   502  0.000000000E+00  0.000000000E+00 -2.484248854E+03  2.484248854E+03  0.000000000E+00  0.00000E+00  9.000E+00
      25     1     1     2     0     0  1.745157405E+02  1.896686973E+02 -8.589424488E+02  9.054485566E+02  1.250000000E+02  0.00000E+00  9.000E+00
      25     1     1     2     0     0 -2.856383463E+01 -2.016454867E+02 -9.240907853E+02  9.544870740E+02  1.250000000E+02  0.00000E+00  9.000E+00
      21     1     1     2   511   501 -1.459519058E+02  1.197678940E+01 -6.546750456E+02  6.708537975E+02  1.078959322E-05  0.00000E+00  9.000E+00
#rwgt            1           1   2.6515371382268824E-002          10      172389           0
</event>
<event>
      5   9999  3.19816E-02  8.35872E+01 -1.00000E+00  1.27434E-01
      21    -1     0     0   502   512  0.000000000E+00  0.000000000E+00  1.830817428E+02  1.830817428E+02  0.000000000E+00  0.00000E+00  9.000E+00
      21    -1     0     0   501   502  0.000000000E+00  0.000000000E+00 -4.706089821E+02  4.706089821E+02  0.000000000E+00  0.00000E+00  9.000E+00
      25     1     1     2     0     0  1.063975346E+01 -1.523696554E+02  5.907364365E+01  2.060204155E+02  1.250000000E+02  0.00000E+00  9.000E+00
      25     1     1     2     0     0 -1.982224061E+01  6.928840659E+01 -3.330899714E+02  3.629982556E+02  1.250000000E+02  0.00000E+00  9.000E+00
      21     1     1     2   501   512  9.182487160E+00  8.308124878E+01 -1.351091153E+01  8.467205382E+01  5.591411304E-07  0.00000E+00  9.000E+00
#rwgt            1           1   2.8113382301473023E-002          10      172438           0
</event>
<event>
      5   9999  3.21482E-02  4.66754E+01 -1.00000E+00  1.40802E-01
       2    -1     0     0   502     0  0.000000000E+00  0.000000000E+00  5.019893141E+02  5.019893141E+02  0.000000000E+00  0.00000E+00  9.000E+00
      21    -1     0     0   501   502  0.000000000E+00  0.000000000E+00 -1.890511022E+03  1.890511022E+03  0.000000000E+00  0.00000E+00  9.000E+00
      25     1     1     2     0     0  1.861309982E+01  1.854213187E+01 -1.182449055E+02  1.740606671E+02  1.250000000E+02  0.00000E+00  9.000E+00
      25     1     1     2     0     0 -6.520607040E+01 -1.576904648E+01 -1.740316065E+03  1.746088630E+03  1.250000000E+02  0.00000E+00  9.000E+00
       2     1     1     2   501     0  4.659297057E+01 -2.773085391E+00  4.700392635E+02  4.723510391E+02  1.206313194E-05  0.00000E+00  9.000E+00
#rwgt            1           1   9.7948398290709532E-002          10      172522           0
</event>
<event>
      5   9999  3.19816E-02  1.76617E+01 -1.00000E+00  1.70951E-01
      21    -1     0     0   502   501  0.000000000E+00  0.000000000E+00  1.018951330E+03  1.018951330E+03  0.000000000E+00  0.00000E+00  9.000E+00
      21    -1     0     0   501   511  0.000000000E+00  0.000000000E+00 -9.872886542E+01  9.872886542E+01  0.000000000E+00  0.00000E+00  9.000E+00
      25     1     1     2     0     0 -1.640861839E+02  1.260235514E+02  6.251137625E+02  6.702226700E+02  1.250000000E+02  0.00000E+00  9.000E+00
      25     1     1     2     0     0  1.467163594E+02 -1.292212202E+02  3.328685909E+02  4.057712565E+02  1.250000000E+02  0.00000E+00  9.000E+00
      21     1     1     2   502   511  1.736982452E+01  3.197668773E+00 -3.775988832E+01  4.168626938E+01  1.066240300E-06  0.00000E+00  9.000E+00
#rwgt            1           1   2.6424670478143199E-002          10      172656           0
</event>
<event>
      5   9999  3.19816E-02  6.10183E+01 -1.00000E+00  1.34314E-01
      21    -1     0     0   502   501  0.000000000E+00  0.000000000E+00  2.181345676E+02  2.181345676E+02  0.000000000E+00  0.00000E+00  9.000E+00
      21    -1     0     0   512   502  0.000000000E+00  0.000000000E+00 -9.685918548E+02  9.685918548E+02  0.000000000E+00  0.00000E+00  9.000E+00
      25     1     1     2     0     0 -3.324817207E+02 -9.680792258E+01 -3.150655799E+01  3.695044406E+02  1.250000000E+02  0.00000E+00  9.000E+00
      25     1     1     2     0     0  2.957670793E+02  4.807125817E+01 -6.378747897E+02  7.157501368E+02  1.250000000E+02  0.00000E+00  9.000E+00
      21     1     1     2   512   501  3.671464143E+01  4.873666442E+01 -8.107593954E+01  1.014718450E+02  9.536743164E-07  0.00000E+00  9.000E+00
#rwgt            1           1   2.6750611538300703E-002          10      172803           0
</event>
<event>
      5   9999  3.19816E-02  2.38279E+02 -1.00000E+00  1.08948E-01
       2    -1     0     0   502     0  0.000000000E+00  0.000000000E+00  1.251513607E+03  1.251513607E+03  0.000000000E+00  0.00000E+00  9.000E+00
      21    -1     0     0   501   502  0.000000000E+00  0.000000000E+00 -8.676575256E+02  8.676575256E+02  0.000000000E+00  0.00000E+00  9.000E+00
      25     1     1     2     0     0 -2.940952157E+02 -4.886959299E+02 -5.326885802E+02  7.903782836E+02  1.250000000E+02  0.00000E+00  9.000E+00
      25     1     1     2     0     0  6.161738153E+01  4.364389876E+02  8.781649003E+01  4.664894720E+02  1.250000000E+02  0.00000E+00  9.000E+00
       2     1     1     2   501     0  2.324778341E+02  5.225694227E+01  8.287281716E+02  8.623033769E+02  0.000000000E+00  0.00000E+00  9.000E+00
#rwgt            1           1   3.3748212819187690E-002          10      172965           0
</event>
<event>
      5   9999  3.19816E-02  6.17337E+01 -1.00000E+00  1.34046E-01
       2    -1     0     0   502     0  0.000000000E+00  0.000000000E+00  2.176260860E+02  2.176260860E+02  0.000000000E+00  0.00000E+00  9.000E+00
      21    -1     0     0   501   502  0.000000000E+00  0.000000000E+00 -5.540382674E+02  5.540382674E+02  0.000000000E+00  0.00000E+00  9.000E+00
      25     1     1     2     0     0  1.034044013E+02  7.774023166E+01 -6.768765750E+00  1.800189712E+02  1.250000000E+02  0.00000E+00  9.000E+00
      25     1     1     2     0     0 -8.924916371E+01 -1.378291900E+02 -4.282094732E+02  4.753426678E+02  1.250000000E+02  0.00000E+00  9.000E+00
       2     1     1     2   501     0 -1.415523755E+01  6.008895838E+01  9.856605759E+01  1.163027144E+02  1.907348633E-06  0.00000E+00  9.000E+00
#rwgt            1           1   3.0863732453527821E-002          10      173048           0
</event>
<event>
      5   9999  3.19816E-02  2.85078E+01 -1.00000E+00  1.54595E-01
      21    -1     0     0   502   501  0.000000000E+00  0.000000000E+00  1.536710387E+02  1.536710387E+02  0.000000000E+00  0.00000E+00  9.000E+00
      21    -1     0     0   511   502  0.000000000E+00  0.000000000E+00 -1.315342151E+03  1.315342151E+03  0.000000000E+00  0.00000E+00  9.000E+00
      25     1     1     2     0     0 -2.886826373E+02 -5.685678496E+01 -6.727384667E+02  7.448304530E+02  1.250000000E+02  0.00000E+00  9.000E+00
      25     1     1     2     0     0  2.966995647E+02  8.421411818E+01 -1.194105618E+02  3.535626276E+02  1.250000000E+02  0.00000E+00  9.000E+00
      21     1     1     2   511   501 -8.016927332E+00 -2.735733322E+01 -3.695220838E+02  3.706201090E+02  5.394796609E-06  0.00000E+00  9.000E+00
#rwgt            1           1   2.5446395397599506E-002          10      173091           0
</event>
<event>
      5   9999  3.19816E-02  3.58976E+01 -1.00000E+00  1.47816E-01
      21    -1     0     0   502   512  0.000000000E+00  0.000000000E+00  3.708444567E+02  3.708444567E+02  0.000000000E+00  0.00000E+00  9.000E+00
      21    -1     0     0   501   502  0.000000000E+00  0.000000000E+00 -4.323027088E+02  4.323027088E+02  0.000000000E+00  0.00000E+00  9.000E+00
      25     1     1     2     0     0 -9.443970973E+01 -1.438138851E+01  1.236988109E+02  2.001301550E+02  1.250000000E+02  0.00000E+00  9.000E+00
      25     1     1     2     0     0  9.947972861E+01  4.992343622E+01 -3.745535300E+02  4.102485987E+02  1.250000000E+02  0.00000E+00  9.000E+00
      21     1     1     2   501   512 -5.040018875E+00 -3.554204771E+01  1.893964669E+02  1.927684119E+02  2.697398305E-06  0.00000E+00  9.000E+00
#rwgt            1           1   2.5162663270619556E-002          10      173227           0
</event>
<event>
      5   9999  3.19816E-02  8.53346E+01 -1.00000E+00  1.27007E-01
      -3    -1     0     0     0   501  0.000000000E+00  0.000000000E+00  1.169700935E+03  1.169700935E+03  0.000000000E+00  0.00000E+00  9.000E+00
      21    -1     0     0   501   502  0.000000000E+00  0.000000000E+00 -2.983200405E+02  2.983200405E+02  0.000000000E+00  0.00000E+00  9.000E+00
      25     1     1     2     0     0  3.057697137E+02 -1.817757425E+02 -6.465473564E+01  3.825477398E+02  1.250000000E+02  0.00000E+00  9.000E+00
      25     1     1     2     0     0 -2.559321986E+02  2.510448695E+02  4.357046947E+02  5.779172932E+02  1.250000000E+02  0.00000E+00  9.000E+00
      -3     1     1     2     0   502 -4.983751512E+01 -6.926912698E+01  5.003309353E+02  5.075559424E+02  7.629394531E-06  0.00000E+00  9.000E+00
#rwgt            1           1   3.0079401240613531E-002          10      173343           0
</event>
<event>
      5   9999  3.19816E-02  1.71416E+02 -1.00000E+00  1.14142E-01
      -5    -1     0     0     0   501  0.000000000E+00  0.000000000E+00  3.854553756E+02  3.854553756E+02  0.000000000E+00  0.00000E+00  9.000E+00
      21    -1     0     0   501   502  0.000000000E+00  0.000000000E+00 -2.212778721E+02  2.212778721E+02  0.000000000E+00  0.00000E+00  9.000E+00
      25     1     1     2     0     0 -1.655835133E+02 -8.106799293E+01  3.249456450E+01  2.251017905E+02  1.250000000E+02  0.00000E+00  9.000E+00
      25     1     1     2     0     0 -5.734273821E+00  7.527765471E+01 -2.646247117E+01  1.484077814E+02  1.250000000E+02  0.00000E+00  9.000E+00
      -5     1     1     2     0   502  1.713177871E+02  5.790338216E+00  1.581454102E+02  2.332236758E+02  4.264961200E-06  0.00000E+00  9.000E+00
#rwgt            2           1   6.2512678334415860E-005          10      173479           0
</event>
<event>
      5   9999  3.19816E-02  1.23365E+02 -1.00000E+00  1.19861E-01
      21    -1     0     0   502   511  0.000000000E+00  0.000000000E+00  2.458798838E+02  2.458798838E+02  0.000000000E+00  0.00000E+00  9.000E+00
      21    -1     0     0   501   502  0.000000000E+00  0.000000000E+00 -7.675206841E+02  7.675206841E+02  0.000000000E+00  0.00000E+00  9.000E+00
      25     1     1     2     0     0 -1.145770123E+02  2.470274292E+02 -3.948976245E+02  4.957010958E+02  1.250000000E+02  0.00000E+00  9.000E+00
      25     1     1     2     0     0  1.703236518E+02 -1.369762776E+02 -2.417388020E+02  3.490491303E+02  1.250000000E+02  0.00000E+00  9.000E+00
      21     1     1     2   501   511 -5.574663948E+01 -1.100511516E+02  1.149956262E+02  1.686503419E+02  1.348699152E-06  0.00000E+00  9.000E+00
#rwgt            1           1   2.7463024073884835E-002          10      173498           0
</event>
<event>
      5   9999  3.19816E-02  1.11178E+02 -1.00000E+00  1.21793E-01
      21    -1     0     0   502   501  0.000000000E+00  0.000000000E+00  3.366191552E+02  3.366191552E+02  0.000000000E+00  0.00000E+00  9.000E+00
       3    -1     0     0   501     0  0.000000000E+00  0.000000000E+00 -2.299779207E+02  2.299779207E+02  0.000000000E+00  0.00000E+00  9.000E+00
      25     1     1     2     0     0  2.083054895E+02 -8.329624152E+00  8.328543184E+00  2.432178535E+02  1.250000000E+02  0.00000E+00  9.000E+00
      25     1     1     2     0     0 -9.736120430E+01  1.125126333E+00  1.330504467E+02  2.069006800E+02  1.250000000E+02  0.00000E+00  9.000E+00
       3     1     1     2   502     0 -1.109442853E+02  7.204497819E+00 -3.473775539E+01  1.164785425E+02  1.784161275E-06  0.00000E+00  9.000E+00
#rwgt            1           1   2.8147272239257219E-002          10      173580           0
</event>
<event>
      5   9999  3.19816E-02  2.16669E+01 -1.00000E+00  1.63551E-01
      21    -1     0     0   502   501  0.000000000E+00  0.000000000E+00  1.375968251E+02  1.375968251E+02  0.000000000E+00  0.00000E+00  9.000E+00
      21    -1     0     0   511   502  0.000000000E+00  0.000000000E+00 -1.189040230E+03  1.189040230E+03  0.000000000E+00  0.00000E+00  9.000E+00
      25     1     1     2     0     0  9.577695005E+01  1.620691102E+02  1.142605498E+01  2.262635087E+02  1.250000000E+02  0.00000E+00  9.000E+00
      25     1     1     2     0     0 -1.071012416E+02 -1.805411143E+02 -7.966013970E+02  8.332253930E+02  1.250000000E+02  0.00000E+00  9.000E+00
      21     1     1     2   511   501  1.132429159E+01  1.847200405E+01 -2.662680634E+02  2.671481538E+02  0.000000000E+00  0.00000E+00  9.000E+00
#rwgt            1           1   2.9383258263514400E-002          10      173650           0
</event>
<event>
      5   9999  3.61103E-02  1.49656E+01 -1.00000E+00  1.77478E-01
      21    -1     0     0   502   512  0.000000000E+00  0.000000000E+00  1.920810336E+03  1.920810336E+03  0.000000000E+00  0.00000E+00  9.000E+00
      21    -1     0     0   501   502  0.000000000E+00  0.000000000E+00 -5.189210146E+02  5.189210146E+02  0.000000000E+00  0.00000E+00  9.000E+00
      25     1     1     2     0     0 -1.854479262E+02 -3.953418559E+02 -3.803013300E+02  5.924020746E+02  1.250000000E+02  0.00000E+00  9.000E+00
      25     1     1     2     0     0  1.812984819E+02  4.097207101E+02  1.760933209E+03  1.821332195E+03  1.250000000E+02  0.00000E+00  9.000E+00
      21     1     1     2   501   512  4.149444330E+00 -1.437885415E+01  2.125744241E+01  2.599708047E+01  2.384185791E-07  0.00000E+00  9.000E+00
#rwgt            1           1   3.9003969162724146E-002          10      173807           0
</event>
<event>
      5   9999  3.19816E-02  1.02880E+01 -1.00000E+00  1.94342E-01
      21    -1     0     0   502   501  0.000000000E+00  0.000000000E+00  1.064212660E+03  1.064212660E+03  0.000000000E+00  0.00000E+00  9.000E+00
      21    -1     0     0   501   511  0.000000000E+00  0.000000000E+00 -9.622039828E+01  9.622039828E+01  0.000000000E+00  0.00000E+00  9.000E+00
      25     1     1     2     0     0  2.689123662E+02  7.084627085E+01  6.381625683E+02  7.072549176E+02  1.250000000E+02  0.00000E+00  9.000E+00
      25     1     1     2     0     0 -2.592810284E+02 -7.446288895E+01  3.280563188E+02  4.427384350E+02  1.250000000E+02  0.00000E+00  9.000E+00
      21     1     1     2   502   511 -9.631337840E+00  3.616618099E+00  1.773374416E+00  1.043970555E+01  1.032382731E-07  0.00000E+00  9.000E+00
#rwgt            1           1   2.8477072181992354E-002          10      174051           0
</event>
<event>
      5   9999  3.19816E-02  1.21569E+02 -1.00000E+00  1.20129E-01
      21    -1     0     0   512   501  0.000000000E+00  0.000000000E+00  1.596680422E+02  1.596680422E+02  0.000000000E+00  0.00000E+00  9.000E+00
      21    -1     0     0   501   502  0.000000000E+00  0.000000000E+00 -1.672761629E+03  1.672761629E+03  0.000000000E+00  0.00000E+00  9.000E+00
      25     1     1     2     0     0 -3.792969136E+02 -2.621059906E+01 -8.035910385E+02  8.977397738E+02  1.250000000E+02  0.00000E+00  9.000E+00
      25     1     1     2     0     0  4.425034577E+02 -7.763557294E+01 -6.482684201E+02  7.985696819E+02  1.250000000E+02  0.00000E+00  9.000E+00
      21     1     1     2   512   502 -6.320654410E+01  1.038461720E+02 -6.123412839E+01  1.361202158E+02  2.431401974E-06  0.00000E+00  9.000E+00
#rwgt            1           1   2.8175072894274317E-002          10      174274           0
</event>
<event>
      5   9999  3.19816E-02  1.65174E+02 -1.00000E+00  1.14759E-01
       1    -1     0     0   502     0  0.000000000E+00  0.000000000E+00  2.079465829E+02  2.079465829E+02  0.000000000E+00  0.00000E+00  9.000E+00
      21    -1     0     0   501   502  0.000000000E+00  0.000000000E+00 -6.272337524E+02  6.272337524E+02  0.000000000E+00  0.00000E+00  9.000E+00
      25     1     1     2     0     0  8.246836226E+01 -1.666335191E+02 -3.572699254E+02  4.217043515E+02  1.250000000E+02  0.00000E+00  9.000E+00
      25     1     1     2     0     0  7.633095065E+01  1.211869492E+02 -1.347332599E+02  2.330037382E+02  1.250000000E+02  0.00000E+00  9.000E+00
       1     1     1     2   501     0 -1.587993129E+02  4.544656986E+01  7.271601575E+01  1.804722456E+02  9.536743164E-07  0.00000E+00  9.000E+00
#rwgt            1           1   2.9374312286237009E-002          10      174354           0
</event>
<event>
      5   9999  3.19816E-02  3.88819E+01 -1.00000E+00  1.45608E-01
      21    -1     0     0   502   501  0.000000000E+00  0.000000000E+00  1.150166775E+02  1.150166775E+02  0.000000000E+00  0.00000E+00  9.000E+00
      21    -1     0     0   501   511  0.000000000E+00  0.000000000E+00 -1.232942700E+03  1.232942700E+03  0.000000000E+00  0.00000E+00  9.000E+00
      25     1     1     2     0     0 -3.757179862E+01  1.301610299E+02 -5.840677578E+02  6.124652475E+02  1.250000000E+02  0.00000E+00  9.000E+00
      25     1     1     2     0     0  5.604812332E+01 -9.594948625E+01  3.032098588E+01  1.699766402E+02  1.250000000E+02  0.00000E+00  9.000E+00
      21     1     1     2   502   511 -1.847632470E+01 -3.421154363E+01 -5.641792511E+02  5.655174902E+02  7.629394531E-06  0.00000E+00  9.000E+00
#rwgt            1           1   3.1572703203908391E-002          10      174391           0
</event>
<event>
      5   9999  3.19816E-02  7.65162E+01 -1.00000E+00  1.29292E-01
       2    -1     0     0   502     0  0.000000000E+00  0.000000000E+00  1.191433210E+03  1.191433210E+03  0.000000000E+00  0.00000E+00  9.000E+00
      21    -1     0     0   501   502  0.000000000E+00  0.000000000E+00 -5.143469569E+01  5.143469569E+01  0.000000000E+00  0.00000E+00  9.000E+00
      25     1     1     2     0     0  1.599108644E+02  4.238986658E+00  5.213181026E+02  5.594524267E+02  1.250000000E+02  0.00000E+00  9.000E+00
      25     1     1     2     0     0 -1.109883184E+02 -6.307194193E+01  2.524508788E+02  3.092780672E+02  1.250000000E+02  0.00000E+00  9.000E+00
       2     1     1     2   501     0 -4.892254599E+01  5.883295527E+01  3.662295333E+02  3.741374122E+02  5.394796609E-06  0.00000E+00  9.000E+00
#rwgt            1           1   2.8255168071082921E-002          10      174516           0
</event>
<event>
      5   9999  3.19816E-02  5.97635E+01 -1.00000E+00  1.34795E-01
       2    -1     0     0   502     0  0.000000000E+00  0.000000000E+00  1.337571168E+03  1.337571168E+03  0.000000000E+00  0.00000E+00  9.000E+00
      21    -1     0     0   501   502  0.000000000E+00  0.000000000E+00 -4.765821299E+02  4.765821299E+02  0.000000000E+00  0.00000E+00  9.000E+00
      25     1     1     2     0     0  6.572908631E+02 -1.125450031E+02  2.162470787E+02  7.120993298E+02  1.250000000E+02  0.00000E+00  9.000E+00
      25     1     1     2     0     0 -6.935235239E+02  1.600725186E+02  3.530094138E+02  8.042628524E+02  1.250000000E+02  0.00000E+00  9.000E+00
       2     1     1     2   501     0  3.623266084E+01 -4.752751552E+01  2.917325458E+02  2.977911160E+02  3.814697266E-06  0.00000E+00  9.000E+00
#rwgt            1           1   2.6949424466946401E-002          10      174589           0
</event>
<event>
      5   9999  3.19816E-02  1.04800E+02 -1.00000E+00  1.22919E-01
      21    -1     0     0   502   501  0.000000000E+00  0.000000000E+00  1.577407374E+02  1.577407374E+02  0.000000000E+00  0.00000E+00  9.000E+00
       2    -1     0     0   501     0  0.000000000E+00  0.000000000E+00 -1.702022246E+03  1.702022246E+03  0.000000000E+00  0.00000E+00  9.000E+00
      25     1     1     2     0     0 -7.798779401E+01  1.799051918E+02  1.610062408E+01  2.330926943E+02  1.250000000E+02  0.00000E+00  9.000E+00
      25     1     1     2     0     0  1.302143154E+02 -8.904635375E+01 -2.959679715E+02  3.579204677E+02  1.250000000E+02  0.00000E+00  9.000E+00
       2     1     1     2   502     0 -5.222652135E+01 -9.085883807E+01 -1.264414162E+03  1.268749822E+03  1.525878906E-05  0.00000E+00  9.000E+00
#rwgt            1           1   2.6560783432813293E-002          10      174693           0
</event>
<event>
      5   9999  3.19816E-02  1.31807E+02 -1.00000E+00  1.18663E-01
      21    -1     0     0   502   511  0.000000000E+00  0.000000000E+00  1.400588274E+02  1.400588274E+02  0.000000000E+00  0.00000E+00  9.000E+00
      21    -1     0     0   501   502  0.000000000E+00  0.000000000E+00 -2.732833801E+03  2.732833801E+03  0.000000000E+00  0.00000E+00  9.000E+00
      25     1     1     2     0     0  5.724641874E+00 -4.906025066E+01 -2.905986083E+02  3.201753127E+02  1.250000000E+02  0.00000E+00  9.000E+00
      25     1     1     2     0     0  4.263760309E+01  1.716737356E+02 -2.386458547E+03  2.396267772E+03  1.250000000E+02  0.00000E+00  9.000E+00
      21     1     1     2   501   511 -4.836224497E+01 -1.226134849E+02  8.428218222E+01  1.564495435E+02  5.223489356E-06  0.00000E+00  9.000E+00
#rwgt            1           1   4.4392090950133786E-002          10      174760           0
</event>
<event>
      5   9999  3.19816E-02  2.78382E+01 -1.00000E+00  1.55331E-01
      21    -1     0     0   502   501  0.000000000E+00  0.000000000E+00  4.293414202E+02  4.293414202E+02  0.000000000E+00  0.00000E+00  9.000E+00
      21    -1     0     0   501   512  0.000000000E+00  0.000000000E+00 -4.225480869E+02  4.225480869E+02  0.000000000E+00  0.00000E+00  9.000E+00
      25     1     1     2     0     0 -1.779736425E+01 -2.093096534E+02 -2.933250059E+02  3.818269716E+02  1.250000000E+02  0.00000E+00  9.000E+00
      25     1     1     2     0     0 -2.602458783E+00  1.903672674E+02  3.472780836E+02  4.152993338E+02  1.250000000E+02  0.00000E+00  9.000E+00
      21     1     1     2   502   512  2.039982303E+01  1.894238604E+01 -4.715974439E+01  5.476320169E+01  6.743495762E-07  0.00000E+00  9.000E+00
#rwgt            1           1   2.8222852371352570E-002          10      174809           0
</event>
<event>
      5   9999  3.19816E-02  6.88961E+01 -1.00000E+00  1.31571E-01
      21    -1     0     0   502   501  0.000000000E+00  0.000000000E+00  1.283765622E+02  1.283765622E+02  0.000000000E+00  0.00000E+00  9.000E+00
      21    -1     0     0   501   511  0.000000000E+00  0.000000000E+00 -1.754051206E+03  1.754051206E+03  0.000000000E+00  0.00000E+00  9.000E+00
      25     1     1     2     0     0  3.919163730E+02  2.240049709E+01 -5.591448638E+02  6.945273245E+02  1.250000000E+02  0.00000E+00  9.000E+00
      25     1     1     2     0     0 -4.355451537E+02  3.092113850E+01 -9.286658365E+02  1.033779925E+03  1.250000000E+02  0.00000E+00  9.000E+00
      21     1     1     2   502   511  4.362878063E+01 -5.332163559E+01 -1.378639433E+02  1.541205184E+02  1.907348633E-06  0.00000E+00  9.000E+00
#rwgt            1           1   3.4234328780811382E-002          10      174930           0
</event>
<event>
      5   9999  3.19816E-02  9.77729E+01 -1.00000E+00  1.24269E-01
      21    -1     0     0   512   501  0.000000000E+00  0.000000000E+00  2.711380713E+03  2.711380713E+03  0.000000000E+00  0.00000E+00  9.000E+00
      21    -1     0     0   501   502  0.000000000E+00  0.000000000E+00 -6.575277378E+02  6.575277378E+02  0.000000000E+00  0.00000E+00  9.000E+00
      25     1     1     2     0     0  3.627966654E+02  1.042050129E+02 -1.708604450E+02  4.327798479E+02  1.250000000E+02  0.00000E+00  9.000E+00
      25     1     1     2     0     0 -4.600704018E+02 -9.433818250E+01 -1.882545167E+02  5.211806120E+02  1.250000000E+02  0.00000E+00  9.000E+00
      21     1     1     2   512   502  9.727373641E+01 -9.866830352E+00  2.412967937E+03  2.414947990E+03  3.051757812E-05  0.00000E+00  9.000E+00
#rwgt            1           1   2.7021104661871898E-002          10      175055           0
</event>
<event>
      5   9999  3.19816E-02  3.21712E+01 -1.00000E+00  1.50962E-01
      21    -1     0     0   502   501  0.000000000E+00  0.000000000E+00  8.709372887E+01  8.709372887E+01  0.000000000E+00  0.00000E+00  9.000E+00
      21    -1     0     0   511   502  0.000000000E+00  0.000000000E+00 -2.157015084E+03  2.157015084E+03  0.000000000E+00  0.00000E+00  9.000E+00
      25     1     1     2     0     0 -2.037261982E+02 -3.092645890E+02 -8.057913674E+02  8.955856618E+02  1.250000000E+02  0.00000E+00  9.000E+00
      25     1     1     2     0     0  1.747066328E+02  2.953774178E+02 -7.583233569E+02  8.416944458E+02  1.250000000E+02  0.00000E+00  9.000E+00
      21     1     1     2   511   501  2.901956540E+01  1.388717126E+01 -5.058066306E+02  5.068287050E+02  5.394796609E-06  0.00000E+00  9.000E+00
#rwgt            1           1   2.8680796141140462E-002          10      175130           0
</event>
<event>
      5   9999  3.19816E-02  5.19881E+02 -1.00000E+00  9.83733E-02
      21    -1     0     0   502   501  0.000000000E+00  0.000000000E+00  6.296275540E+02  6.296275540E+02  0.000000000E+00  0.00000E+00  9.000E+00
      21    -1     0     0   501   512  0.000000000E+00  0.000000000E+00 -1.544932467E+03  1.544932467E+03  0.000000000E+00  0.00000E+00  9.000E+00
      25     1     1     2     0     0  2.731463254E+02 -7.699177293E+01  2.587978256E+02  4.039034077E+02  1.250000000E+02  0.00000E+00  9.000E+00
      25     1     1     2     0     0 -6.910992314E+02  3.861703403E+02 -6.438399414E+02  1.028056686E+03  1.250000000E+02  0.00000E+00  9.000E+00
      21     1     1     2   502   512  4.179529060E+02 -3.091785673E+02 -5.302627970E+02  7.425999273E+02  7.629394531E-06  0.00000E+00  9.000E+00
#rwgt            2          11   1.9491538901918160E-003          10      175263           0
</event>
<event>
      5   9999  3.19816E-02  3.27833E+01 -1.00000E+00  1.50411E-01
      21    -1     0     0   502   501  0.000000000E+00  0.000000000E+00  9.788748840E+02  9.788748840E+02  0.000000000E+00  0.00000E+00  9.000E+00
      21    -1     0     0   511   502  0.000000000E+00  0.000000000E+00 -4.063628781E+02  4.063628781E+02  0.000000000E+00  0.00000E+00  9.000E+00
      25     1     1     2     0     0 -5.504325270E+02  1.430426261E+02  2.658002280E+02  6.400874322E+02  1.250000000E+02  0.00000E+00  9.000E+00
      25     1     1     2     0     0  5.457820018E+02 -1.754943660E+02  3.557286799E+02  6.861808506E+02  1.250000000E+02  0.00000E+00  9.000E+00
      21     1     1     2   511   501  4.650525198E+00  3.245173987E+01 -4.901690206E+01  5.896947934E+01  6.743495762E-07  0.00000E+00  9.000E+00
#rwgt            1           1   3.5392588267658412E-002          10      175283           0
</event>
<event>
      5   9999  3.19816E-02  6.02938E+01 -1.00000E+00  1.34590E-01
      21    -1     0     0   502   501  0.000000000E+00  0.000000000E+00  1.004713980E+03  1.004713980E+03  0.000000000E+00  0.00000E+00  9.000E+00
      21    -1     0     0   501   512  0.000000000E+00  0.000000000E+00 -1.357684755E+02  1.357684755E+02  0.000000000E+00  0.00000E+00  9.000E+00
      25     1     1     2     0     0 -5.040202253E+01 -3.038533632E+02  2.842038557E+02  4.373374690E+02  1.250000000E+02  0.00000E+00  9.000E+00
      25     1     1     2     0     0  1.043883366E+02  2.770052878E+02  5.387989090E+02  6.273421065E+02  1.250000000E+02  0.00000E+00  9.000E+00
      21     1     1     2   502   512 -5.398631409E+01  2.684807539E+01  4.594273941E+01  7.580287966E+01  6.743495762E-07  0.00000E+00  9.000E+00
#rwgt            1           1   2.8122245817385611E-002          10      175454           0
</event>
<event>
      5   9999  3.19816E-02  1.79262E+01 -1.00000E+00  1.70390E-01
      21    -1     0     0   502   511  0.000000000E+00  0.000000000E+00  7.133838041E+02  7.133838041E+02  0.000000000E+00  0.00000E+00  9.000E+00
      21    -1     0     0   501   502  0.000000000E+00  0.000000000E+00 -6.475620947E+02  6.475620947E+02  0.000000000E+00  0.00000E+00  9.000E+00
      25     1     1     2     0     0 -1.268502384E+02 -7.017515610E+01 -5.746035931E+02  6.056482682E+02  1.250000000E+02  0.00000E+00  9.000E+00
      25     1     1     2     0     0  1.130926860E+02  5.868259332E+01  8.172514985E+01  1.963099654E+02  1.250000000E+02  0.00000E+00  9.000E+00
      21     1     1     2   501   511  1.375755240E+01  1.149256278E+01  5.587001527E+02  5.589876652E+02  7.629394531E-06  0.00000E+00  9.000E+00
#rwgt            1           1   2.6042132801617296E-002          10      175570           0
</event>
<event>
      5   9999  3.19816E-02  6.02469E+01 -1.00000E+00  1.34608E-01
      21    -1     0     0   502   512  0.000000000E+00  0.000000000E+00  4.193268811E+02  4.193268811E+02  0.000000000E+00  0.00000E+00  9.000E+00
      21    -1     0     0   501   502  0.000000000E+00  0.000000000E+00 -3.580805989E+02  3.580805989E+02  0.000000000E+00  0.00000E+00  9.000E+00
      25     1     1     2     0     0  2.428144019E+02  1.923900060E+02 -4.182565803E+01  3.366706608E+02  1.250000000E+02  0.00000E+00  9.000E+00
      25     1     1     2     0     0 -2.940132223E+02 -1.606352158E+02  5.120665965E+01  3.612403209E+02  1.250000000E+02  0.00000E+00  9.000E+00
      21     1     1     2   501   512  5.119882038E+01 -3.175479016E+01  5.186528054E+01  7.949649824E+01  9.536743164E-07  0.00000E+00  9.000E+00
#rwgt            1           1   2.9204440171212431E-002          10      175726           0
</event>
<event>
      5   9999  3.19816E-02  3.25632E+02 -1.00000E+00  1.04448E-01
      21    -1     0     0   502   501  0.000000000E+00  0.000000000E+00  8.709422602E+02  8.709422602E+02  0.000000000E+00  0.00000E+00  9.000E+00
      21    -1     0     0   501   511  0.000000000E+00  0.000000000E+00 -8.354279537E+02  8.354279537E+02  0.000000000E+00  0.00000E+00  9.000E+00
      25     1     1     2     0     0 -1.743305916E+02 -4.687240331E+02 -3.158326336E+02  6.045400126E+02  1.250000000E+02  0.00000E+00  9.000E+00
      25     1     1     2     0     0  3.122141227E+02  1.737257183E+02  5.879879221E+02  6.992947020E+02  1.250000000E+02  0.00000E+00  9.000E+00
      21     1     1     2   502   511 -1.378835312E+02  2.949983148E+02 -2.366409821E+02  4.025354994E+02  4.672030912E-06  0.00000E+00  9.000E+00
#rwgt            1           1   2.7664060545659799E-002          10      175790           0
</event>
<event>
      5   9999  3.19816E-02  1.19115E+02 -1.00000E+00  1.20505E-01
      21    -1     0     0   512   501  0.000000000E+00  0.000000000E+00  8.642361937E+02  8.642361937E+02  0.000000000E+00  0.00000E+00  9.000E+00
      21    -1     0     0   501   502  0.000000000E+00  0.000000000E+00 -7.225595825E+02  7.225595825E+02  0.000000000E+00  0.00000E+00  9.000E+00
      25     1     1     2     0     0  1.125776827E+01 -2.724961897E+02  4.831294499E+02  5.687002515E+02  1.250000000E+02  0.00000E+00  9.000E+00
      25     1     1     2     0     0 -1.246459032E+02  3.089854298E+02 -6.201580655E+02  7.150032330E+02  1.250000000E+02  0.00000E+00  9.000E+00
      21     1     1     2   512   502  1.133881350E+02 -3.648924011E+01  2.787052268E+02  3.030922917E+02  6.607249480E-06  0.00000E+00  9.000E+00
#rwgt            2          11   3.6765154918850405E-003          10      175877           0
</event>
<event>
      5   9999  3.19816E-02  7.36457E+01 -1.00000E+00  1.30114E-01
      21    -1     0     0   511   501  0.000000000E+00  0.000000000E+00  2.202648507E+02  2.202648507E+02  0.000000000E+00  0.00000E+00  9.000E+00
      21    -1     0     0   501   502  0.000000000E+00  0.000000000E+00 -3.454208087E+02  3.454208087E+02  0.000000000E+00  0.00000E+00  9.000E+00
      25     1     1     2     0     0 -2.111117195E+02  7.777590766E+01 -1.177044121E+02  2.830133894E+02  1.250000000E+02  0.00000E+00  9.000E+00
      25     1     1     2     0     0  1.387448133E+02 -6.411149422E+01 -4.113912459E+01  2.016874674E+02  1.250000000E+02  0.00000E+00  9.000E+00
      21     1     1     2   511   502  7.236690620E+01 -1.366441344E+01  3.368757868E+01  8.098480268E+01  1.581489940E-06  0.00000E+00  9.000E+00
#rwgt            1           1   2.8108494811515856E-002          10      175897           0
</event>
<event>
      5   9999  3.19816E-02  2.11053E+01 -1.00000E+00  1.64464E-01
      21    -1     0     0   502   512  0.000000000E+00  0.000000000E+00  6.642597768E+01  6.642597768E+01  0.000000000E+00  0.00000E+00  9.000E+00
      21    -1     0     0   501   502  0.000000000E+00  0.000000000E+00 -1.394922812E+03  1.394922812E+03  0.000000000E+00  0.00000E+00  9.000E+00
      25     1     1     2     0     0  1.368540075E+02 -2.077758320E+02 -7.293350334E+02  7.806756091E+02  1.250000000E+02  0.00000E+00  9.000E+00
      25     1     1     2     0     0 -1.547634515E+02  2.189420527E+02 -5.841131269E+02  6.547522381E+02  1.250000000E+02  0.00000E+00  9.000E+00
      21     1     1     2   501   512  1.790944394E+01 -1.116622072E+01 -1.504867416E+01  2.592094253E+01  2.384185791E-07  0.00000E+00  9.000E+00
#rwgt            1           1   3.9166066616839433E-002          10      175979           0
</event>
<event>
      5   9999  3.19816E-02  6.01540E+01 -1.00000E+00  1.34644E-01
      21    -1     0     0   502   511  0.000000000E+00  0.000000000E+00  1.518896707E+02  1.518896707E+02  0.000000000E+00  0.00000E+00  9.000E+00
      21    -1     0     0   501   502  0.000000000E+00  0.000000000E+00 -1.128699089E+03  1.128699089E+03  0.000000000E+00  0.00000E+00  9.000E+00
      25     1     1     2     0     0 -2.452830521E+02 -2.070031067E+02 -7.285678197E+02  8.058846876E+02  1.250000000E+02  0.00000E+00  9.000E+00
      25     1     1     2     0     0  2.621338047E+02  1.492574891E+02 -2.548273040E+02  4.141906379E+02  1.250000000E+02  0.00000E+00  9.000E+00
      21     1     1     2   501   511 -1.685075259E+01  5.774561761E+01  6.585705300E+00  6.051343430E+01  2.920019320E-07  0.00000E+00  9.000E+00
#rwgt            1           1   3.3308991037306633E-002          10      176150           0
</event>
<event>
      5   9999  3.19816E-02  9.96923E+01 -1.00000E+00  1.23888E-01
      21    -1     0     0   502   501  0.000000000E+00  0.000000000E+00  2.368942771E+03  2.368942771E+03  0.000000000E+00  0.00000E+00  9.000E+00
      21    -1     0     0   501   512  0.000000000E+00  0.000000000E+00 -6.724642376E+02  6.724642376E+02  0.000000000E+00  0.00000E+00  9.000E+00
      25     1     1     2     0     0 -1.811090091E+02  4.421646949E+02  1.001147431E+03  1.116347289E+03  1.250000000E+02  0.00000E+00  9.000E+00
      25     1     1     2     0     0  1.558153007E+02 -3.457344674E+02  1.275422209E+03  1.336464568E+03  1.250000000E+02  0.00000E+00  9.000E+00
      21     1     1     2   502   512  2.529370844E+01 -9.643022750E+01 -5.800911068E+02  5.885951518E+02  1.321449896E-05  0.00000E+00  9.000E+00
#rwgt            1           1   3.1049820023302019E-002          10      176236           0
</event>
<event>
      5   9999  3.19816E-02  1.32581E+02 -1.00000E+00  1.18559E-01
      21    -1     0     0   502   501  0.000000000E+00  0.000000000E+00  1.021746865E+02  1.021746865E+02  0.000000000E+00  0.00000E+00  9.000E+00
      21    -1     0     0   501   511  0.000000000E+00  0.000000000E+00 -2.160170129E+03  2.160170129E+03  0.000000000E+00  0.00000E+00  9.000E+00
      25     1     1     2     0     0 -2.506211750E+02  1.430983164E+01 -1.671706059E+02  3.264762719E+02  1.250000000E+02  0.00000E+00  9.000E+00
      25     1     1     2     0     0  1.508662865E+02  7.302038036E+01 -5.483121445E+02  5.868252041E+02  1.250000000E+02  0.00000E+00  9.000E+00
      21     1     1     2   502   511  9.975488853E+01 -8.733021200E+01 -1.342512692E+03  1.349043340E+03  1.525878906E-05  0.00000E+00  9.000E+00
#rwgt            1           1   2.5936927982565722E-002          10      176393           0
</event>
<event>
      5   9999  3.19816E-02  4.76866E+01 -1.00000E+00  1.40260E-01
      21    -1     0     0   502   501  0.000000000E+00  0.000000000E+00  1.871587582E+03  1.871587582E+03  0.000000000E+00  0.00000E+00  9.000E+00
      -1    -1     0     0     0   502  0.000000000E+00  0.000000000E+00 -1.617177687E+03  1.617177687E+03  0.000000000E+00  0.00000E+00  9.000E+00
      25     1     1     2     0     0 -1.783519662E+02 -4.790159916E+02  4.624440888E+02  7.005321401E+02  1.250000000E+02  0.00000E+00  9.000E+00
      25     1     1     2     0     0  1.345625352E+02  4.978971016E+02  1.235113030E+03  1.344298254E+03  1.250000000E+02  0.00000E+00  9.000E+00
      -1     1     1     2     0   501  4.378943091E+01 -1.888111002E+01 -1.443147224E+03  1.443934874E+03  0.000000000E+00  0.00000E+00  9.000E+00
#rwgt            1           1   2.7031098990734009E-002          10      176431           0
</event>
<event>
      5   9999  3.19816E-02  8.61591E+01 -1.00000E+00  1.26810E-01
      21    -1     0     0   511   501  0.000000000E+00  0.000000000E+00  2.574641383E+03  2.574641383E+03  0.000000000E+00  0.00000E+00  9.000E+00
      21    -1     0     0   501   502  0.000000000E+00  0.000000000E+00 -1.983705171E+02  1.983705171E+02  0.000000000E+00  0.00000E+00  9.000E+00
      25     1     1     2     0     0 -2.974426686E+01 -1.646503162E+02 -2.210817082E+01  2.100195688E+02  1.250000000E+02  0.00000E+00  9.000E+00
      25     1     1     2     0     0  7.530838943E+01  9.152502814E+01  9.458454174E+00  1.725185400E+02  1.250000000E+02  0.00000E+00  9.000E+00
      21     1     1     2   511   502 -4.556412258E+01  7.312528810E+01  2.388920583E+03  2.390473791E+03  3.051757812E-05  0.00000E+00  9.000E+00
#rwgt            1           1   3.0568924984083309E-002          10      176576           0
</event>
<event>
      5   9999  3.19816E-02  6.75193E+00 -1.00000E+00  2.17792E-01
      21    -1     0     0   502   501  0.000000000E+00  0.000000000E+00  6.381946898E+02  6.381946898E+02  0.000000000E+00  0.00000E+00  9.000E+00
      21    -1     0     0   501   512  0.000000000E+00  0.000000000E+00 -7.737944178E+02  7.737944178E+02  0.000000000E+00  0.00000E+00  9.000E+00
      25     1     1     2     0     0 -3.967544450E+02 -3.980124222E+02 -3.159239992E+02  6.567046148E+02  1.250000000E+02  0.00000E+00  9.000E+00
      25     1     1     2     0     0  3.945446151E+02  3.916323606E+02  2.941618369E+02  6.412468678E+02  1.250000000E+02  0.00000E+00  9.000E+00
      21     1     1     2   502   512  2.209829859E+00  6.380061563E+00 -1.138375658E+02  1.140376250E+02  0.000000000E+00  0.00000E+00  9.000E+00
#rwgt            1           1   3.2225530630671712E-002          10      176632           0
</event>
<event>
      5   9999  3.19816E-02  2.70416E+01 -1.00000E+00  1.56239E-01
      21    -1     0     0   502   501  0.000000000E+00  0.000000000E+00  1.090511421E+03  1.090511421E+03  0.000000000E+00  0.00000E+00  9.000E+00
      21    -1     0     0   501   511  0.000000000E+00  0.000000000E+00 -4.150686030E+02  4.150686030E+02  0.000000000E+00  0.00000E+00  9.000E+00
      25     1     1     2     0     0 -3.660585614E+02  2.070095196E+02  9.014703572E+02  1.002559533E+03  1.250000000E+02  0.00000E+00  9.000E+00
      25     1     1     2     0     0  3.391285499E+02 -2.045556195E+02 -2.314476763E+02  4.754410602E+02  1.250000000E+02  0.00000E+00  9.000E+00
      21     1     1     2   502   511  2.693001147E+01 -2.453900070E+00  5.420137275E+00  2.757943131E+01  3.097148194E-07  0.00000E+00  9.000E+00
#rwgt            1           1   3.0567565372597048E-002          10      177000           0
</event>
<event>
      5   9999  3.19816E-02  8.21172E+01 -1.00000E+00  1.27803E-01
       2    -1     0     0   502     0  0.000000000E+00  0.000000000E+00  7.750009973E+02  7.750009973E+02  0.000000000E+00  0.00000E+00  9.000E+00
      21    -1     0     0   501   502  0.000000000E+00  0.000000000E+00 -1.858375337E+02  1.858375337E+02  0.000000000E+00  0.00000E+00  9.000E+00
      25     1     1     2     0     0 -3.371817570E+01  1.913607168E+02  9.768153824E+01  2.508436210E+02  1.250000000E+02  0.00000E+00  9.000E+00
      25     1     1     2     0     0 -3.140367934E+01 -2.413844174E+02  7.255188301E+01  2.830925710E+02  1.250000000E+02  0.00000E+00  9.000E+00
       2     1     1     2   501     0  6.512185504E+01  5.002370063E+01  4.189300423E+02  4.269023390E+02  5.394796609E-06  0.00000E+00  9.000E+00
#rwgt            1           1   2.5881110824703426E-002          10      177167           0
</event>
<event>
      5   9999  3.19816E-02  9.84429E+01 -1.00000E+00  1.24135E-01
      21    -1     0     0   502   511  0.000000000E+00  0.000000000E+00  9.816171301E+02  9.816171301E+02  0.000000000E+00  0.00000E+00  9.000E+00
      21    -1     0     0   501   502  0.000000000E+00  0.000000000E+00 -3.928639027E+02  3.928639027E+02  0.000000000E+00  0.00000E+00  9.000E+00
      25     1     1     2     0     0  3.791332093E+02  3.693174815E+01 -7.284996042E+01  4.074776818E+02  1.250000000E+02  0.00000E+00  9.000E+00
      25     1     1     2     0     0 -3.813692283E+02  6.148579020E+01  1.299366424E+02  4.262998026E+02  1.250000000E+02  0.00000E+00  9.000E+00
      21     1     1     2   501   511  2.236018984E+00 -9.841753834E+01  5.316665455E+02  5.407035483E+02  7.629394531E-06  0.00000E+00  9.000E+00
#rwgt            1           1   2.4359346050218552E-002          10      177250           0
</event>
<event>
      5   9999  3.19816E-02  2.56846E+02 -1.00000E+00  1.07831E-01
      21    -1     0     0   512   501  0.000000000E+00  0.000000000E+00  1.937068538E+03  1.937068538E+03  0.000000000E+00  0.00000E+00  9.000E+00
      21    -1     0     0   501   502  0.000000000E+00  0.000000000E+00 -4.177408690E+02  4.177408690E+02  0.000000000E+00  0.00000E+00  9.000E+00
      25     1     1     2     0     0 -6.559275619E+01 -4.190100121E+02  5.224657426E+01  4.452263519E+02  1.250000000E+02  0.00000E+00  9.000E+00
      25     1     1     2     0     0 -1.154789230E+02  2.368482866E+02 -1.100169411E+02  3.117069454E+02  1.250000000E+02  0.00000E+00  9.000E+00
      21     1     1     2   512   502  1.810716792E+02  1.821617256E+02  1.577098035E+03  1.597876109E+03  2.157918644E-05  0.00000E+00  9.000E+00
#rwgt            2          11   2.1587866171910493E-003          10      177386           0
</event>
<event>
      5   9999  3.19816E-02  8.65583E+01 -1.00000E+00  1.26715E-01
      -4    -1     0     0     0   501  0.000000000E+00  0.000000000E+00  6.716262732E+02  6.716262732E+02  0.000000000E+00  0.00000E+00  9.000E+00
      21    -1     0     0   501   502  0.000000000E+00  0.000000000E+00 -3.951018064E+02  3.951018064E+02  0.000000000E+00  0.00000E+00  9.000E+00
      25     1     1     2     0     0 -2.798102137E+02 -2.484825873E+02  3.279369528E+02  5.130350835E+02  1.250000000E+02  0.00000E+00  9.000E+00
      25     1     1     2     0     0  3.658570280E+02  2.578784475E+02 -4.221069513E+01  4.666469773E+02  1.250000000E+02  0.00000E+00  9.000E+00
      -4     1     1     2     0   502 -8.604681431E+01 -9.395860273E+00 -9.201790883E+00  8.704601885E+01  1.018524616E-06  0.00000E+00  9.000E+00
#rwgt            1           1   2.7654518164871689E-002          10      177406           0
</event>
<event>
      5   9999  3.19816E-02  3.61305E+01 -1.00000E+00  1.47635E-01
      21    -1     0     0   502   501  0.000000000E+00  0.000000000E+00  8.598839977E+01  8.598839977E+01  0.000000000E+00  0.00000E+00  9.000E+00
      21    -1     0     0   501   511  0.000000000E+00  0.000000000E+00 -5.652910473E+02  5.652910473E+02  0.000000000E+00  0.00000E+00  9.000E+00
      25     1     1     2     0     0 -7.740464919E+01 -1.167895012E+02 -3.421423852E+02  3.902789759E+02  1.250000000E+02  0.00000E+00  9.000E+00
      25     1     1     2     0     0  4.482043802E+01  1.011791548E+02 -6.287341497E+01  1.783932715E+02  1.250000000E+02  0.00000E+00  9.000E+00
      21     1     1     2   502   511  3.258421117E+01  1.561034642E+01 -7.428684734E+01  8.260719957E+01  1.348699152E-06  0.00000E+00  9.000E+00
#rwgt            1           1   2.4272637296185298E-002          10      177502           0
</event>
<event>
      5   9999  3.19816E-02  1.79305E+01 -1.00000E+00  1.70381E-01
       2    -1     0     0   502     0  0.000000000E+00  0.000000000E+00  1.681366714E+03  1.681366714E+03  0.000000000E+00  0.00000E+00  9.000E+00
      21    -1     0     0   501   502  0.000000000E+00  0.000000000E+00 -1.385018609E+03  1.385018609E+03  0.000000000E+00  0.00000E+00  9.000E+00
      25     1     1     2     0     0  3.475776614E+02 -3.351595689E+02 -3.927728160E+02  6.348524651E+02  1.250000000E+02  0.00000E+00  9.000E+00
      25     1     1     2     0     0 -3.349582097E+02  3.224217469E+02 -8.046374379E+02  9.376668873E+02  1.250000000E+02  0.00000E+00  9.000E+00
       2     1     1     2   501     0 -1.261945180E+01  1.273782203E+01  1.493758359E+03  1.493865971E+03  2.157918644E-05  0.00000E+00  9.000E+00
#rwgt            1           1   3.4676203605178466E-002          10      177693           0
</event>
<event>
      5   9999  3.19816E-02  1.44819E+02 -1.00000E+00  1.17002E-01
      21    -1     0     0   511   501  0.000000000E+00  0.000000000E+00  4.598771640E+02  4.598771640E+02  0.000000000E+00  0.00000E+00  9.000E+00
      21    -1     0     0   501   502  0.000000000E+00  0.000000000E+00 -2.317475777E+02  2.317475777E+02  0.000000000E+00  0.00000E+00  9.000E+00
      25     1     1     2     0     0 -5.364051893E+01 -1.915903135E+02  1.001023288E+01  2.351794172E+02  1.250000000E+02  0.00000E+00  9.000E+00
      25     1     1     2     0     0 -9.063377350E+01  2.041389668E+02  1.326280456E+02  2.882748639E+02  1.250000000E+02  0.00000E+00  9.000E+00
      21     1     1     2   511   502  1.442742924E+02 -1.254865322E+01  8.549130778E+01  1.681704607E+02  9.536743164E-07  0.00000E+00  9.000E+00
#rwgt            1           1   2.8382880382509745E-002          10      177925           0
</event>
<event>
      5   9999  3.19816E-02  1.33847E+02 -1.00000E+00  1.18389E-01
      21    -1     0     0   502   512  0.000000000E+00  0.000000000E+00  6.486690112E+02  6.486690112E+02  0.000000000E+00  0.00000E+00  9.000E+00
      21    -1     0     0   501   502  0.000000000E+00  0.000000000E+00 -1.826396877E+03  1.826396877E+03  0.000000000E+00  0.00000E+00  9.000E+00
      25     1     1     2     0     0 -8.212170897E+02  5.689633522E+02 -8.719373338E+02  1.331922114E+03  1.250000000E+02  0.00000E+00  9.000E+00
      25     1     1     2     0     0  8.522762458E+02 -4.387693970E+02 -2.530128779E+02  9.992666808E+02  1.250000000E+02  0.00000E+00  9.000E+00
      21     1     1     2   501   512 -3.105915609E+01 -1.301939551E+02 -5.277765411E+01  1.438770930E+02  2.697398305E-06  0.00000E+00  9.000E+00
#rwgt            1           1   2.7471001567684655E-002          10      177986           0
</event>
<event>
      5   9999  3.19816E-02  1.03883E+02 -1.00000E+00  1.23088E-01
      21    -1     0     0   502   501  0.000000000E+00  0.000000000E+00  1.445889023E+03  1.445889023E+03  0.000000000E+00  0.00000E+00  9.000E+00
      21    -1     0     0   511   502  0.000000000E+00  0.000000000E+00 -6.818158728E+01  6.818158728E+01  0.000000000E+00  0.00000E+00  9.000E+00
      25     1     1     2     0     0  9.703668325E+01 -1.595031652E+02  5.313153592E+02  5.768694727E+02  1.250000000E+02  0.00000E+00  9.000E+00
      25     1     1     2     0     0 -4.823377944E+01  2.512094951E+02  7.157138421E+02  7.702623006E+02  1.250000000E+02  0.00000E+00  9.000E+00
      21     1     1     2   511   501 -4.880290381E+01 -9.170632993E+01  1.306782347E+02  1.669388373E+02  0.000000000E+00  0.00000E+00  9.000E+00
#rwgt            1           1   3.7120649465967701E-002          10      178018           0
</event>
<event>
      5   9999  3.19816E-02  6.47297E+01 -1.00000E+00  1.32966E-01
      21    -1     0     0   502   501  0.000000000E+00  0.000000000E+00  1.851289897E+03  1.851289897E+03  0.000000000E+00  0.00000E+00  9.000E+00
      21    -1     0     0   512   502  0.000000000E+00  0.000000000E+00 -1.104079910E+02  1.104079910E+02  0.000000000E+00  0.00000E+00  9.000E+00
      25     1     1     2     0     0  3.581273827E+02  6.825354698E+01  5.537949215E+02  6.747055536E+02  1.250000000E+02  0.00000E+00  9.000E+00
      25     1     1     2     0     0 -3.029901151E+02 -3.434462729E+01  1.176020103E+03  1.221323400E+03  1.250000000E+02  0.00000E+00  9.000E+00
      21     1     1     2   512   501 -5.513726762E+01 -3.390891969E+01  1.106688107E+01  6.566893461E+01  1.316709640E-06  0.00000E+00  9.000E+00
#rwgt            1           1   3.5377540978493015E-002          10      178083           0
</event>
<event>
      5   9999  3.19816E-02  7.60559E+01 -1.00000E+00  1.29421E-01
      21    -1     0     0   502   501  0.000000000E+00  0.000000000E+00  1.014891525E+03  1.014891525E+03  0.000000000E+00  0.00000E+00  9.000E+00
      21    -1     0     0   511   502  0.000000000E+00  0.000000000E+00 -8.385366301E+02  8.385366301E+02  0.000000000E+00  0.00000E+00  9.000E+00
      25     1     1     2     0     0  8.310504719E+02 -9.186336752E+01 -2.527242860E+02  8.823708573E+02  1.250000000E+02  0.00000E+00  9.000E+00
      25     1     1     2     0     0 -7.606766007E+02  6.301864279E+01  4.464366630E+02  8.930458746E+02  1.250000000E+02  0.00000E+00  9.000E+00
      21     1     1     2   511   501 -7.037387119E+01  2.884472473E+01 -1.735748250E+01  7.801142282E+01  4.129530925E-07  0.00000E+00  9.000E+00
#rwgt            1           1   2.2432867900860326E-002          10      178160           0
</event>
<event>
      5   9999  3.19816E-02  8.00253E+01 -1.00000E+00  1.28343E-01
      21    -1     0     0   502   501  0.000000000E+00  0.000000000E+00  2.597673058E+02  2.597673058E+02  0.000000000E+00  0.00000E+00  9.000E+00
      21    -1     0     0   512   502  0.000000000E+00  0.000000000E+00 -1.023383884E+03  1.023383884E+03  0.000000000E+00  0.00000E+00  9.000E+00
      25     1     1     2     0     0  2.202125904E+02  2.709377382E+01  1.733231976E+02  3.080480293E+02  1.250000000E+02  0.00000E+00  9.000E+00
      25     1     1     2     0     0 -1.413369719E+02 -1.357775279E+01 -6.200484153E+02  6.482634745E+02  1.250000000E+02  0.00000E+00  9.000E+00
      21     1     1     2   512   501 -7.887561852E+01 -1.351602103E+01 -3.168913609E+02  3.268396865E+02  5.394796609E-06  0.00000E+00  9.000E+00
#rwgt            1           1   2.8899035926348203E-002          10      178288           0
</event>
<event>
      5   9999  3.19816E-02  1.89793E+01 -1.00000E+00  1.68268E-01
      21    -1     0     0   502   501  0.000000000E+00  0.000000000E+00  5.839422083E+02  5.839422083E+02  0.000000000E+00  0.00000E+00  9.000E+00
      21    -1     0     0   511   502  0.000000000E+00  0.000000000E+00 -2.898484211E+02  2.898484211E+02  0.000000000E+00  0.00000E+00  9.000E+00
      25     1     1     2     0     0 -2.657235526E+02  2.384213571E+02 -1.015836821E+01  3.783938984E+02  1.250000000E+02  0.00000E+00  9.000E+00
      25     1     1     2     0     0  2.490068949E+02 -2.294344003E+02  3.097682266E+02  4.756321393E+02  1.250000000E+02  0.00000E+00  9.000E+00
      21     1     1     2   511   501  1.671665770E+01 -8.986956815E+00 -5.516071230E+00  1.976459156E+01  2.064765462E-07  0.00000E+00  9.000E+00
#rwgt            1           1   2.8203264674387853E-002          10      178403           0
</event>
<event>
      5   9999  3.19816E-02  1.68617E+01 -1.00000E+00  1.72727E-01
      21    -1     0     0   502   501  0.000000000E+00  0.000000000E+00  3.244331814E+02  3.244331814E+02  0.000000000E+00  0.00000E+00  9.000E+00
      21    -1     0     0   501   512  0.000000000E+00  0.000000000E+00 -4.882042989E+02  4.882042989E+02  0.000000000E+00  0.00000E+00  9.000E+00
      25     1     1     2     0     0 -2.233340238E+02  1.696846794E+02 -3.138984179E+02  4.391220711E+02  1.250000000E+02  0.00000E+00  9.000E+00
      25     1     1     2     0     0  2.109077108E+02 -1.810822354E+02  1.687540528E+02  3.483902536E+02  1.250000000E+02  0.00000E+00  9.000E+00
      21     1     1     2   502   512  1.242631295E+01  1.139755596E+01 -1.862675239E+01  2.512515552E+01  0.000000000E+00  0.00000E+00  9.000E+00
#rwgt            1           1   2.8505379242057712E-002          10      178515           0
</event>
<event>
      5   9999  3.19816E-02  5.60877E+01 -1.00000E+00  1.36287E-01
      21    -1     0     0   511   501  0.000000000E+00  0.000000000E+00  3.800706953E+02  3.800706953E+02  0.000000000E+00  0.00000E+00  9.000E+00
      21    -1     0     0   501   502  0.000000000E+00  0.000000000E+00 -3.796397797E+02  3.796397797E+02  0.000000000E+00  0.00000E+00  9.000E+00
      25     1     1     2     0     0 -2.077318944E+01 -1.005086496E+02 -3.080145187E+02  3.478957570E+02  1.250000000E+02  0.00000E+00  9.000E+00
      25     1     1     2     0     0 -9.101427687E+00  5.303931641E+01  4.632430837E+01  1.437600314E+02  1.250000000E+02  0.00000E+00  9.000E+00
      21     1     1     2   511   502  2.987461713E+01  4.746933319E+01  2.621211259E+02  2.680546866E+02  3.814697266E-06  0.00000E+00  9.000E+00
#rwgt            1           1   2.6471571447043776E-002          10      178713           0
</event>
<event>
      5   9999  3.19816E-02  1.40010E+01 -1.00000E+00  1.80250E-01
      21    -1     0     0   512   501  0.000000000E+00  0.000000000E+00  1.417594098E+03  1.417594098E+03  0.000000000E+00  0.00000E+00  9.000E+00
      21    -1     0     0   501   502  0.000000000E+00  0.000000000E+00 -4.782761503E+01  4.782761503E+01  0.000000000E+00  0.00000E+00  9.000E+00
      25     1     1     2     0     0  2.384584701E+01 -8.631438861E+01  4.373471502E+02  4.635906900E+02  1.250000000E+02  0.00000E+00  9.000E+00
      25     1     1     2     0     0 -3.716601803E+01  8.200133902E+01  1.366000181E+02  2.058885559E+02  1.250000000E+02  0.00000E+00  9.000E+00
      21     1     1     2   512   502  1.332017102E+01  4.313049586E+00  7.958193148E+02  7.959424673E+02  1.078959322E-05  0.00000E+00  9.000E+00
#rwgt            1           1   3.1494000461426253E-002          10      178794           0
</event>
<event>
      5   9999  3.19816E-02  3.77959E+01 -1.00000E+00  1.46383E-01
      21    -1     0     0   502   501  0.000000000E+00  0.000000000E+00  4.559427415E+01  4.559427415E+01  0.000000000E+00  0.00000E+00  9.000E+00
       2    -1     0     0   501     0  0.000000000E+00  0.000000000E+00 -1.760678353E+03  1.760678353E+03  0.000000000E+00  0.00000E+00  9.000E+00
      25     1     1     2     0     0  7.699738255E+01 -9.780426633E+01 -2.878845956E+02  3.376341390E+02  1.250000000E+02  0.00000E+00  9.000E+00
      25     1     1     2     0     0 -6.578618838E+01  1.338991207E+02 -4.448833729E+02  4.855955236E+02  1.250000000E+02  0.00000E+00  9.000E+00
       2     1     1     2   502     0 -1.121119417E+01 -3.609485437E+01 -9.823161108E+02  9.830429649E+02  1.868812365E-05  0.00000E+00  9.000E+00
#rwgt            1           1   2.8915507263250335E-002          10      178948           0
</event>
<event>
      5   9999  3.19816E-02  5.86099E+01 -1.00000E+00  1.35250E-01
      21    -1     0     0   502   501  0.000000000E+00  0.000000000E+00  2.542697058E+02  2.542697058E+02  0.000000000E+00  0.00000E+00  9.000E+00
      21    -1     0     0   501   511  0.000000000E+00  0.000000000E+00 -1.974682892E+02  1.974682892E+02  0.000000000E+00  0.00000E+00  9.000E+00
      25     1     1     2     0     0  5.214314971E+01 -9.531067926E+00  1.415710047E+02  1.961558021E+02  1.250000000E+02  0.00000E+00  9.000E+00
      25     1     1     2     0     0 -9.929770494E+01  4.433862915E+01 -1.787614088E+01  1.666448459E+02  1.250000000E+02  0.00000E+00  9.000E+00
      21     1     1     2   502   511  4.715455523E+01 -3.480756123E+01 -6.689344730E+01  8.893734699E+01  1.651812370E-06  0.00000E+00  9.000E+00
#rwgt            1           1   3.5998958889220105E-002          10      179005           0
</event>
<event>
      5   9999  3.19816E-02  4.93715E+01 -1.00000E+00  1.39390E-01
      21    -1     0     0   502   501  0.000000000E+00  0.000000000E+00  1.203729379E+03  1.203729379E+03  0.000000000E+00  0.00000E+00  9.000E+00
      21    -1     0     0   512   502  0.000000000E+00  0.000000000E+00 -2.100557921E+02  2.100557921E+02  0.000000000E+00  0.00000E+00  9.000E+00
      25     1     1     2     0     0 -1.717830164E+02  1.279729309E+02 -3.965235268E+01  2.511648559E+02  1.250000000E+02  0.00000E+00  9.000E+00
      25     1     1     2     0     0  1.452963248E+02 -8.630761242E+01  1.076624129E+03  1.096952387E+03  1.250000000E+02  0.00000E+00  9.000E+00
      21     1     1     2   512   501  2.648669162E+01 -4.166531852E+01 -4.329818884E+01  6.566792792E+01  9.536743164E-07  0.00000E+00  9.000E+00
#rwgt            1           1   2.7610114772056493E-002          10      179101           0
</event>
<event>
      5   9999  3.19816E-02  7.56856E+01 -1.00000E+00  1.29526E-01
      21    -1     0     0   502   501  0.000000000E+00  0.000000000E+00  4.927098516E+02  4.927098516E+02  0.000000000E+00  0.00000E+00  9.000E+00
      21    -1     0     0   511   502  0.000000000E+00  0.000000000E+00 -1.021760316E+03  1.021760316E+03  0.000000000E+00  0.00000E+00  9.000E+00
      25     1     1     2     0     0 -5.072473528E+02  2.430180190E+02 -1.661769584E+01  5.764189295E+02  1.250000000E+02  0.00000E+00  9.000E+00
      25     1     1     2     0     0  4.366262716E+02 -2.702389505E+02 -1.246963779E+02  5.429970332E+02  1.250000000E+02  0.00000E+00  9.000E+00
      21     1     1     2   511   501  7.062108121E+01  2.722093142E+01 -3.877363908E+02  3.950542051E+02  5.394796609E-06  0.00000E+00  9.000E+00
#rwgt            1           1   2.2386893462867648E-002          10      179300           0
</event>
<event>
      5   9999  3.19816E-02  2.83015E+01 -1.00000E+00  1.54819E-01
      21    -1     0     0   502   501  0.000000000E+00  0.000000000E+00  4.110269296E+01  4.110269296E+01  0.000000000E+00  0.00000E+00  9.000E+00
       1    -1     0     0   501     0  0.000000000E+00  0.000000000E+00 -1.441562235E+03  1.441562235E+03  0.000000000E+00  0.00000E+00  9.000E+00
      25     1     1     2     0     0  9.359821345E+01  4.047315111E+01 -1.588104047E+02  2.263723617E+02  1.250000000E+02  0.00000E+00  9.000E+00
      25     1     1     2     0     0 -7.041828644E+01 -5.671095131E+01 -1.151955503E+03  1.162239798E+03  1.250000000E+02  0.00000E+00  9.000E+00
       1     1     1     2   502     0 -2.317992701E+01  1.623780020E+01 -8.969363429E+01  9.405276818E+01  1.907348633E-06  0.00000E+00  9.000E+00
#rwgt            1           1   3.1609666158425503E-002          10      179398           0
</event>
<event>
      5   9999  3.19816E-02  2.03329E+01 -1.00000E+00  1.65780E-01
      21    -1     0     0   511   501  0.000000000E+00  0.000000000E+00  1.712284037E+02  1.712284037E+02  0.000000000E+00  0.00000E+00  9.000E+00
      21    -1     0     0   501   502  0.000000000E+00  0.000000000E+00 -5.752109098E+02  5.752109098E+02  0.000000000E+00  0.00000E+00  9.000E+00
      25     1     1     2     0     0 -8.828367483E+01  2.161023379E+02 -6.991767837E+01  2.738753538E+02  1.250000000E+02  0.00000E+00  9.000E+00
      25     1     1     2     0     0  1.060363906E+02 -2.260152880E+02 -3.492893681E+02  4.471629336E+02  1.250000000E+02  0.00000E+00  9.000E+00
      21     1     1     2   511   502 -1.775271582E+01  9.912950068E+00  1.522454038E+01  2.540102611E+01  4.768371582E-07  0.00000E+00  9.000E+00
#rwgt            1           1   2.9444792476922339E-002          10      179496           0
</event>
<event>
      5   9999  3.19816E-02  2.26356E+01 -1.00000E+00  1.62052E-01
      21    -1     0     0   502   501  0.000000000E+00  0.000000000E+00  1.204253602E+02  1.204253602E+02  0.000000000E+00  0.00000E+00  9.000E+00
      21    -1     0     0   512   502  0.000000000E+00  0.000000000E+00 -5.818908384E+02  5.818908384E+02  0.000000000E+00  0.00000E+00  9.000E+00
      25     1     1     2     0     0  1.302466860E+02  7.201829058E+01 -2.942125684E+02  3.526143344E+02  1.250000000E+02  0.00000E+00  9.000E+00
      25     1     1     2     0     0 -1.504791557E+02 -6.186847587E+01 -2.619600204E+01  2.068403131E+02  1.250000000E+02  0.00000E+00  9.000E+00
      21     1     1     2   512   501  2.023246967E+01 -1.014981471E+01 -1.410569077E+02  1.428615511E+02  1.907348633E-06  0.00000E+00  9.000E+00
#rwgt            1           1   2.6503092450119278E-002          10      179642           0
</event>
<event>
      5   9999  3.19816E-02  1.93982E+01 -1.00000E+00  1.67471E-01
      21    -1     0     0   502   501  0.000000000E+00  0.000000000E+00  7.994927308E+02  7.994927308E+02  0.000000000E+00  0.00000E+00  9.000E+00
      21    -1     0     0   511   502  0.000000000E+00  0.000000000E+00 -2.843006769E+02  2.843006769E+02  0.000000000E+00  0.00000E+00  9.000E+00
      25     1     1     2     0     0 -7.810281424E+01  4.028156568E+01 -1.414465272E+01  1.534526811E+02  1.250000000E+02  0.00000E+00  9.000E+00
      25     1     1     2     0     0  5.924171592E+01 -3.574823886E+01  7.223557707E+02  7.363493579E+02  1.250000000E+02  0.00000E+00  9.000E+00
      21     1     1     2   511   501  1.886109832E+01 -4.533326818E+00 -1.930190640E+02  1.939913687E+02  2.697398305E-06  0.00000E+00  9.000E+00
#rwgt            1           1   2.4551713884526351E-002          10      179787           0
</event>
<event>
      5   9999  3.19816E-02  2.44795E+01 -1.00000E+00  1.59438E-01
      21    -1     0     0   502   501  0.000000000E+00  0.000000000E+00  9.814626833E+02  9.814626833E+02  0.000000000E+00  0.00000E+00  9.000E+00
       4    -1     0     0   501     0  0.000000000E+00  0.000000000E+00 -9.754238223E+01  9.754238223E+01  0.000000000E+00  0.00000E+00  9.000E+00
      25     1     1     2     0     0 -9.131136959E+01  1.138605470E+02  4.824729993E+02  5.193334048E+02  1.250000000E+02  0.00000E+00  9.000E+00
      25     1     1     2     0     0  1.066338965E+02 -1.329515415E+02  4.545016638E+02  5.012421198E+02  1.250000000E+02  0.00000E+00  9.000E+00
       4     1     1     2   502     0 -1.532252693E+01  1.909099458E+01 -5.305436206E+01  5.842954081E+01  1.168007728E-06  0.00000E+00  9.000E+00
#rwgt            1           1   2.9286733344830833E-002          10      179881           0
</event>
<event>
      5   9999  3.19816E-02  4.48526E+01 -1.00000E+00  1.41822E-01
      21    -1     0     0   502   501  0.000000000E+00  0.000000000E+00  1.886305091E+02  1.886305091E+02  0.000000000E+00  0.00000E+00  9.000E+00
      21    -1     0     0   511   502  0.000000000E+00  0.000000000E+00 -1.326880057E+03  1.326880057E+03  0.000000000E+00  0.00000E+00  9.000E+00
      25     1     1     2     0     0 -1.867942344E+01  3.649647577E+02 -1.344471590E+02  4.089611641E+02  1.250000000E+02  0.00000E+00  9.000E+00
      25     1     1     2     0     0 -7.210451097E+00 -4.015907891E+02 -9.149377652E+02  1.007007084E+03  1.250000000E+02  0.00000E+00  9.000E+00
      21     1     1     2   511   501  2.588987454E+01  3.662603144E+01 -8.886462418E+01  9.954231871E+01  1.348699152E-06  0.00000E+00  9.000E+00
#rwgt            1           1   3.0715145333563926E-002          10      180042           0
</event>
<event>
      5   9999  3.19816E-02  6.37109E+01 -1.00000E+00  1.33325E-01
      21    -1     0     0   502   512  0.000000000E+00  0.000000000E+00  2.281630863E+02  2.281630863E+02  0.000000000E+00  0.00000E+00  9.000E+00
      21    -1     0     0   501   502  0.000000000E+00  0.000000000E+00 -3.423329436E+03  3.423329436E+03  0.000000000E+00  0.00000E+00  9.000E+00
      25     1     1     2     0     0  7.248720836E+02  3.901954295E+02 -2.078510603E+03  2.239089846E+03  1.250000000E+02  0.00000E+00  9.000E+00
      25     1     1     2     0     0 -6.663818016E+02 -4.154533567E+02 -1.071476128E+03  1.334298426E+03  1.250000000E+02  0.00000E+00  9.000E+00
      21     1     1     2   501   512 -5.849028197E+01  2.525792720E+01 -4.517961855E+01  7.810425023E+01  9.536743164E-07  0.00000E+00  9.000E+00
#rwgt            1           1   4.8420833832574874E-002          10      180181           0
</event>
<event>
      5   9999  3.19816E-02  1.06195E+02 -1.00000E+00  1.22665E-01
      21    -1     0     0   511   501  0.000000000E+00  0.000000000E+00  7.104450595E+02  7.104450595E+02  0.000000000E+00  0.00000E+00  9.000E+00
      21    -1     0     0   501   502  0.000000000E+00  0.000000000E+00 -7.907987269E+02  7.907987269E+02  0.000000000E+00  0.00000E+00  9.000E+00
      25     1     1     2     0     0  3.232168693E+02  1.036329444E+02 -2.248163150E+01  3.624077200E+02  1.250000000E+02  0.00000E+00  9.000E+00
      25     1     1     2     0     0 -2.830475893E+02 -5.328751485E+00 -5.523221498E+02  6.331106464E+02  1.250000000E+02  0.00000E+00  9.000E+00
      21     1     1     2   511   502 -4.016928001E+01 -9.830419287E+01  4.944501139E+02  5.057254201E+02  0.000000000E+00  0.00000E+00  9.000E+00
#rwgt            1           1   3.0019185087642255E-002          10      180283           0
</event>
<event>
      5   9999  3.19816E-02  8.99639E+01 -1.00000E+00  1.25930E-01
      21    -1     0     0   502   501  0.000000000E+00  0.000000000E+00  1.855009948E+03  1.855009948E+03  0.000000000E+00  0.00000E+00  9.000E+00
      21    -1     0     0   512   502  0.000000000E+00  0.000000000E+00 -3.849448793E+02  3.849448793E+02  0.000000000E+00  0.00000E+00  9.000E+00
      25     1     1     2     0     0 -6.803553301E+02  2.592896488E+02  4.173354975E+02  8.484741685E+02  1.250000000E+02  0.00000E+00  9.000E+00
      25     1     1     2     0     0  6.136434802E+02 -3.196471714E+02  1.087529626E+03  1.295020588E+03  1.250000000E+02  0.00000E+00  9.000E+00
      21     1     1     2   512   501  6.671184985E+01  6.035752260E+01 -3.480005505E+01  9.646007089E+01  4.768371582E-07  0.00000E+00  9.000E+00
#rwgt            1           1   2.0365805651171666E-002          10      180410           0
</event>
<event>
      5   9999  3.19816E-02  3.18849E+01 -1.00000E+00  1.51224E-01
      21    -1     0     0   502   501  0.000000000E+00  0.000000000E+00  1.054936266E+03  1.054936266E+03  0.000000000E+00  0.00000E+00  9.000E+00
      21    -1     0     0   511   502  0.000000000E+00  0.000000000E+00 -2.218993237E+02  2.218993237E+02  0.000000000E+00  0.00000E+00  9.000E+00
      25     1     1     2     0     0  2.304182135E+02 -1.315651438E+02  8.695243562E+01  3.059210130E+02  1.250000000E+02  0.00000E+00  9.000E+00
      25     1     1     2     0     0 -2.356935449E+02  1.630106439E+02  8.269024506E+02  8.840342640E+02  1.250000000E+02  0.00000E+00  9.000E+00
      21     1     1     2   511   501  5.275331389E+00 -3.144550016E+01 -8.081794411E+01  8.688031245E+01  2.132480600E-06  0.00000E+00  9.000E+00
#rwgt            1           1   3.2859422613934992E-002          10      180500           0
</event>
<event>
      5   9999  3.19816E-02  8.71851E+01 -1.00000E+00  1.26567E-01
      21    -1     0     0   502   501  0.000000000E+00  0.000000000E+00  1.735799968E+03  1.735799968E+03  0.000000000E+00  0.00000E+00  9.000E+00
      -4    -1     0     0     0   502  0.000000000E+00  0.000000000E+00 -8.753171827E+01  8.753171827E+01  0.000000000E+00  0.00000E+00  9.000E+00
      25     1     1     2     0     0  2.038066691E+02  6.285382854E+01  1.286747531E+03  1.310279348E+03  1.250000000E+02  0.00000E+00  9.000E+00
      25     1     1     2     0     0 -1.582639140E+02  1.149064807E+01  3.739151370E+02  4.249906247E+02  1.250000000E+02  0.00000E+00  9.000E+00
      -4     1     1     2     0   501 -4.554275518E+01 -7.434447661E+01 -1.239441812E+01  8.806171332E+01  1.760104067E-06  0.00000E+00  9.000E+00
#rwgt            2           7   2.2187990201932359E-004          10      180666           0
</event>
<event>
      5   9999  3.19816E-02  1.52286E+02 -1.00000E+00  1.16134E-01
      21    -1     0     0   502   511  0.000000000E+00  0.000000000E+00  1.748823448E+02  1.748823448E+02  0.000000000E+00  0.00000E+00  9.000E+00
      21    -1     0     0   501   502  0.000000000E+00  0.000000000E+00 -8.909739322E+02  8.909739322E+02  0.000000000E+00  0.00000E+00  9.000E+00
      25     1     1     2     0     0 -2.808609125E+02  7.565714193E+01 -6.463485852E+02  7.197210216E+02  1.250000000E+02  0.00000E+00  9.000E+00
      25     1     1     2     0     0  1.330208386E+02 -3.912953878E+01 -4.183376580E+01  1.913131680E+02  1.250000000E+02  0.00000E+00  9.000E+00
      21     1     1     2   501   511  1.478400740E+02 -3.652760315E+01 -2.790923637E+01  1.548220874E+02  7.539457465E-07  0.00000E+00  9.000E+00
#rwgt            2          11   3.7449938548324703E-003          10      180805           0
</event>
<event>
      5   9999  3.19816E-02  2.00425E+02 -1.00000E+00  1.11615E-01
      21    -1     0     0   502   501  0.000000000E+00  0.000000000E+00  6.021235821E+02  6.021235821E+02  0.000000000E+00  0.00000E+00  9.000E+00
      21    -1     0     0   512   502  0.000000000E+00  0.000000000E+00 -2.892958935E+03  2.892958935E+03  0.000000000E+00  0.00000E+00  9.000E+00
      25     1     1     2     0     0  8.656025218E+02 -5.501866165E+02 -3.001431034E+02  1.075957212E+03  1.250000000E+02  0.00000E+00  9.000E+00
      25     1     1     2     0     0 -6.695762465E+02  5.919451925E+02 -7.825242422E+02  1.194445750E+03  1.250000000E+02  0.00000E+00  9.000E+00
      21     1     1     2   512   501 -1.960262753E+02 -4.175857606E+01 -1.208168007E+03  1.224679555E+03  2.642899792E-05  0.00000E+00  9.000E+00
#rwgt            1           1   3.4986316400678216E-002          10      180825           0
</event>
<event>
      5   9999  3.19816E-02  6.16478E+01 -1.00000E+00  1.34078E-01
      21    -1     0     0   502   501  0.000000000E+00  0.000000000E+00  5.601718441E+02  5.601718441E+02  0.000000000E+00  0.00000E+00  9.000E+00
      21    -1     0     0   501   511  0.000000000E+00  0.000000000E+00 -3.730167723E+02  3.730167723E+02  0.000000000E+00  0.00000E+00  9.000E+00
      25     1     1     2     0     0 -3.869163712E+02 -6.637749951E+01  1.558596318E+02  4.404854999E+02  1.250000000E+02  0.00000E+00  9.000E+00
      25     1     1     2     0     0  4.058435264E+02  7.707101041E+00  5.147797043E+01  4.278356563E+02  1.250000000E+02  0.00000E+00  9.000E+00
      21     1     1     2   502   511 -1.892715517E+01  5.867039847E+01 -2.018253042E+01  6.486746021E+01  9.536743164E-07  0.00000E+00  9.000E+00
#rwgt            1           1   2.8915206192884534E-002          10      180900           0
</event>
<event>
      5   9999  3.19816E-02  2.40322E+01 -1.00000E+00  1.60046E-01
      21    -1     0     0   502   501  0.000000000E+00  0.000000000E+00  8.627733630E+02  8.627733630E+02  0.000000000E+00  0.00000E+00  9.000E+00
       1    -1     0     0   501     0  0.000000000E+00  0.000000000E+00 -3.063329125E+02  3.063329125E+02  0.000000000E+00  0.00000E+00  9.000E+00
      25     1     1     2     0     0  1.026823695E+02  4.299156187E+02  3.166877900E+02  5.579312364E+02  1.250000000E+02  0.00000E+00  9.000E+00
      25     1     1     2     0     0 -8.930609950E+01 -4.498811422E+02  2.890256768E+02  5.563537215E+02  1.250000000E+02  0.00000E+00  9.000E+00
       1     1     1     2   502     0 -1.337627000E+01  1.996552351E+01 -4.927301628E+01  5.482131758E+01  9.536743164E-07  0.00000E+00  9.000E+00
#rwgt            1           1   2.9298437550278954E-002          10      181002           0
</event>
<event>
      5   9999  3.85487E-02  6.03443E+01 -1.00000E+00  1.34571E-01
      21    -1     0     0   511   501  0.000000000E+00  0.000000000E+00  4.582930677E+02  4.582930677E+02  0.000000000E+00  0.00000E+00  9.000E+00
      21    -1     0     0   501   502  0.000000000E+00  0.000000000E+00 -5.511314367E+02  5.511314367E+02  0.000000000E+00  0.00000E+00  9.000E+00
      25     1     1     2     0     0  3.294287448E+02  2.381019365E+02  5.587008223E+01  4.289082608E+02  1.250000000E+02  0.00000E+00  9.000E+00
      25     1     1     2     0     0 -3.348969455E+02 -2.981979599E+02 -1.947540217E+02  5.046108564E+02  1.250000000E+02  0.00000E+00  9.000E+00
      21     1     1     2   511   502  5.468200631E+00  6.009602343E+01  4.604557053E+01  7.590538726E+01  6.743495762E-07  0.00000E+00  9.000E+00
#rwgt            1           1   3.7329425266831223E-002          10      181184           0
</event>
<event>
      5   9999  3.19816E-02  4.54864E+01 -1.00000E+00  1.41461E-01
      21    -1     0     0   502   501  0.000000000E+00  0.000000000E+00  8.652545727E+02  8.652545727E+02  0.000000000E+00  0.00000E+00  9.000E+00
      21    -1     0     0   501   512  0.000000000E+00  0.000000000E+00 -6.198600544E+02  6.198600544E+02  0.000000000E+00  0.00000E+00  9.000E+00
      25     1     1     2     0     0  3.969017822E+02 -5.219817503E+01  4.650909942E+02  6.262509937E+02  1.250000000E+02  0.00000E+00  9.000E+00
      25     1     1     2     0     0 -4.104117263E+02  8.764435298E+00  1.736331698E+02  4.629126030E+02  1.250000000E+02  0.00000E+00  9.000E+00
      21     1     1     2   502   512  1.350994407E+01  4.343373974E+01 -3.933296456E+02  3.959510304E+02  0.000000000E+00  0.00000E+00  9.000E+00
#rwgt            1           1   3.1009620806159457E-002          10      181297           0
</event>
<event>
      5   9999  3.19816E-02  6.62046E+01 -1.00000E+00  1.32459E-01
      21    -1     0     0   511   501  0.000000000E+00  0.000000000E+00  6.268744891E+01  6.268744891E+01  0.000000000E+00  0.00000E+00  9.000E+00
      21    -1     0     0   501   502  0.000000000E+00  0.000000000E+00 -1.457083603E+03  1.457083603E+03  0.000000000E+00  0.00000E+00  9.000E+00
      25     1     1     2     0     0  7.009908402E+01  5.707857006E+01 -1.823598453E+02  2.388555168E+02  1.250000000E+02  0.00000E+00  9.000E+00
      25     1     1     2     0     0 -2.500215399E+01 -8.608872381E+00 -1.207839251E+03  1.214578065E+03  1.250000000E+02  0.00000E+00  9.000E+00
      21     1     1     2   511   502 -4.509693004E+01 -4.846969768E+01 -4.197058487E+00  6.633747050E+01  1.270012602E-06  0.00000E+00  9.000E+00
#rwgt            1           1   2.9726819928024711E-002          10      181422           0
</event>
<event>
      5   9999  3.19816E-02  7.75611E+01 -1.00000E+00  1.29004E-01
      21    -1     0     0   502   501  0.000000000E+00  0.000000000E+00  3.795532887E+02  3.795532887E+02  0.000000000E+00  0.00000E+00  9.000E+00
      21    -1     0     0   512   502  0.000000000E+00  0.000000000E+00 -7.023065570E+02  7.023065570E+02  0.000000000E+00  0.00000E+00  9.000E+00
      25     1     1     2     0     0  4.122275129E+02  1.875281422E+02 -1.075477833E+02  4.819645757E+02  1.250000000E+02  0.00000E+00  9.000E+00
      25     1     1     2     0     0 -3.759629138E+02 -2.560890862E+02 -1.405663608E+02  4.922536281E+02  1.250000000E+02  0.00000E+00  9.000E+00
      21     1     1     2   512   501 -3.626459910E+01  6.856094397E+01 -7.463912419E+01  1.076416418E+02  0.000000000E+00  0.00000E+00  9.000E+00
#rwgt            1           1   2.9337799609337582E-002          10      181478           0
</event>
<event>
      5   9999  3.19816E-02  1.30540E+02 -1.00000E+00  1.18837E-01
      21    -1     0     0   502   501  0.000000000E+00  0.000000000E+00  9.401554565E+02  9.401554565E+02  0.000000000E+00  0.00000E+00  9.000E+00
      21    -1     0     0   511   502  0.000000000E+00  0.000000000E+00 -1.736431796E+02  1.736431796E+02  0.000000000E+00  0.00000E+00  9.000E+00
      25     1     1     2     0     0  1.355278650E+02  3.682439815E+01  7.939417614E+02  8.158997236E+02  1.250000000E+02  0.00000E+00  9.000E+00
      25     1     1     2     0     0 -7.158567904E+00 -6.053070082E+01 -7.616274253E+01  1.585590558E+02  1.250000000E+02  0.00000E+00  9.000E+00
      21     1     1     2   511   501 -1.283692970E+02  2.370630267E+01  4.873325803E+01  1.393398566E+02  1.784161275E-06  0.00000E+00  9.000E+00
#rwgt            2          11   3.4703311623995002E-003          10      181746           0
</event>
<event>
      5   9999  3.19816E-02  3.77532E+02 -1.00000E+00  1.02447E-01
       1    -1     0     0   502     0  0.000000000E+00  0.000000000E+00  2.689771462E+03  2.689771462E+03  0.000000000E+00  0.00000E+00  9.000E+00
      21    -1     0     0   501   502  0.000000000E+00  0.000000000E+00 -5.622086727E+02  5.622086727E+02  0.000000000E+00  0.00000E+00  9.000E+00
      25     1     1     2     0     0 -7.775468757E+02  3.651644589E+02  1.179295660E+02  8.760460081E+02  1.250000000E+02  0.00000E+00  9.000E+00
      25     1     1     2     0     0  4.003500509E+02 -3.810778486E+02  3.329076211E+02  6.572312942E+02  1.250000000E+02  0.00000E+00  9.000E+00
       1     1     1     2   501     0  3.771968247E+02  1.591338974E+01  1.676725602E+03  1.718702832E+03  2.157918644E-05  0.00000E+00  9.000E+00
#rwgt            2          17   5.4751231588764742E-004          10      181796           0
</event>
<event>
      5   9999  3.19816E-02  1.76155E+02 -1.00000E+00  1.13693E-01
      21    -1     0     0   502   501  0.000000000E+00  0.000000000E+00  3.792331997E+02  3.792331997E+02  0.000000000E+00  0.00000E+00  9.000E+00
       1    -1     0     0   501     0  0.000000000E+00  0.000000000E+00 -2.357303315E+03  2.357303315E+03  0.000000000E+00  0.00000E+00  9.000E+00
      25     1     1     2     0     0 -1.732376677E+01  1.249747188E+02 -3.480275188E+02  3.907261792E+02  1.250000000E+02  0.00000E+00  9.000E+00
      25     1     1     2     0     0 -5.730062299E+01  3.459272781E+01  3.397530863E+02  3.681537421E+02  1.250000000E+02  0.00000E+00  9.000E+00
       1     1     1     2   502     0  7.462438976E+01 -1.595674466E+02 -1.969795683E+03  1.977656593E+03  0.000000000E+00  0.00000E+00  9.000E+00
#rwgt            1           1   3.3735573055656769E-002          10      181860           0
</event>
<event>
      5   9999  3.19816E-02  1.86751E+01 -1.00000E+00  1.68863E-01
      21    -1     0     0   502   501  0.000000000E+00  0.000000000E+00  2.453744752E+02  2.453744752E+02  0.000000000E+00  0.00000E+00  9.000E+00
      21    -1     0     0   501   511  0.000000000E+00  0.000000000E+00 -2.658957019E+02  2.658957019E+02  0.000000000E+00  0.00000E+00  9.000E+00
      25     1     1     2     0     0 -1.177297620E+02  1.562590130E+02 -7.347728873E+01  2.435181471E+02  1.250000000E+02  0.00000E+00  9.000E+00
      25     1     1     2     0     0  1.315778912E+02 -1.437294894E+02  7.062720669E+01  2.420415458E+02  1.250000000E+02  0.00000E+00  9.000E+00
      21     1     1     2   502   511 -1.384812917E+01 -1.252952367E+01 -1.767114466E+01  2.571048421E+01  5.840038640E-07  0.00000E+00  9.000E+00
#rwgt            1           1   2.8978587880187919E-002          10      181891           0
</event>
<event>
      5   9999  3.19816E-02  2.66921E+01 -1.00000E+00  1.56650E-01
      21    -1     0     0   502   501  0.000000000E+00  0.000000000E+00  1.174263378E+03  1.174263378E+03  0.000000000E+00  0.00000E+00  9.000E+00
      21    -1     0     0   512   502  0.000000000E+00  0.000000000E+00 -4.348755363E+01  4.348755363E+01  0.000000000E+00  0.00000E+00  9.000E+00
      25     1     1     2     0     0  8.520331786E+01  1.574374800E+01  9.696304798E+02  9.814864942E+02  1.250000000E+02  0.00000E+00  9.000E+00
      25     1     1     2     0     0 -6.136571815E+01 -3.733944380E+00  1.061564903E+02  1.751396418E+02  1.250000000E+02  0.00000E+00  9.000E+00
      21     1     1     2   512   501 -2.383759971E+01 -1.200980362E+01  5.498885441E+01  6.112479572E+01  6.743495762E-07  0.00000E+00  9.000E+00
#rwgt            1           1   2.3301334964567377E-002          10      182047           0
</event>
<event>
      5   9999  3.19816E-02  3.32049E+01 -1.00000E+00  1.50040E-01
      21    -1     0     0   502   501  0.000000000E+00  0.000000000E+00  1.464349856E+03  1.464349856E+03  0.000000000E+00  0.00000E+00  9.000E+00
      21    -1     0     0   501   511  0.000000000E+00  0.000000000E+00 -7.597906612E+01  7.597906612E+01  0.000000000E+00  0.00000E+00  9.000E+00
      25     1     1     2     0     0 -4.462859541E+01 -2.033874050E+02  5.588944169E+02  6.093817501E+02  1.250000000E+02  0.00000E+00  9.000E+00
      25     1     1     2     0     0  3.816076305E+01  1.708185340E+02  8.596089224E+02  8.861081846E+02  1.250000000E+02  0.00000E+00  9.000E+00
      21     1     1     2   502   511  6.467832358E+00  3.256887097E+01 -3.013254975E+01  4.483898712E+01  2.050954167E-06  0.00000E+00  9.000E+00
#rwgt            1           1   3.3299188815756747E-002          10      182171           0
</event>
<event>
      5   9999  3.19816E-02  3.07632E+01 -1.00000E+00  1.52286E-01
      21    -1     0     0   502   501  0.000000000E+00  0.000000000E+00  1.122439385E+03  1.122439385E+03  0.000000000E+00  0.00000E+00  9.000E+00
      21    -1     0     0   512   502  0.000000000E+00  0.000000000E+00 -8.451579747E+01  8.451579747E+01  0.000000000E+00  0.00000E+00  9.000E+00
      25     1     1     2     0     0 -1.368810643E+01  1.815756727E+02  1.178018968E+02  2.503185492E+02  1.250000000E+02  0.00000E+00  9.000E+00
      25     1     1     2     0     0  1.752758175E+00 -1.532221790E+02  8.959483953E+02  9.175121990E+02  1.250000000E+02  0.00000E+00  9.000E+00
      21     1     1     2   512   501  1.193534825E+01 -2.835349368E+01  2.417329523E+01  3.912443411E+01  7.539457465E-07  0.00000E+00  9.000E+00
#rwgt            1           1   2.8410500609750595E-002          10      182242           0
</event>
<event>
      5   9999  3.19816E-02  1.28269E+02 -1.00000E+00  1.19153E-01
      21    -1     0     0   502   511  0.000000000E+00  0.000000000E+00  2.323065949E+02  2.323065949E+02  0.000000000E+00  0.00000E+00  9.000E+00
      21    -1     0     0   501   502  0.000000000E+00  0.000000000E+00 -8.628874402E+02  8.628874402E+02  0.000000000E+00  0.00000E+00  9.000E+00
      25     1     1     2     0     0  2.500631700E+02 -2.181840300E+02 -2.227602565E+02  4.187875259E+02  1.250000000E+02  0.00000E+00  9.000E+00
      25     1     1     2     0     0 -3.566819207E+02  1.468719508E+02 -3.502464260E+02  5.358086612E+02  1.250000000E+02  0.00000E+00  9.000E+00
      21     1     1     2   501   511  1.066187506E+02  7.131207922E+01 -5.757416280E+01  1.405978480E+02  1.348699152E-06  0.00000E+00  9.000E+00
#rwgt            1           1   3.0053621523384377E-002          10      182362           0
</event>
<event>
      5   9999  3.19816E-02  1.78641E+02 -1.00000E+00  1.13463E-01
      21    -1     0     0   502   512  0.000000000E+00  0.000000000E+00  2.324571774E+03  2.324571774E+03  0.000000000E+00  0.00000E+00  9.000E+00
      21    -1     0     0   501   502  0.000000000E+00  0.000000000E+00 -3.792872199E+02  3.792872199E+02  0.000000000E+00  0.00000E+00  9.000E+00
      25     1     1     2     0     0 -6.043332234E+02 -2.473957743E+02  6.766733702E+01  6.683017152E+02  1.250000000E+02  0.00000E+00  9.000E+00
      25     1     1     2     0     0  4.281234500E+02  2.180232297E+02  7.876168822E+02  9.310151289E+02  1.250000000E+02  0.00000E+00  9.000E+00
      21     1     1     2   501   512  1.762097734E+02  2.937254458E+01  1.090000335E+03  1.104542150E+03  0.000000000E+00  0.00000E+00  9.000E+00
#rwgt            1           1   3.0253251317263054E-002          10      182449           0
</event>
<event>
      5   9999  3.19816E-02  1.53161E+02 -1.00000E+00  1.16036E-01
      21    -1     0     0   502   501  0.000000000E+00  0.000000000E+00  2.404347439E+03  2.404347439E+03  0.000000000E+00  0.00000E+00  9.000E+00
      21    -1     0     0   511   502  0.000000000E+00  0.000000000E+00 -8.583239946E+01  8.583239946E+01  0.000000000E+00  0.00000E+00  9.000E+00
      25     1     1     2     0     0  5.339886629E+01  3.437541850E+01  1.415510783E+03  1.422437656E+03  1.250000000E+02  0.00000E+00  9.000E+00
      25     1     1     2     0     0 -1.052532712E+02 -1.784917615E+02  8.802389207E+02  9.128981967E+02  1.250000000E+02  0.00000E+00  9.000E+00
      21     1     1     2   511   501  5.185440492E+01  1.441163430E+02  2.276533660E+01  1.548439866E+02  1.261592536E-06  0.00000E+00  9.000E+00
#rwgt            1           1   6.4318084232612205E-002          10      182499           0
</event>
<event>
      5   9999  3.19816E-02  1.86536E+02 -1.00000E+00  1.12761E-01
      21    -1     0     0   502   501  0.000000000E+00  0.000000000E+00  6.926305872E+02  6.926305872E+02  0.000000000E+00  0.00000E+00  9.000E+00
      21    -1     0     0   512   502  0.000000000E+00  0.000000000E+00 -3.047389265E+02  3.047389265E+02  0.000000000E+00  0.00000E+00  9.000E+00
      25     1     1     2     0     0 -8.610368496E+01  1.812286651E+02  4.067916817E+02  4.704913877E+02  1.250000000E+02  0.00000E+00  9.000E+00
      25     1     1     2     0     0 -4.925649304E+01 -3.095773951E+02 -3.684661212E+01  3.394805422E+02  1.250000000E+02  0.00000E+00  9.000E+00
      21     1     1     2   512   501  1.353601780E+02  1.283487300E+02  1.794659118E+01  1.873975838E+02  3.792279654E-06  0.00000E+00  9.000E+00
#rwgt            1           1   2.8520111790427929E-002          10      182552           0
</event>
<event>
      5   9999  3.19816E-02  1.21317E+02 -1.00000E+00  1.20167E-01
      21    -1     0     0   502   501  0.000000000E+00  0.000000000E+00  1.877065797E+02  1.877065797E+02  0.000000000E+00  0.00000E+00  9.000E+00
       2    -1     0     0   501     0  0.000000000E+00  0.000000000E+00 -2.477001776E+03  2.477001776E+03  0.000000000E+00  0.00000E+00  9.000E+00
      25     1     1     2     0     0 -2.050923116E+02  3.867755458E+02 -2.871183539E+02  5.382565636E+02  1.250000000E+02  0.00000E+00  9.000E+00
      25     1     1     2     0     0  1.205298489E+02 -4.737642457E+02 -1.032339031E+03  1.149055647E+03  1.250000000E+02  0.00000E+00  9.000E+00
       2     1     1     2   502     0  8.456246268E+01  8.698869988E+01 -9.698378109E+02  9.773961446E+02  1.078959322E-05  0.00000E+00  9.000E+00
#rwgt            1           1   3.1728459372075565E-002          10      182617           0
</event>
<event>
      5   9999  3.19816E-02  8.88939E+01 -1.00000E+00  1.26172E-01
      21    -1     0     0   502   501  0.000000000E+00  0.000000000E+00  6.067870416E+02  6.067870416E+02  0.000000000E+00  0.00000E+00  9.000E+00
       2    -1     0     0   501     0  0.000000000E+00  0.000000000E+00 -3.849087483E+02  3.849087483E+02  0.000000000E+00  0.00000E+00  9.000E+00
      25     1     1     2     0     0  2.835829583E+01  3.742432951E+01  5.035958086E+02  5.209976121E+02  1.250000000E+02  0.00000E+00  9.000E+00
      25     1     1     2     0     0  5.374729335E+01 -3.353829426E+00  3.599346419E+01  1.407854722E+02  1.250000000E+02  0.00000E+00  9.000E+00
       2     1     1     2   502     0 -8.210558919E+01 -3.407050009E+01 -3.177109795E+02  3.299127055E+02  5.394796609E-06  0.00000E+00  9.000E+00
#rwgt            1           1   2.7594906010770127E-002          10      182694           0
</event>
<event>
      5   9999  3.19816E-02  1.30637E+02 -1.00000E+00  1.18823E-01
      21    -1     0     0   502   501  0.000000000E+00  0.000000000E+00  7.848259345E+02  7.848259345E+02  0.000000000E+00  0.00000E+00  9.000E+00
      21    -1     0     0   501   511  0.000000000E+00  0.000000000E+00 -2.430452326E+02  2.430452326E+02  0.000000000E+00  0.00000E+00  9.000E+00
      25     1     1     2     0     0  6.467174775E+01  2.029925154E+02  4.247715991E+02  4.913698278E+02  1.250000000E+02  0.00000E+00  9.000E+00
      25     1     1     2     0     0 -1.326682079E+01 -3.230906402E+02  1.809400890E+02  3.910599521E+02  1.250000000E+02  0.00000E+00  9.000E+00
      21     1     1     2   502   511 -5.140492697E+01  1.200981248E+02 -6.393098621E+01  1.454413871E+02  1.507891493E-06  0.00000E+00  9.000E+00
#rwgt            1           1   2.9980867087826785E-002          10      182744           0
</event>
<event>
      5   9999  3.19816E-02  2.79716E+01 -1.00000E+00  1.55182E-01
      21    -1     0     0   502   501  0.000000000E+00  0.000000000E+00  1.039255651E+03  1.039255651E+03  0.000000000E+00  0.00000E+00  9.000E+00
      21    -1     0     0   512   502  0.000000000E+00  0.000000000E+00 -4.074817991E+01  4.074817991E+01  0.000000000E+00  0.00000E+00  9.000E+00
      25     1     1     2     0     0  1.431325859E+02  3.824551132E+01  6.408610605E+02  6.695353278E+02  1.250000000E+02  0.00000E+00  9.000E+00
      25     1     1     2     0     0 -1.158896721E+02 -3.190229211E+01  3.050662230E+02  3.509110610E+02  1.250000000E+02  0.00000E+00  9.000E+00
      21     1     1     2   512   501 -2.724291380E+01 -6.343219214E+00  5.258018742E+01  5.955744195E+01  6.743495762E-07  0.00000E+00  9.000E+00
#rwgt            1           1   2.3062712533219003E-002          10      182790           0
</event>
<event>
      5   9999  3.19816E-02  7.69520E+01 -1.00000E+00  1.29171E-01
      21    -1     0     0   502   501  0.000000000E+00  0.000000000E+00  7.189817054E+02  7.189817054E+02  0.000000000E+00  0.00000E+00  9.000E+00
      21    -1     0     0   501   511  0.000000000E+00  0.000000000E+00 -8.208155029E+02  8.208155029E+02  0.000000000E+00  0.00000E+00  9.000E+00
      25     1     1     2     0     0  2.923616255E+02  2.463917156E+02 -6.631916261E+02  7.756496183E+02  1.250000000E+02  0.00000E+00  9.000E+00
      25     1     1     2     0     0 -2.641523377E+02 -1.747966710E+02  5.906744435E+02  6.818002874E+02  1.250000000E+02  0.00000E+00  9.000E+00
      21     1     1     2   502   511 -2.820928773E+01 -7.159504463E+01 -2.931661486E+01  8.234730255E+01  1.066240300E-06  0.00000E+00  9.000E+00
#rwgt            1           1   2.7284354758180019E-002          10      182872           0
</event>
<event>
      5   9999  3.19816E-02  4.63240E+01 -1.00000E+00  1.40995E-01
      21    -1     0     0   502   501  0.000000000E+00  0.000000000E+00  4.153693581E+01  4.153693581E+01  0.000000000E+00  0.00000E+00  9.000E+00
       3    -1     0     0   501     0  0.000000000E+00  0.000000000E+00 -1.064500925E+03  1.064500925E+03  0.000000000E+00  0.00000E+00  9.000E+00
      25     1     1     2     0     0 -1.102549503E+02 -4.755268971E+01 -5.171983744E+02  5.454691291E+02  1.250000000E+02  0.00000E+00  9.000E+00
      25     1     1     2     0     0  6.523614735E+01  3.663382957E+01 -1.801882005E+02  2.317122785E+02  1.250000000E+02  0.00000E+00  9.000E+00
       3     1     1     2   502     0  4.501880294E+01  1.091886015E+01 -3.255774147E+02  3.288564537E+02  7.629394531E-06  0.00000E+00  9.000E+00
#rwgt            1           1   3.5242232832863825E-002          10      182987           0
</event>
<event>
      5   9999  3.19816E-02  1.09956E+01 -1.00000E+00  1.91110E-01
      21    -1     0     0   502   501  0.000000000E+00  0.000000000E+00  1.448749038E+03  1.448749038E+03  0.000000000E+00  0.00000E+00  9.000E+00
      21    -1     0     0   501   511  0.000000000E+00  0.000000000E+00 -7.698165254E+01  7.698165254E+01  0.000000000E+00  0.00000E+00  9.000E+00
      25     1     1     2     0     0 -5.210624348E+01  5.149439404E+01  1.325818439E+03  1.333711463E+03  1.250000000E+02  0.00000E+00  9.000E+00
      25     1     1     2     0     0  5.800988875E+01 -4.221803446E+01  7.391073842E+01  1.619731672E+02  1.250000000E+02  0.00000E+00  9.000E+00
      21     1     1     2   502   511 -5.903645269E+00 -9.276359576E+00 -2.796179250E+01  3.004605988E+01  1.430511475E-06  0.00000E+00  9.000E+00
#rwgt            1           1   3.0692020197220147E-002          10      183074           0
</event>
<event>
      5   9999  3.19816E-02  4.09117E+01 -1.00000E+00  1.44236E-01
      21    -1     0     0   502   501  0.000000000E+00  0.000000000E+00  1.098524412E+03  1.098524412E+03  0.000000000E+00  0.00000E+00  9.000E+00
      21    -1     0     0   501   512  0.000000000E+00  0.000000000E+00 -1.431230560E+02  1.431230560E+02  0.000000000E+00  0.00000E+00  9.000E+00
      25     1     1     2     0     0 -1.082976391E+02 -2.020202746E+02  7.754902985E+02  8.182608221E+02  1.250000000E+02  0.00000E+00  9.000E+00
      25     1     1     2     0     0  1.136858167E+02  2.425755775E+02  2.181406915E+02  3.673931640E+02  1.250000000E+02  0.00000E+00  9.000E+00
      21     1     1     2   502   512 -5.388177546E+00 -4.055530285E+01 -3.822963427E+01  5.599348161E+01  8.259061849E-07  0.00000E+00  9.000E+00
#rwgt            1           1   2.8726433405094363E-002          10      183297           0
</event>
<event>
      5   9999  3.19816E-02  3.76305E+02 -1.00000E+00  1.02490E-01
      21    -1     0     0   502   501  0.000000000E+00  0.000000000E+00  8.104827549E+02  8.104827549E+02  0.000000000E+00  0.00000E+00  9.000E+00
      21    -1     0     0   511   502  0.000000000E+00  0.000000000E+00 -4.760624281E+02  4.760624281E+02  0.000000000E+00  0.00000E+00  9.000E+00
      25     1     1     2     0     0 -5.920509030E+01 -2.803462722E+02 -6.010535633E+01  3.183346178E+02  1.250000000E+02  0.00000E+00  9.000E+00
      25     1     1     2     0     0  2.826488085E+02 -2.243773198E+01  4.902066388E+02  5.799321939E+02  1.250000000E+02  0.00000E+00  9.000E+00
      21     1     1     2   511   501 -2.234437182E+02  3.027840041E+02 -9.568095568E+01  3.882783713E+02  2.336015456E-06  0.00000E+00  9.000E+00
#rwgt            2          11   2.9443171952340005E-003          10      183401           0
</event>
<event>
      5   9999  3.19816E-02  2.48011E+02 -1.00000E+00  1.08349E-01
      21    -1     0     0   502   512  0.000000000E+00  0.000000000E+00  4.864660028E+02  4.864660028E+02  0.000000000E+00  0.00000E+00  9.000E+00
      21    -1     0     0   501   502  0.000000000E+00  0.000000000E+00 -8.617683061E+02  8.617683061E+02  0.000000000E+00  0.00000E+00  9.000E+00
      25     1     1     2     0     0  1.997570341E+02  5.690464697E+02 -3.560770723E+02  7.114299957E+02  1.250000000E+02  0.00000E+00  9.000E+00
      25     1     1     2     0     0 -1.229514783E+02 -3.332276778E+02 -7.169047448E+01  3.833044161E+02  1.250000000E+02  0.00000E+00  9.000E+00
      21     1     1     2   501   512 -7.680555577E+01 -2.358187919E+02  5.246524351E+01  2.534998970E+02  3.989505894E-06  0.00000E+00  9.000E+00
#rwgt            1           1   2.4476730521748209E-002          10      183421           0
</event>
<event>
      5   9999  3.19816E-02  3.36656E+01 -1.00000E+00  1.49642E-01
      21    -1     0     0   502   501  0.000000000E+00  0.000000000E+00  3.423833520E+02  3.423833520E+02  0.000000000E+00  0.00000E+00  9.000E+00
      21    -1     0     0   501   511  0.000000000E+00  0.000000000E+00 -1.677828513E+02  1.677828513E+02  0.000000000E+00  0.00000E+00  9.000E+00
      25     1     1     2     0     0  1.096779012E+02 -1.186925263E+02  1.908721393E+02  2.795967299E+02  1.250000000E+02  0.00000E+00  9.000E+00
      25     1     1     2     0     0 -9.215913949E+01  8.994419311E+01  2.059482161E+01  1.806444340E+02  1.250000000E+02  0.00000E+00  9.000E+00
      21     1     1     2   502   511 -1.751876168E+01  2.874833318E+01 -3.686646021E+01  4.992503940E+01  0.000000000E+00  0.00000E+00  9.000E+00
#rwgt            1           1   2.3092062312614355E-002          10      183484           0
</event>
<event>
      5   9999  3.19816E-02  6.67064E+01 -1.00000E+00  1.32290E-01
      21    -1     0     0   502   501  0.000000000E+00  0.000000000E+00  2.876259317E+02  2.876259317E+02  0.000000000E+00  0.00000E+00  9.000E+00
      21    -1     0     0   501   512  0.000000000E+00  0.000000000E+00 -1.461998010E+03  1.461998010E+03  0.000000000E+00  0.00000E+00  9.000E+00
      25     1     1     2     0     0  1.203319792E+02  4.359112031E+01 -1.134255900E+02  2.118261916E+02  1.250000000E+02  0.00000E+00  9.000E+00
      25     1     1     2     0     0 -1.035692802E+02 -1.081570299E+02  1.974972548E+02  2.775872918E+02  1.250000000E+02  0.00000E+00  9.000E+00
      21     1     1     2   502   512 -1.676269897E+01  6.456590955E+01 -1.258443744E+03  1.260210459E+03  3.051757812E-05  0.00000E+00  9.000E+00
#rwgt            1           1   2.8763877551270425E-002          10      183624           0
</event>
<event>
      5   9999  3.19816E-02  2.73646E+01 -1.00000E+00  1.55866E-01
      21    -1     0     0   502   501  0.000000000E+00  0.000000000E+00  5.863802594E+01  5.863802594E+01  0.000000000E+00  0.00000E+00  9.000E+00
      21    -1     0     0   501   511  0.000000000E+00  0.000000000E+00 -1.805487936E+03  1.805487936E+03  0.000000000E+00  0.00000E+00  9.000E+00
      25     1     1     2     0     0  1.156321597E+02 -1.029095115E+02 -3.014678909E+02  3.612050016E+02  1.250000000E+02  0.00000E+00  9.000E+00
      25     1     1     2     0     0 -1.216294200E+02  7.621015234E+01 -2.879734774E+02  3.451889727E+02  1.250000000E+02  0.00000E+00  9.000E+00
      21     1     1     2   502   511  5.997260319E+00  2.669935919E+01 -1.157408542E+03  1.157731988E+03  2.642899792E-05  0.00000E+00  9.000E+00
#rwgt            1           1   3.3478952877372681E-002          10      183708           0
</event>
<event>
      5   9999  3.19816E-02  3.06546E+01 -1.00000E+00  1.52392E-01
      21    -1     0     0   502   501  0.000000000E+00  0.000000000E+00  1.868782106E+02  1.868782106E+02  0.000000000E+00  0.00000E+00  9.000E+00
      21    -1     0     0   512   502  0.000000000E+00  0.000000000E+00 -3.004463824E+02  3.004463824E+02  0.000000000E+00  0.00000E+00  9.000E+00
      25     1     1     2     0     0  7.536178520E+00  1.024689925E+02  9.932255490E+01  1.898595753E+02  1.250000000E+02  0.00000E+00  9.000E+00
      25     1     1     2     0     0  2.120802129E+01 -1.131214994E+02 -1.465487711E+02  2.243831458E+02  1.250000000E+02  0.00000E+00  9.000E+00
      21     1     1     2   512   501 -2.874419981E+01  1.065250689E+01 -6.634195569E+01  7.308187197E+01  1.348699152E-06  0.00000E+00  9.000E+00
#rwgt            1           1   2.4003708750274758E-002          10      183825           0
</event>
<event>
      5   9999  3.19816E-02  1.17234E+01 -1.00000E+00  1.88099E-01
      21    -1     0     0   511   501  0.000000000E+00  0.000000000E+00  2.328145064E+02  2.328145064E+02  0.000000000E+00  0.00000E+00  9.000E+00
      21    -1     0     0   501   502  0.000000000E+00  0.000000000E+00 -4.459427605E+02  4.459427605E+02  0.000000000E+00  0.00000E+00  9.000E+00
      25     1     1     2     0     0  4.402513034E+01  2.317134278E+02  2.044905115E+01  2.677171799E+02  1.250000000E+02  0.00000E+00  9.000E+00
      25     1     1     2     0     0 -4.493855283E+01 -2.434012130E+02 -2.612586137E+02  3.809785916E+02  1.250000000E+02  0.00000E+00  9.000E+00
      21     1     1     2   511   502  9.134224916E-01  1.168778521E+01  2.768130852E+01  3.006149539E+01  3.371747881E-07  0.00000E+00  9.000E+00
#rwgt            1           1   2.8401519935035861E-002          10      183945           0
</event>
<event>
      5   9999  3.19816E-02  1.71160E+01 -1.00000E+00  1.72149E-01
      21    -1     0     0   502   501  0.000000000E+00  0.000000000E+00  4.995501683E+02  4.995501683E+02  0.000000000E+00  0.00000E+00  9.000E+00
      21    -1     0     0   512   502  0.000000000E+00  0.000000000E+00 -3.831166914E+02  3.831166914E+02  0.000000000E+00  0.00000E+00  9.000E+00
      25     1     1     2     0     0  3.362837513E+02 -1.637185704E+02  1.803457272E+01  3.947667381E+02  1.250000000E+02  0.00000E+00  9.000E+00
      25     1     1     2     0     0 -3.236816037E+02  1.521365900E+02  1.692920731E+02  4.149700334E+02  1.250000000E+02  0.00000E+00  9.000E+00
      21     1     1     2   512   501 -1.260214757E+01  1.158198036E+01 -7.089316888E+01  7.293008835E+01  9.536743164E-07  0.00000E+00  9.000E+00
#rwgt            1           1   2.5521277981143082E-002          10      184121           0
</event>
<event>
      5   9999  3.19816E-02  8.77995E+01 -1.00000E+00  1.26424E-01
      21    -1     0     0   502   501  0.000000000E+00  0.000000000E+00  7.996989360E+02  7.996989360E+02  0.000000000E+00  0.00000E+00  9.000E+00
       3    -1     0     0   501     0  0.000000000E+00  0.000000000E+00 -2.272063068E+02  2.272063068E+02  0.000000000E+00  0.00000E+00  9.000E+00
      25     1     1     2     0     0  3.762604650E+02 -5.625450086E+01  2.222942417E+02  4.580133582E+02  1.250000000E+02  0.00000E+00  9.000E+00
      25     1     1     2     0     0 -3.346831402E+02 -2.107645306E+01  3.045835388E+02  4.699501604E+02  1.250000000E+02  0.00000E+00  9.000E+00
       3     1     1     2   502     0 -4.157732482E+01  7.733095392E+01  4.561484866E+01  9.894172422E+01  1.651812370E-06  0.00000E+00  9.000E+00
#rwgt            2          14   1.2041923617106362E-005          10      184319           0
</event>
<event>
      5   9999  3.19816E-02  1.19217E+02 -1.00000E+00  1.20489E-01
      21    -1     0     0   502   511  0.000000000E+00  0.000000000E+00  4.180818587E+02  4.180818587E+02  0.000000000E+00  0.00000E+00  9.000E+00
      21    -1     0     0   501   502  0.000000000E+00  0.000000000E+00 -2.903310470E+02  2.903310470E+02  0.000000000E+00  0.00000E+00  9.000E+00
      25     1     1     2     0     0 -7.275501467E+01 -2.712519088E+02  1.765536829E+02  3.544955474E+02  1.250000000E+02  0.00000E+00  9.000E+00
      25     1     1     2     0     0  7.238879685E+01  1.520354674E+02 -8.940462930E+01  2.279761150E+02  1.250000000E+02  0.00000E+00  9.000E+00
      21     1     1     2   501   511  3.662178156E-01  1.192164414E+02  4.060175808E+01  1.259412433E+02  8.259061849E-07  0.00000E+00  9.000E+00
#rwgt            1           1   2.7444191203732121E-002          10      184353           0
</event>
<event>
      5   9999  3.19816E-02  7.19520E+01 -1.00000E+00  1.30619E-01
      21    -1     0     0   502   501  0.000000000E+00  0.000000000E+00  6.910308182E+01  6.910308182E+01  0.000000000E+00  0.00000E+00  9.000E+00
      21    -1     0     0   512   502  0.000000000E+00  0.000000000E+00 -2.397736038E+03  2.397736038E+03  0.000000000E+00  0.00000E+00  9.000E+00
      25     1     1     2     0     0 -2.717020191E+02  2.434030077E+02 -1.243598413E+03  1.302009610E+03  1.250000000E+02  0.00000E+00  9.000E+00
      25     1     1     2     0     0  2.092417758E+02 -2.076844859E+02 -6.580650956E+02  7.318398981E+02  1.250000000E+02  0.00000E+00  9.000E+00
      21     1     1     2   512   501  6.246024335E+01 -3.571852178E+01 -4.269694474E+02  4.329896117E+02  5.394796609E-06  0.00000E+00  9.000E+00
#rwgt            1           1   2.6856523947631394E-002          10      184426           0
</event>
<event>
      5   9999  3.19816E-02  1.66677E+02 -1.00000E+00  1.14608E-01
      21    -1     0     0   502   501  0.000000000E+00  0.000000000E+00  1.206243378E+03  1.206243378E+03  0.000000000E+00  0.00000E+00  9.000E+00
      21    -1     0     0   501   511  0.000000000E+00  0.000000000E+00 -4.462663979E+02  4.462663979E+02  0.000000000E+00  0.00000E+00  9.000E+00
      25     1     1     2     0     0  4.229110570E+02 -3.218889400E+02  5.095014843E+02  7.467817716E+02  1.250000000E+02  0.00000E+00  9.000E+00
      25     1     1     2     0     0 -4.819496445E+02  4.777595422E+02  2.632797138E+02  7.385599824E+02  1.250000000E+02  0.00000E+00  9.000E+00
      21     1     1     2   502   511  5.903858750E+01 -1.558706022E+02 -1.280421820E+01  1.671680216E+02  5.331201500E-07  0.00000E+00  9.000E+00
#rwgt            2          11   5.9119863196600278E-003          10      184529           0
</event>
<event>
      5   9999  3.19816E-02  2.27299E+01 -1.00000E+00  1.61911E-01
      21    -1     0     0   502   501  0.000000000E+00  0.000000000E+00  1.788046800E+03  1.788046800E+03  0.000000000E+00  0.00000E+00  9.000E+00
      21    -1     0     0   512   502  0.000000000E+00  0.000000000E+00 -5.869216672E+01  5.869216672E+01  0.000000000E+00  0.00000E+00  9.000E+00
      25     1     1     2     0     0 -8.393457923E+01  2.228864577E+02  3.853172360E+02  4.699125014E+02  1.250000000E+02  0.00000E+00  9.000E+00
      25     1     1     2     0     0  6.128632100E+01 -2.248113533E+02  1.306121349E+03  1.332619277E+03  1.250000000E+02  0.00000E+00  9.000E+00
      21     1     1     2   512   501  2.264825822E+01  1.924895546E+00  3.791604804E+01  4.420718859E+01  4.768371582E-07  0.00000E+00  9.000E+00
#rwgt            1           1   3.1954665696000209E-002          10      184609           0
</event>
<event>
      5   9999  3.19816E-02  1.26772E+01 -1.00000E+00  1.84556E-01
      21    -1     0     0   511   501  0.000000000E+00  0.000000000E+00  3.209351616E+02  3.209351616E+02  0.000000000E+00  0.00000E+00  9.000E+00
      21    -1     0     0   501   502  0.000000000E+00  0.000000000E+00 -4.656807987E+02  4.656807987E+02  0.000000000E+00  0.00000E+00  9.000E+00
      25     1     1     2     0     0 -1.190524364E+02 -1.928347626E+02  3.643901331E+00  2.588377992E+02  1.250000000E+02  0.00000E+00  9.000E+00
      25     1     1     2     0     0  1.220678965E+02  1.805214657E+02 -2.910939806E+02  3.845117377E+02  1.250000000E+02  0.00000E+00  9.000E+00
      21     1     1     2   511   502 -3.015460049E+00  1.231329687E+01  1.427044421E+02  1.432664234E+02  1.907348633E-06  0.00000E+00  9.000E+00
#rwgt            1           1   2.9353200856502643E-002          10      184795           0
</event>
<event>
      5   9999  3.19816E-02  4.26579E+01 -1.00000E+00  1.43128E-01
      21    -1     0     0   502   512  0.000000000E+00  0.000000000E+00  1.709918648E+02  1.709918648E+02  0.000000000E+00  0.00000E+00  9.000E+00
      21    -1     0     0   501   502  0.000000000E+00  0.000000000E+00 -9.301503835E+02  9.301503835E+02  0.000000000E+00  0.00000E+00  9.000E+00
      25     1     1     2     0     0 -2.065670881E+02 -2.329567475E+01 -1.073778648E+02  2.652690261E+02  1.250000000E+02  0.00000E+00  9.000E+00
      25     1     1     2     0     0  1.639540230E+02  2.525080564E+01 -7.233356960E+02  7.525676407E+02  1.250000000E+02  0.00000E+00  9.000E+00
      21     1     1     2   501   512  4.261306512E+01 -1.955130891E+00  7.155504210E+01  8.330558148E+01  9.536743164E-07  0.00000E+00  9.000E+00
#rwgt            1           1   2.9402986174939940E-002          10      184973           0
</event>
<event>
      5   9999  3.19816E-02  7.64605E+01 -1.00000E+00  1.29308E-01
      21    -1     0     0   502   501  0.000000000E+00  0.000000000E+00  1.199653753E+02  1.199653753E+02  0.000000000E+00  0.00000E+00  9.000E+00
       2    -1     0     0   501     0  0.000000000E+00  0.000000000E+00 -2.326626403E+03  2.326626403E+03  0.000000000E+00  0.00000E+00  9.000E+00
      25     1     1     2     0     0  1.556312399E+02 -1.937975621E+02 -1.060374673E+03  1.096265490E+03  1.250000000E+02  0.00000E+00  9.000E+00
      25     1     1     2     0     0 -2.241805057E+02  1.599271946E+02 -1.267203911E+02  3.278973380E+02  1.250000000E+02  0.00000E+00  9.000E+00
       2     1     1     2   502     0  6.854926584E+01  3.387036751E+01 -1.019565964E+03  1.022428950E+03  1.078959322E-05  0.00000E+00  9.000E+00
#rwgt            1           1   2.9589609646761161E-002          10      185067           0
</event>
<event>
      5   9999  3.19816E-02  1.26375E+02 -1.00000E+00  1.19422E-01
      21    -1     0     0   502   511  0.000000000E+00  0.000000000E+00  4.925313030E+02  4.925313030E+02  0.000000000E+00  0.00000E+00  9.000E+00
      21    -1     0     0   501   502  0.000000000E+00  0.000000000E+00 -2.442591449E+02  2.442591449E+02  0.000000000E+00  0.00000E+00  9.000E+00
      25     1     1     2     0     0  1.291884275E+02 -8.953669357E+01 -1.418756118E+02  2.458864748E+02  1.250000000E+02  0.00000E+00  9.000E+00
      25     1     1     2     0     0 -2.895951751E+00  9.408984472E+01  1.370584519E+02  2.080175585E+02  1.250000000E+02  0.00000E+00  9.000E+00
      21     1     1     2   501   511 -1.262924757E+02 -4.553151148E+00  2.530893180E+02  2.828864145E+02  4.672030912E-06  0.00000E+00  9.000E+00
#rwgt            1           1   2.5537627130877764E-002          10      185158           0
</event>
<event>
      5   9999  3.19816E-02  1.09977E+02 -1.00000E+00  1.21998E-01
      21    -1     0     0   502   501  0.000000000E+00  0.000000000E+00  3.310689168E+02  3.310689168E+02  0.000000000E+00  0.00000E+00  9.000E+00
       2    -1     0     0   501     0  0.000000000E+00  0.000000000E+00 -1.958344202E+03  1.958344202E+03  0.000000000E+00  0.00000E+00  9.000E+00
      25     1     1     2     0     0  2.092829751E+02 -2.868283870E+02  1.186012849E+02  3.946658739E+02  1.250000000E+02  0.00000E+00  9.000E+00
      25     1     1     2     0     0 -2.590066911E+02  1.887344400E+02 -3.369134429E+02  4.814985180E+02  1.250000000E+02  0.00000E+00  9.000E+00
       2     1     1     2   502     0  4.972371607E+01  9.809394700E+01 -1.408963127E+03  1.413248727E+03  0.000000000E+00  0.00000E+00  9.000E+00
#rwgt            1           1   3.0716844895902626E-002          10      185204           0
</event>
<event>
      5   9999  3.19816E-02  9.01730E+01 -1.00000E+00  1.25883E-01
      21    -1     0     0   502   501  0.000000000E+00  0.000000000E+00  1.779388965E+02  1.779388965E+02  0.000000000E+00  0.00000E+00  9.000E+00
      21    -1     0     0   501   511  0.000000000E+00  0.000000000E+00 -1.368405523E+03  1.368405523E+03  0.000000000E+00  0.00000E+00  9.000E+00
      25     1     1     2     0     0 -2.996305405E+02  3.152205790E+02 -3.082171012E+02  5.475082243E+02  1.250000000E+02  0.00000E+00  9.000E+00
      25     1     1     2     0     0  2.718153959E+02 -2.294447564E+02 -6.836669057E+02  7.807393570E+02  1.250000000E+02  0.00000E+00  9.000E+00
      21     1     1     2   502   511  2.781514462E+01 -8.577582257E+01 -1.985826192E+02  2.180968378E+02  3.814697266E-06  0.00000E+00  9.000E+00
#rwgt            1           1   3.0093187621446686E-002          10      185257           0
</event>
<event>
      5   9999  3.19816E-02  2.47659E+02 -1.00000E+00  1.08370E-01
      21    -1     0     0   502   501  0.000000000E+00  0.000000000E+00  1.567745300E+02  1.567745300E+02  0.000000000E+00  0.00000E+00  9.000E+00
      21    -1     0     0   512   502  0.000000000E+00  0.000000000E+00 -4.438503994E+03  4.438503994E+03  0.000000000E+00  0.00000E+00  9.000E+00
      25     1     1     2     0     0  5.324555407E+02 -3.698201785E+02 -1.687018081E+03  1.811610022E+03  1.250000000E+02  0.00000E+00  9.000E+00
      25     1     1     2     0     0 -5.750748995E+02  1.258556564E+02 -9.796920527E+02  1.149770544E+03  1.250000000E+02  0.00000E+00  9.000E+00
      21     1     1     2   512   501  4.261935882E+01  2.439645221E+02 -1.615019331E+03  1.633897958E+03  0.000000000E+00  0.00000E+00  9.000E+00
#rwgt            1           1   8.3793679133131960E-002          10      185344           0
</event>
<event>
      5   9999  3.19816E-02  2.97285E+01 -1.00000E+00  1.53315E-01
      21    -1     0     0   511   501  0.000000000E+00  0.000000000E+00  6.584293786E+02  6.584293786E+02  0.000000000E+00  0.00000E+00  9.000E+00
      21    -1     0     0   501   502  0.000000000E+00  0.000000000E+00 -1.660836419E+03  1.660836419E+03  0.000000000E+00  0.00000E+00  9.000E+00
      25     1     1     2     0     0  3.778215546E+02 -2.557730324E+02 -1.532649668E+03  1.603997810E+03  1.250000000E+02  0.00000E+00  9.000E+00
      25     1     1     2     0     0 -3.486060356E+02  2.502741775E+02  5.148000974E+02  6.817679020E+02  1.250000000E+02  0.00000E+00  9.000E+00
      21     1     1     2   511   502 -2.921551894E+01  5.498854864E+00  1.544253028E+01  3.350008497E+01  4.129530925E-07  0.00000E+00  9.000E+00
#rwgt            1           1   3.8096039989699182E-002          10      185437           0
</event>
<event>
      5   9999  3.19816E-02  2.81982E+02 -1.00000E+00  1.06473E-01
      21    -1     0     0   502   501  0.000000000E+00  0.000000000E+00  1.163564777E+03  1.163564777E+03  0.000000000E+00  0.00000E+00  9.000E+00
      21    -1     0     0   512   502  0.000000000E+00  0.000000000E+00 -6.450559481E+02  6.450559481E+02  0.000000000E+00  0.00000E+00  9.000E+00
      25     1     1     2     0     0  2.187097348E+02  3.212438827E+02 -3.083925654E+02  5.116273592E+02  1.250000000E+02  0.00000E+00  9.000E+00
      25     1     1     2     0     0 -4.455910810E+02 -4.886917372E+02  7.436005856E+02  1.002964534E+03  1.250000000E+02  0.00000E+00  9.000E+00
      21     1     1     2   512   501  2.268813462E+02  1.674478545E+02  8.330080846E+01  2.940288317E+02  1.348699152E-06  0.00000E+00  9.000E+00
#rwgt            2          11   4.9173656741746466E-003          10      185628           0
</event>
<event>
      5   9999  3.19816E-02  1.95158E+02 -1.00000E+00  1.12037E-01
      21    -1     0     0   502   501  0.000000000E+00  0.000000000E+00  1.126333289E+03  1.126333289E+03  0.000000000E+00  0.00000E+00  9.000E+00
       2    -1     0     0   501     0  0.000000000E+00  0.000000000E+00 -5.883420480E+02  5.883420480E+02  0.000000000E+00  0.00000E+00  9.000E+00
      25     1     1     2     0     0  2.361137230E+00  5.826997110E+02  7.440199018E+02  9.532760054E+02  1.250000000E+02  0.00000E+00  9.000E+00
      25     1     1     2     0     0 -9.311655165E+00 -3.876651103E+02  7.993008757E+01  4.151924416E+02  1.250000000E+02  0.00000E+00  9.000E+00
       2     1     1     2   502     0  6.950517936E+00 -1.950346007E+02 -2.859587481E+02  3.462068901E+02  3.814697266E-06  0.00000E+00  9.000E+00
#rwgt            1           1   2.8171835620647439E-002          10      185768           0
</event>
<event>
      5   9999  3.19816E-02  2.87566E+02 -1.00000E+00  1.06193E-01
       1    -1     0     0   502     0  0.000000000E+00  0.000000000E+00  6.414756068E+02  6.414756068E+02  0.000000000E+00  0.00000E+00  9.000E+00
      21    -1     0     0   501   502  0.000000000E+00  0.000000000E+00 -2.853201198E+03  2.853201198E+03  0.000000000E+00  0.00000E+00  9.000E+00
      25     1     1     2     0     0  2.048468157E+02 -1.643128096E+02 -1.241525727E+03  1.275136090E+03  1.250000000E+02  0.00000E+00  9.000E+00
      25     1     1     2     0     0 -3.995170993E+02 -4.734114832E+01 -1.531757986E+03  1.588635460E+03  1.250000000E+02  0.00000E+00  9.000E+00
       1     1     1     2   501     0  1.946702836E+02  2.116539580E+02  5.615581214E+02  6.309052551E+02  1.321449896E-05  0.00000E+00  9.000E+00
#rwgt            1           1   6.4616190682158556E-002          10      185822           0
</event>
<event>
      5   9999  3.19816E-02  6.00066E+01 -1.00000E+00  1.34701E-01
      21    -1     0     0   502   501  0.000000000E+00  0.000000000E+00  4.567988377E+02  4.567988377E+02  0.000000000E+00  0.00000E+00  9.000E+00
       1    -1     0     0   501     0  0.000000000E+00  0.000000000E+00 -2.407944385E+03  2.407944385E+03  0.000000000E+00  0.00000E+00  9.000E+00
      25     1     1     2     0     0 -1.544626368E+02 -4.512723301E+02 -2.166175477E+02  5.385662299E+02  1.250000000E+02  0.00000E+00  9.000E+00
      25     1     1     2     0     0  1.806396471E+02  3.972764234E+02  1.208925242E+02  4.697863782E+02  1.250000000E+02  0.00000E+00  9.000E+00
       1     1     1     2   502     0 -2.617701035E+01  5.399590669E+01 -1.855420524E+03  1.856390615E+03  0.000000000E+00  0.00000E+00  9.000E+00
#rwgt            1           1   3.2967191721296751E-002          10      185863           0
</event>
<event>
      5   9999  3.19816E-02  8.69627E+01 -1.00000E+00  1.26619E-01
      21    -1     0     0   502   511  0.000000000E+00  0.000000000E+00  1.570550739E+03  1.570550739E+03  0.000000000E+00  0.00000E+00  9.000E+00
      21    -1     0     0   501   502  0.000000000E+00  0.000000000E+00 -5.182012562E+01  5.182012562E+01  0.000000000E+00  0.00000E+00  9.000E+00
      25     1     1     2     0     0 -2.067200388E+01 -1.044559189E+02  7.473473577E+02  7.651741264E+02  1.250000000E+02  0.00000E+00  9.000E+00
      25     1     1     2     0     0  1.044063504E+01  1.908146605E+02  2.955856721E+02  3.735172433E+02  1.250000000E+02  0.00000E+00  9.000E+00
      21     1     1     2   501   511  1.023136884E+01 -8.635874160E+01  4.757975839E+02  4.836794952E+02  5.394796609E-06  0.00000E+00  9.000E+00
#rwgt            1           1   2.8166842638185405E-002          10      185980           0
</event>
<event>
      5   9999  3.19816E-02  5.99034E+01 -1.00000E+00  1.34741E-01
      21    -1     0     0   502   501  0.000000000E+00  0.000000000E+00  1.312001275E+02  1.312001275E+02  0.000000000E+00  0.00000E+00  9.000E+00
       2    -1     0     0   501     0  0.000000000E+00  0.000000000E+00 -1.795843970E+03  1.795843970E+03  0.000000000E+00  0.00000E+00  9.000E+00
      25     1     1     2     0     0  5.793105171E+01 -3.083963283E+02 -5.158323279E+02  6.165811322E+02  1.250000000E+02  0.00000E+00  9.000E+00
      25     1     1     2     0     0  1.487184942E+00  3.160049752E+02 -2.820438667E+02  4.416277831E+02  1.250000000E+02  0.00000E+00  9.000E+00
       2     1     1     2   502     0 -5.941823665E+01 -7.608646982E+00 -8.667676484E+02  8.688351827E+02  0.000000000E+00  0.00000E+00  9.000E+00
#rwgt            1           1   3.3598094949404092E-002          10      186075           0
</event>
<event>
      5   9999  3.19816E-02  7.34926E+01 -1.00000E+00  1.30159E-01
      21    -1     0     0   502   511  0.000000000E+00  0.000000000E+00  3.152534581E+03  3.152534581E+03  0.000000000E+00  0.00000E+00  9.000E+00
      21    -1     0     0   501   502  0.000000000E+00  0.000000000E+00 -1.867292744E+02  1.867292744E+02  0.000000000E+00  0.00000E+00  9.000E+00
      25     1     1     2     0     0 -3.904562272E+02 -1.721466773E+02  8.825998734E+02  9.882803653E+02  1.250000000E+02  0.00000E+00  9.000E+00
      25     1     1     2     0     0  4.568717512E+02  2.036131120E+02  3.661628635E+02  6.323688315E+02  1.250000000E+02  0.00000E+00  9.000E+00
      21     1     1     2   501   511 -6.641552403E+01 -3.146643469E+01  1.717042570E+03  1.718614659E+03  0.000000000E+00  0.00000E+00  9.000E+00
#rwgt            1           1   2.6742611409595142E-002          10      186241           0
</event>
<event>
      5   9999  3.19816E-02  9.91454E+01 -1.00000E+00  1.23996E-01
      21    -1     0     0   502   501  0.000000000E+00  0.000000000E+00  7.574306127E+02  7.574306127E+02  0.000000000E+00  0.00000E+00  9.000E+00
      21    -1     0     0   501   512  0.000000000E+00  0.000000000E+00 -7.501225191E+02  7.501225191E+02  0.000000000E+00  0.00000E+00  9.000E+00
      25     1     1     2     0     0  2.542666285E+02 -4.315931794E+02 -2.864691102E+02  5.904352140E+02  1.250000000E+02  0.00000E+00  9.000E+00
      25     1     1     2     0     0 -3.447353177E+02  3.910318938E+02  4.712965343E+02  7.137883471E+02  1.250000000E+02  0.00000E+00  9.000E+00
      21     1     1     2   502   512  9.046868921E+01  4.056128559E+01 -1.775193304E+02  2.033295706E+02  3.303624740E-06  0.00000E+00  9.000E+00
#rwgt            1           1   2.2187320993267073E-002          10      186357           0
</event>
<event>
      5   9999  3.19816E-02  5.89957E+01 -1.00000E+00  1.35096E-01
       2    -1     0     0   502     0  0.000000000E+00  0.000000000E+00  4.870565736E+02  4.870565736E+02  0.000000000E+00  0.00000E+00  9.000E+00
      21    -1     0     0   501   502  0.000000000E+00  0.000000000E+00 -9.084285096E+02  9.084285096E+02  0.000000000E+00  0.00000E+00  9.000E+00
      25     1     1     2     0     0 -2.474511659E+02  8.084978233E+01 -4.809942086E+02  5.610251292E+02  1.250000000E+02  0.00000E+00  9.000E+00
      25     1     1     2     0     0  2.677166863E+02 -1.362555330E+02 -3.163980240E+02  4.538397338E+02  1.250000000E+02  0.00000E+00  9.000E+00
       2     1     1     2   501     0 -2.026552040E+01  5.540575066E+01  3.760202967E+02  3.806202202E+02  7.629394531E-06  0.00000E+00  9.000E+00
#rwgt            1           1   2.5451441224471009E-002          10      186423           0
</event>
<event>
      5   9999  3.59668E-02  6.82143E+01 -1.00000E+00  1.31792E-01
      21    -1     0     0   502   501  0.000000000E+00  0.000000000E+00  2.314012509E+03  2.314012509E+03  0.000000000E+00  0.00000E+00  9.000E+00
      21    -1     0     0   511   502  0.000000000E+00  0.000000000E+00 -3.024125418E+02  3.024125418E+02  0.000000000E+00  0.00000E+00  9.000E+00
      25     1     1     2     0     0  2.901510373E+02  2.149148927E+02  1.147264034E+03  1.209221154E+03  1.250000000E+02  0.00000E+00  9.000E+00
      25     1     1     2     0     0 -3.427823665E+02 -2.583099148E+02  1.086461911E+03  1.174839668E+03  1.250000000E+02  0.00000E+00  9.000E+00
      21     1     1     2   511   501  5.263132917E+01  4.339502212E+01 -2.221259776E+02  2.323642285E+02  7.136645101E-06  0.00000E+00  9.000E+00
#rwgt            1           1   9.7573790962091525E-002          10      186541           0
</event>
<event>
      5   9999  3.19816E-02  2.93617E+01 -1.00000E+00  1.53691E-01
      21    -1     0     0   512   501  0.000000000E+00  0.000000000E+00  7.053928896E+02  7.053928896E+02  0.000000000E+00  0.00000E+00  9.000E+00
      21    -1     0     0   501   502  0.000000000E+00  0.000000000E+00 -2.322119668E+02  2.322119668E+02  0.000000000E+00  0.00000E+00  9.000E+00
      25     1     1     2     0     0 -6.584709032E+01 -5.584827966E+01 -1.896197146E+02  2.429722326E+02  1.250000000E+02  0.00000E+00  9.000E+00
      25     1     1     2     0     0  6.385042828E+01  8.514203180E+01  6.279852934E+02  6.490890320E+02  1.250000000E+02  0.00000E+00  9.000E+00
      21     1     1     2   512   502  1.996662035E+00 -2.929375214E+01  3.481534402E+01  4.554359179E+01  4.768371582E-07  0.00000E+00  9.000E+00
#rwgt            1           1   2.7784153472063946E-002          10      186629           0
</event>
<event>
      5   9999  3.19816E-02  1.74336E+02 -1.00000E+00  1.13863E-01
      21    -1     0     0   502   501  0.000000000E+00  0.000000000E+00  7.553133708E+02  7.553133708E+02  0.000000000E+00  0.00000E+00  9.000E+00
       2    -1     0     0   501     0  0.000000000E+00  0.000000000E+00 -1.545868335E+03  1.545868335E+03  0.000000000E+00  0.00000E+00  9.000E+00
      25     1     1     2     0     0  1.485520150E+02 -7.386263092E+02 -7.101522700E+02  1.042869969E+03  1.250000000E+02  0.00000E+00  9.000E+00
      25     1     1     2     0     0 -9.403384619E+00  8.436540510E+02  2.465048117E+02  8.878232952E+02  1.250000000E+02  0.00000E+00  9.000E+00
       2     1     1     2   502     0 -1.391486304E+02 -1.050277417E+02 -3.269075063E+02  3.704884419E+02  3.814697266E-06  0.00000E+00  9.000E+00
#rwgt            1           1   2.5737744029182531E-002          10      186779           0
</event>
<event>
      5   9999  3.19816E-02  5.26421E+01 -1.00000E+00  1.37811E-01
      21    -1     0     0   502   501  0.000000000E+00  0.000000000E+00  1.206301385E+03  1.206301385E+03  0.000000000E+00  0.00000E+00  9.000E+00
      21    -1     0     0   511   502  0.000000000E+00  0.000000000E+00 -1.680201642E+02  1.680201642E+02  0.000000000E+00  0.00000E+00  9.000E+00
      25     1     1     2     0     0  8.775907183E+01  7.832581563E+01  9.080714309E+02  9.241511304E+02  1.250000000E+02  0.00000E+00  9.000E+00
      25     1     1     2     0     0 -8.008028499E+01 -1.304048334E+02  2.503911030E+02  3.189654795E+02  1.250000000E+02  0.00000E+00  9.000E+00
      21     1     1     2   511   501 -7.678786833E+00  5.207901775E+01 -1.201813136E+02  1.312049389E+02  3.568322551E-06  0.00000E+00  9.000E+00
#rwgt            1           1   3.9890463595521092E-002          10      186878           0
</event>
<event>
      5   9999  3.19816E-02  3.02583E+02 -1.00000E+00  1.05471E-01
      21    -1     0     0   512   501  0.000000000E+00  0.000000000E+00  2.981810640E+03  2.981810640E+03  0.000000000E+00  0.00000E+00  9.000E+00
      21    -1     0     0   501   502  0.000000000E+00  0.000000000E+00 -4.994335927E+02  4.994335927E+02  0.000000000E+00  0.00000E+00  9.000E+00
      25     1     1     2     0     0 -5.327061906E+02  5.668233319E+02  1.139715491E+03  1.385511088E+03  1.250000000E+02  0.00000E+00  9.000E+00
      25     1     1     2     0     0  4.961388094E+02 -8.671885296E+02  3.628423521E+02  1.070256622E+03  1.250000000E+02  0.00000E+00  9.000E+00
      21     1     1     2   512   502  3.656738114E+01  3.003651977E+02  9.798192045E+02  1.025476523E+03  1.525878906E-05  0.00000E+00  9.000E+00
#rwgt            2          11   1.3142082947143442E-003          10      187193           0
</event>
<event>
      5   9999  3.19816E-02  6.12504E+01 -1.00000E+00  1.34226E-01
      21    -1     0     0   502   511  0.000000000E+00  0.000000000E+00  2.274458467E+02  2.274458467E+02  0.000000000E+00  0.00000E+00  9.000E+00
      21    -1     0     0   501   502  0.000000000E+00  0.000000000E+00 -7.139720349E+02  7.139720349E+02  0.000000000E+00  0.00000E+00  9.000E+00
      25     1     1     2     0     0  7.639411037E+01 -1.889036327E+02 -1.091705346E+02  2.628000155E+02  1.250000000E+02  0.00000E+00  9.000E+00
      25     1     1     2     0     0 -1.156976589E+02  1.419266429E+02 -4.969988553E+02  5.442076648E+02  1.250000000E+02  0.00000E+00  9.000E+00
      21     1     1     2   501   511  3.930354857E+01  4.697698983E+01  1.196432017E+02  1.344102013E+02  1.348699152E-06  0.00000E+00  9.000E+00
#rwgt            1           1   3.2257487152044788E-002          10      187213           0
</event>
<event>
      5   9999  3.19816E-02  1.11913E+02 -1.00000E+00  1.21669E-01
      21    -1     0     0   502   501  0.000000000E+00  0.000000000E+00  4.776056345E+02  4.776056345E+02  0.000000000E+00  0.00000E+00  9.000E+00
      21    -1     0     0   512   502  0.000000000E+00  0.000000000E+00 -1.764232504E+02  1.764232504E+02  0.000000000E+00  0.00000E+00  9.000E+00
      25     1     1     2     0     0  1.544531004E+01 -8.784100873E+01  2.497506233E+02  2.931807876E+02  1.250000000E+02  0.00000E+00  9.000E+00
      25     1     1     2     0     0 -1.215662593E+02  5.230524537E+01  1.303588022E+02  2.239031295E+02  1.250000000E+02  0.00000E+00  9.000E+00
      21     1     1     2   512   501  1.061209493E+02  3.553576336E+01 -7.892704137E+01  1.369449678E+02  3.015782986E-06  0.00000E+00  9.000E+00
#rwgt            1           1   2.7385787288485907E-002          10      187285           0
</event>
<event>
      5   9999  3.19816E-02  1.29720E+01 -1.00000E+00  1.83540E-01
      21    -1     0     0   502   501  0.000000000E+00  0.000000000E+00  1.121212544E+03  1.121212544E+03  0.000000000E+00  0.00000E+00  9.000E+00
      21    -1     0     0   511   502  0.000000000E+00  0.000000000E+00 -1.218082390E+02  1.218082390E+02  0.000000000E+00  0.00000E+00  9.000E+00
      25     1     1     2     0     0  1.664696142E+00  1.716491844E+02  4.786199715E-01  2.123474577E+02  1.250000000E+02  0.00000E+00  9.000E+00
      25     1     1     2     0     0  5.935527579E+00 -1.821615127E+02  9.912761895E+02  1.015613869E+03  1.250000000E+02  0.00000E+00  9.000E+00
      21     1     1     2   511   501 -7.600223720E+00  1.051232831E+01  7.649495785E+00  1.505945659E+01  2.064765462E-07  0.00000E+00  9.000E+00
#rwgt            1           1   2.8254604595138465E-002          10      187331           0
</event>
<event>
      5   9999  3.19816E-02  1.87213E+02 -1.00000E+00  1.12703E-01
      21    -1     0     0   502   501  0.000000000E+00  0.000000000E+00  1.834143410E+02  1.834143410E+02  0.000000000E+00  0.00000E+00  9.000E+00
       2    -1     0     0   501     0  0.000000000E+00  0.000000000E+00 -1.898089708E+03  1.898089708E+03  0.000000000E+00  0.00000E+00  9.000E+00
      25     1     1     2     0     0 -8.285948653E+01 -3.946916873E+02 -5.810136206E+02  7.182263222E+02  1.250000000E+02  0.00000E+00  9.000E+00
      25     1     1     2     0     0  1.577829000E+02  2.231252832E+02 -1.059277114E+02  3.186314730E+02  1.250000000E+02  0.00000E+00  9.000E+00
       2     1     1     2   502     0 -7.492341346E+01  1.715664041E+02 -1.027734035E+03  1.044646254E+03  2.157918644E-05  0.00000E+00  9.000E+00
#rwgt            1           1   2.3925737104771649E-002          10      187547           0
</event>
<event>
      5   9999  3.19816E-02  2.14770E+02 -1.00000E+00  1.10533E-01
      21    -1     0     0   502   501  0.000000000E+00  0.000000000E+00  1.965947137E+02  1.965947137E+02  0.000000000E+00  0.00000E+00  9.000E+00
       2    -1     0     0   501     0  0.000000000E+00  0.000000000E+00 -7.392214287E+02  7.392214287E+02  0.000000000E+00  0.00000E+00  9.000E+00
      25     1     1     2     0     0  6.838033714E+01 -6.152454974E+01  7.375616630E+00  1.553722641E+02  1.250000000E+02  0.00000E+00  9.000E+00
      25     1     1     2     0     0 -2.681987800E+02  1.402570593E+02 -2.524148838E+02  4.134499992E+02  1.250000000E+02  0.00000E+00  9.000E+00
       2     1     1     2   502     0  1.998184429E+02 -7.873250960E+01 -2.975874478E+02  3.669938790E+02  6.607249480E-06  0.00000E+00  9.000E+00
#rwgt            1           1   2.6075499668229293E-002          10      187594           0
</event>
<event>
      5   9999  3.19816E-02  6.35413E+01 -1.00000E+00  1.33386E-01
      21    -1     0     0   511   501  0.000000000E+00  0.000000000E+00  1.609406287E+03  1.609406287E+03  0.000000000E+00  0.00000E+00  9.000E+00
      21    -1     0     0   501   502  0.000000000E+00  0.000000000E+00 -7.310262326E+01  7.310262326E+01  0.000000000E+00  0.00000E+00  9.000E+00
      25     1     1     2     0     0 -1.728086293E+02 -1.245378175E+02  2.115391869E+02  3.251865894E+02  1.250000000E+02  0.00000E+00  9.000E+00
      25     1     1     2     0     0  1.170910927E+02  1.550837964E+02  1.080520423E+03  1.104948276E+03  1.250000000E+02  0.00000E+00  9.000E+00
      21     1     1     2   511   502  5.571753657E+01 -3.054597888E+01  2.442440532E+02  2.523740443E+02  3.814697266E-06  0.00000E+00  9.000E+00
#rwgt            1           1   2.9162136194713820E-002          10      187652           0
</event>
<event>
      5   9999  3.74385E-02  1.96129E+02 -1.00000E+00  1.11958E-01
      21    -1     0     0   502   501  0.000000000E+00  0.000000000E+00  5.622203328E+01  5.622203328E+01  0.000000000E+00  0.00000E+00  9.000E+00
       1    -1     0     0   501     0  0.000000000E+00  0.000000000E+00 -3.005597283E+03  3.005597283E+03  0.000000000E+00  0.00000E+00  9.000E+00
      25     1     1     2     0     0  1.275313395E+02  1.307252372E+02 -9.602922362E+02  9.854641085E+02  1.250000000E+02  0.00000E+00  9.000E+00
      25     1     1     2     0     0 -1.701550517E+02 -3.221668788E+02 -1.087930743E+03  1.154106816E+03  1.250000000E+02  0.00000E+00  9.000E+00
       1     1     1     2   502     0  4.262371222E+01  1.914416416E+02 -9.011522701E+02  9.222483922E+02  1.078959322E-05  0.00000E+00  9.000E+00
#rwgt            1           1  0.11461959997402701               10      187713           0
</event>
<event>
      5   9999  3.19816E-02  1.57855E+02 -1.00000E+00  1.15522E-01
      21    -1     0     0   502   501  0.000000000E+00  0.000000000E+00  1.028594556E+03  1.028594556E+03  0.000000000E+00  0.00000E+00  9.000E+00
      21    -1     0     0   511   502  0.000000000E+00  0.000000000E+00 -5.642276674E+02  5.642276674E+02  0.000000000E+00  0.00000E+00  9.000E+00
      25     1     1     2     0     0 -2.992153107E+02  1.365785632E+02  2.764764962E+02  4.474905128E+02  1.250000000E+02  0.00000E+00  9.000E+00
      25     1     1     2     0     0  2.425743732E+02  1.076489760E+01  6.242083549E+02  6.813363926E+02  1.250000000E+02  0.00000E+00  9.000E+00
      21     1     1     2   511   501  5.664093746E+01 -1.473434608E+02 -4.363179622E+02  4.639953183E+02  5.394796609E-06  0.00000E+00  9.000E+00
#rwgt            1           1   2.8632803535715689E-002          10      187763           0
</event>
<event>
      5   9999  3.19816E-02  1.95115E+01 -1.00000E+00  1.67260E-01
      21    -1     0     0   502   501  0.000000000E+00  0.000000000E+00  1.678988530E+03  1.678988530E+03  0.000000000E+00  0.00000E+00  9.000E+00
       1    -1     0     0   501     0  0.000000000E+00  0.000000000E+00 -2.048594708E+02  2.048594708E+02  0.000000000E+00  0.00000E+00  9.000E+00
      25     1     1     2     0     0  2.872331946E+02 -1.956788604E+02  4.312231276E+02  5.677776944E+02  1.250000000E+02  0.00000E+00  9.000E+00
      25     1     1     2     0     0 -2.990033766E+02  2.112403493E+02  1.146836492E+03  1.210324107E+03  1.250000000E+02  0.00000E+00  9.000E+00
       1     1     1     2   502     0  1.177018206E+01 -1.556148894E+01 -1.039305609E+02  1.057461991E+02  3.568322551E-06  0.00000E+00  9.000E+00
#rwgt            1           1   3.1403313488167814E-002          10      187824           0
</event>
<event>
      5   9999  3.19816E-02  3.47397E+01 -1.00000E+00  1.48743E-01
      21    -1     0     0   502   511  0.000000000E+00  0.000000000E+00  7.928503233E+02  7.928503233E+02  0.000000000E+00  0.00000E+00  9.000E+00
      21    -1     0     0   501   502  0.000000000E+00  0.000000000E+00 -2.845131711E+02  2.845131711E+02  0.000000000E+00  0.00000E+00  9.000E+00
      25     1     1     2     0     0 -1.092181142E+02  1.817835678E+02 -1.922002680E+02  3.123136325E+02  1.250000000E+02  0.00000E+00  9.000E+00
      25     1     1     2     0     0  1.088819160E+02 -2.165216759E+02  6.167395791E+02  6.743364266E+02  1.250000000E+02  0.00000E+00  9.000E+00
      21     1     1     2   501   511  3.361981849E-01  3.473810808E+01  8.379784110E+01  9.071343536E+01  9.536743164E-07  0.00000E+00  9.000E+00
#rwgt            1           1   2.9766045787338994E-002          10      188043           0
</event>
<event>
      5   9999  3.19816E-02  1.00833E+02 -1.00000E+00  1.23666E-01
      21    -1     0     0   502   501  0.000000000E+00  0.000000000E+00  2.164837232E+02  2.164837232E+02  0.000000000E+00  0.00000E+00  9.000E+00
      21    -1     0     0   501   512  0.000000000E+00  0.000000000E+00 -4.990679962E+02  4.990679962E+02  0.000000000E+00  0.00000E+00  9.000E+00
      25     1     1     2     0     0 -2.024906176E+02  2.708144671E+01  3.279229887E+01  2.417357852E+02  1.250000000E+02  0.00000E+00  9.000E+00
      25     1     1     2     0     0  2.067159793E+02  7.366281797E+01 -2.329112575E+02  3.435554696E+02  1.250000000E+02  0.00000E+00  9.000E+00
      21     1     1     2   502   512 -4.225361659E+00 -1.007442647E+02 -8.246531433E+01  1.302604645E+02  2.336015456E-06  0.00000E+00  9.000E+00
#rwgt            2          11   2.9644874428990907E-003          10      188354           0
</event>
<event>
      5   9999  3.19816E-02  2.12802E+01 -1.00000E+00  1.64176E-01
       2    -1     0     0   502     0  0.000000000E+00  0.000000000E+00  3.403062057E+03  3.403062057E+03  0.000000000E+00  0.00000E+00  9.000E+00
      21    -1     0     0   501   502  0.000000000E+00  0.000000000E+00 -6.215708048E+02  6.215708048E+02  0.000000000E+00  0.00000E+00  9.000E+00
      25     1     1     2     0     0  2.431467923E+02 -1.005098655E+02 -4.462341649E+02  5.328907257E+02  1.250000000E+02  0.00000E+00  9.000E+00
      25     1     1     2     0     0 -2.466732208E+02  1.214958401E+02  4.085424026E+01  3.047999113E+02  1.250000000E+02  0.00000E+00  9.000E+00
       2     1     1     2   501     0  3.526428466E+00 -2.098597457E+01  3.186871177E+03  3.186942225E+03  0.000000000E+00  0.00000E+00  9.000E+00
#rwgt            1           1   2.7830778171721027E-002          10      188374           0
</event>
<event>
      5   9999  3.19816E-02  3.51800E+01 -1.00000E+00  1.48386E-01
      21    -1     0     0   502   501  0.000000000E+00  0.000000000E+00  2.120087344E+03  2.120087344E+03  0.000000000E+00  0.00000E+00  9.000E+00
      21    -1     0     0   501   511  0.000000000E+00  0.000000000E+00 -3.669940932E+02  3.669940932E+02  0.000000000E+00  0.00000E+00  9.000E+00
      25     1     1     2     0     0  2.654652461E+02  1.368657283E+02  1.961149155E+03  1.987695911E+03  1.250000000E+02  0.00000E+00  9.000E+00
      25     1     1     2     0     0 -2.367036144E+02 -1.166073208E+02 -3.676729948E+00  2.920006621E+02  1.250000000E+02  0.00000E+00  9.000E+00
      21     1     1     2   502   511 -2.876163171E+01 -2.025840758E+01 -2.043791750E+02  2.073848638E+02  3.814697266E-06  0.00000E+00  9.000E+00
#rwgt            1           1   3.1016275119265520E-002          10      188561           0
</event>
<event>
      5   9999  3.19816E-02  1.28563E+02 -1.00000E+00  1.19111E-01
      21    -1     0     0   502   501  0.000000000E+00  0.000000000E+00  1.089443414E+03  1.089443414E+03  0.000000000E+00  0.00000E+00  9.000E+00
      21    -1     0     0   512   502  0.000000000E+00  0.000000000E+00 -1.379147189E+03  1.379147189E+03  0.000000000E+00  0.00000E+00  9.000E+00
      25     1     1     2     0     0 -6.959185792E+02  3.881621098E+02 -3.859075474E+02  8.941600123E+02  1.250000000E+02  0.00000E+00  9.000E+00
      25     1     1     2     0     0  6.002857642E+02 -3.022387700E+02  6.873799047E+02  9.694366437E+02  1.250000000E+02  0.00000E+00  9.000E+00
      21     1     1     2   512   501  9.563281503E+01 -8.592333981E+01 -5.911761322E+02  6.049939462E+02  7.629394531E-06  0.00000E+00  9.000E+00
#rwgt            1           1   2.3379536157371615E-002          10      188786           0
</event>
<event>
      5   9999  3.19816E-02  9.53325E+00 -1.00000E+00  1.98188E-01
      21    -1     0     0   502   501  0.000000000E+00  0.000000000E+00  1.589212358E+02  1.589212358E+02  0.000000000E+00  0.00000E+00  9.000E+00
      21    -1     0     0   511   502  0.000000000E+00  0.000000000E+00 -3.602908430E+02  3.602908430E+02  0.000000000E+00  0.00000E+00  9.000E+00
      25     1     1     2     0     0  1.651649347E+02  7.701517343E+01 -1.673778616E+02  2.772203837E+02  1.250000000E+02  0.00000E+00  9.000E+00
      25     1     1     2     0     0 -1.742800263E+02 -7.980764426E+01 -2.756455288E+01  2.304942347E+02  1.250000000E+02  0.00000E+00  9.000E+00
      21     1     1     2   511   501  9.115091606E+00  2.792470837E+00 -6.427192692E+00  1.149746034E+01  1.460009660E-07  0.00000E+00  9.000E+00
#rwgt            1           1   2.8612129269334010E-002          10      188892           0
</event>
<event>
      5   9999  3.19816E-02  1.55115E+02 -1.00000E+00  1.15819E-01
      21    -1     0     0   512   501  0.000000000E+00  0.000000000E+00  2.183841846E+02  2.183841846E+02  0.000000000E+00  0.00000E+00  9.000E+00
      21    -1     0     0   501   502  0.000000000E+00  0.000000000E+00 -1.357187624E+03  1.357187624E+03  0.000000000E+00  0.00000E+00  9.000E+00
      25     1     1     2     0     0  1.550924420E+02  3.288781815E+02 -4.129425507E+02  5.642349458E+02  1.250000000E+02  0.00000E+00  9.000E+00
      25     1     1     2     0     0 -2.023383464E+02 -4.766231605E+02 -6.446545836E+02  8.362505461E+02  1.250000000E+02  0.00000E+00  9.000E+00
      21     1     1     2   512   502  4.724590448E+01  1.477449790E+02 -8.120630506E+01  1.750863167E+02  2.336015456E-06  0.00000E+00  9.000E+00
#rwgt            1           1   2.9398408366997194E-002          10      189074           0
</event>
<event>
      5   9999  3.19816E-02  4.79337E+01 -1.00000E+00  1.40129E-01
      21    -1     0     0   502   501  0.000000000E+00  0.000000000E+00  1.134817283E+03  1.134817283E+03  0.000000000E+00  0.00000E+00  9.000E+00
      21    -1     0     0   511   502  0.000000000E+00  0.000000000E+00 -1.969881355E+02  1.969881355E+02  0.000000000E+00  0.00000E+00  9.000E+00
      25     1     1     2     0     0  3.927892685E+02  3.572643668E+01  2.228773716E+02  4.699564985E+02  1.250000000E+02  0.00000E+00  9.000E+00
      25     1     1     2     0     0 -3.810254214E+02  1.074127299E+01  7.075378492E+02  8.133452863E+02  1.250000000E+02  0.00000E+00  9.000E+00
      21     1     1     2   511   501 -1.176384717E+01 -4.646770967E+01  7.413926353E+00  4.850363333E+01  1.022006762E-06  0.00000E+00  9.000E+00
#rwgt            1           1   2.9152515861136260E-002          10      189130           0
</event>
<event>
      5   9999  3.19816E-02  1.82036E+02 -1.00000E+00  1.13156E-01
       2    -1     0     0   502     0  0.000000000E+00  0.000000000E+00  3.528038437E+03  3.528038437E+03  0.000000000E+00  0.00000E+00  9.000E+00
      21    -1     0     0   501   502  0.000000000E+00  0.000000000E+00 -4.315544273E+01  4.315544273E+01  0.000000000E+00  0.00000E+00  9.000E+00
      25     1     1     2     0     0 -1.073632010E+02 -4.893744440E+01  2.113522265E+02  2.724270435E+02  1.250000000E+02  0.00000E+00  9.000E+00
      25     1     1     2     0     0 -6.320383220E+01 -1.465563259E+01  5.053629885E+02  5.246201122E+02  1.250000000E+02  0.00000E+00  9.000E+00
       2     1     1     2   501     0  1.705670332E+02  6.359307698E+01  2.768167780E+03  2.774146724E+03  0.000000000E+00  0.00000E+00  9.000E+00
#rwgt            1           1   4.4231188862208656E-002          10      189267           0
</event>
<event>
      5   9999  3.19816E-02  1.88504E+02 -1.00000E+00  1.12592E-01
       3    -1     0     0   502     0  0.000000000E+00  0.000000000E+00  4.948712253E+03  4.948712253E+03  0.000000000E+00  0.00000E+00  9.000E+00
      21    -1     0     0   501   502  0.000000000E+00  0.000000000E+00 -1.794779194E+02  1.794779194E+02  0.000000000E+00  0.00000E+00  9.000E+00
      25     1     1     2     0     0 -2.172563270E+02 -2.774301318E+02  4.485342131E+02  5.839312716E+02  1.250000000E+02  0.00000E+00  9.000E+00
      25     1     1     2     0     0  3.931210079E+02  3.452920861E+02  5.517567803E+02  7.706045005E+02  1.250000000E+02  0.00000E+00  9.000E+00
       3     1     1     2   501     0 -1.758646809E+02 -6.786195434E+01  3.768943340E+03  3.773654400E+03  0.000000000E+00  0.00000E+00  9.000E+00
#rwgt            1           1   2.9311384191547562E-002          10      189317           0
</event>
<event>
      5   9999  3.19816E-02  3.31975E+02 -1.00000E+00  1.04182E-01
      21    -1     0     0   502   501  0.000000000E+00  0.000000000E+00  9.098422604E+02  9.098422604E+02  0.000000000E+00  0.00000E+00  9.000E+00
      21    -1     0     0   501   511  0.000000000E+00  0.000000000E+00 -3.368579975E+02  3.368579975E+02  0.000000000E+00  0.00000E+00  9.000E+00
      25     1     1     2     0     0 -1.601582111E+02  2.014259790E+02  1.910282733E+02  3.440056377E+02  1.250000000E+02  0.00000E+00  9.000E+00
      25     1     1     2     0     0  4.514153514E+02 -4.212577096E+01  3.092253579E+02  5.628460909E+02  1.250000000E+02  0.00000E+00  9.000E+00
      21     1     1     2   502   511 -2.912571403E+02 -1.593002081E+02  7.273063183E+01  3.398485293E+02  7.262967211E-06  0.00000E+00  9.000E+00
#rwgt            2          11   3.0903169271368869E-003          10      189508           0
</event>
<event>
      5   9999  3.19816E-02  1.83977E+02 -1.00000E+00  1.12984E-01
      21    -1     0     0   502   501  0.000000000E+00  0.000000000E+00  1.001988562E+03  1.001988562E+03  0.000000000E+00  0.00000E+00  9.000E+00
      21    -1     0     0   512   502  0.000000000E+00  0.000000000E+00 -2.514030631E+02  2.514030631E+02  0.000000000E+00  0.00000E+00  9.000E+00
      25     1     1     2     0     0  4.078325624E+02  1.708059303E+02  2.795649737E+02  5.378509453E+02  1.250000000E+02  0.00000E+00  9.000E+00
      25     1     1     2     0     0 -3.250832470E+02 -6.489147931E+00  3.585732997E+02  4.999210315E+02  1.250000000E+02  0.00000E+00  9.000E+00
      21     1     1     2   512   501 -8.274931541E+01 -1.643167824E+02  1.124472256E+02  2.156196483E+02  3.568322551E-06  0.00000E+00  9.000E+00
#rwgt            2          11   4.3173052639545349E-003          10      189633           0
</event>
<event>
      5   9999  3.52009E-02  3.40495E+02 -1.00000E+00  1.03836E-01
      21    -1     0     0   502   501  0.000000000E+00  0.000000000E+00  1.548320733E+03  1.548320733E+03  0.000000000E+00  0.00000E+00  9.000E+00
       5    -1     0     0   501     0  0.000000000E+00  0.000000000E+00 -1.217086841E+03  1.217086841E+03  0.000000000E+00  0.00000E+00  9.000E+00
      25     1     1     2     0     0 -5.812800565E+01 -3.632577764E+02  5.411394589E+02  6.661771469E+02  1.250000000E+02  0.00000E+00  9.000E+00
      25     1     1     2     0     0 -7.276267773E+01  4.892562913E+01  9.130807578E+02  9.257589290E+02  1.250000000E+02  0.00000E+00  9.000E+00
       5     1     1     2   502     0  1.308906834E+02  3.143321472E+02 -1.122986325E+03  1.173471498E+03  2.157918644E-05  0.00000E+00  9.000E+00
#rwgt            2          16   5.9742316540127972E-004          10      189683           0
</event>
<event>
      5   9999  3.19816E-02  1.00019E+02 -1.00000E+00  1.23824E-01
      21    -1     0     0   502   511  0.000000000E+00  0.000000000E+00  1.074955134E+02  1.074955134E+02  0.000000000E+00  0.00000E+00  9.000E+00
      21    -1     0     0   501   502  0.000000000E+00  0.000000000E+00 -1.174156796E+03  1.174156796E+03  0.000000000E+00  0.00000E+00  9.000E+00
      25     1     1     2     0     0  2.214309520E+02 -1.448675224E+02 -8.081942629E+02  8.595471087E+02  1.250000000E+02  0.00000E+00  9.000E+00
      25     1     1     2     0     0 -1.214136669E+02  1.455295554E+02 -1.386341540E+02  2.660160872E+02  1.250000000E+02  0.00000E+00  9.000E+00
      21     1     1     2   501   511 -1.000172852E+02 -6.620329617E-01 -1.198328653E+02  1.560891131E+02  1.348699152E-06  0.00000E+00  9.000E+00
#rwgt            1           1   3.4242970504398375E-002          10      189732           0
</event>
<event>
      5   9999  3.19816E-02  2.68768E+01 -1.00000E+00  1.56432E-01
      21    -1     0     0   502   501  0.000000000E+00  0.000000000E+00  3.426951492E+02  3.426951492E+02  0.000000000E+00  0.00000E+00  9.000E+00
       2    -1     0     0   501     0  0.000000000E+00  0.000000000E+00 -3.630230449E+02  3.630230449E+02  0.000000000E+00  0.00000E+00  9.000E+00
      25     1     1     2     0     0  1.198896691E+02  1.610276080E+02 -2.261603973E+02  3.272261429E+02  1.250000000E+02  0.00000E+00  9.000E+00
      25     1     1     2     0     0 -1.000894183E+02 -1.792020984E+02  2.368686198E+02  3.374359595E+02  1.250000000E+02  0.00000E+00  9.000E+00
       2     1     1     2   502     0 -1.980025082E+01  1.817449036E+01 -3.103611828E+01  4.105609175E+01  6.743495762E-07  0.00000E+00  9.000E+00
#rwgt            1           1   2.7623807177363034E-002          10      189794           0
</event>
<event>
      5   9999  3.19816E-02  7.54765E+01 -1.00000E+00  1.29585E-01
       1    -1     0     0   502     0  0.000000000E+00  0.000000000E+00  1.220608271E+02  1.220608271E+02  0.000000000E+00  0.00000E+00  9.000E+00
      21    -1     0     0   501   502  0.000000000E+00  0.000000000E+00 -1.266239049E+03  1.266239049E+03  0.000000000E+00  0.00000E+00  9.000E+00
      25     1     1     2     0     0 -3.594378232E+01 -5.182151308E+01 -1.077982004E+03  1.087036165E+03  1.250000000E+02  0.00000E+00  9.000E+00
      25     1     1     2     0     0  1.113462567E+02  4.847975958E+01 -1.173324582E+02  2.100956490E+02  1.250000000E+02  0.00000E+00  9.000E+00
       1     1     1     2   501     0 -7.540247443E+01  3.341753501E+00  5.113623981E+01  9.116806178E+01  2.336015456E-06  0.00000E+00  9.000E+00
#rwgt            1           1   3.1092348820225921E-002          10      190000           0
</event>
<event>
      5   9999  3.19816E-02  4.39520E+02 -1.00000E+00  1.00469E-01
      21    -1     0     0   502   501  0.000000000E+00  0.000000000E+00  5.110812369E+02  5.110812369E+02  0.000000000E+00  0.00000E+00  9.000E+00
      21    -1     0     0   511   502  0.000000000E+00  0.000000000E+00 -1.292884828E+03  1.292884828E+03  0.000000000E+00  0.00000E+00  9.000E+00
      25     1     1     2     0     0  1.383083323E+00 -2.710190008E+02  2.976848069E+02  4.215382023E+02  1.250000000E+02  0.00000E+00  9.000E+00
      25     1     1     2     0     0 -3.135436229E+02 -3.838993076E+01 -1.874848301E+02  3.880192673E+02  1.250000000E+02  0.00000E+00  9.000E+00
      21     1     1     2   511   501  3.121605396E+02  3.094089316E+02 -8.920035684E+02  9.944085958E+02  1.078959322E-05  0.00000E+00  9.000E+00
#rwgt            2          11   2.2777120767335578E-003          10      190179           0
</event>
<event>
      5   9999  3.19816E-02  2.83616E+01 -1.00000E+00  1.54753E-01
      21    -1     0     0   502   501  0.000000000E+00  0.000000000E+00  3.731133121E+02  3.731133121E+02  0.000000000E+00  0.00000E+00  9.000E+00
      21    -1     0     0   501   512  0.000000000E+00  0.000000000E+00 -1.841310253E+02  1.841310253E+02  0.000000000E+00  0.00000E+00  9.000E+00
      25     1     1     2     0     0  1.075579880E+02  1.578531178E+01  2.845795845E+02  3.292847351E+02  1.250000000E+02  0.00000E+00  9.000E+00
      25     1     1     2     0     0 -1.019348106E+02  1.201323558E+01 -4.165921701E+01  1.670195012E+02  1.250000000E+02  0.00000E+00  9.000E+00
      21     1     1     2   502   512 -5.623177468E+00 -2.779854736E+01 -5.393808070E+01  6.094010100E+01  9.536743164E-07  0.00000E+00  9.000E+00
#rwgt            1           1   2.5513207353233678E-002          10      190199           0
</event>
<event>
      5   9999  3.19816E-02  2.08519E+02 -1.00000E+00  1.10993E-01
      21    -1     0     0   502   501  0.000000000E+00  0.000000000E+00  5.487272222E+02  5.487272222E+02  0.000000000E+00  0.00000E+00  9.000E+00
      -2    -1     0     0     0   502  0.000000000E+00  0.000000000E+00 -1.172124216E+03  1.172124216E+03  0.000000000E+00  0.00000E+00  9.000E+00
      25     1     1     2     0     0  1.601976864E+02 -1.461072186E+02  4.926611946E+02  5.525854420E+02  1.250000000E+02  0.00000E+00  9.000E+00
      25     1     1     2     0     0  1.745997589E+01  3.693798329E+01 -3.360018011E+02  3.608205589E+02  1.250000000E+02  0.00000E+00  9.000E+00
      -2     1     1     2     0   501 -1.776576623E+02  1.091692353E+02 -7.800563875E+02  8.074454376E+02  0.000000000E+00  0.00000E+00  9.000E+00
#rwgt            2           9   1.1214389784107502E-004          10      190490           0
</event>
<event>
      5   9999  3.19816E-02  1.40347E+02 -1.00000E+00  1.17550E-01
      21    -1     0     0   511   501  0.000000000E+00  0.000000000E+00  4.398906161E+02  4.398906161E+02  0.000000000E+00  0.00000E+00  9.000E+00
      21    -1     0     0   501   502  0.000000000E+00  0.000000000E+00 -2.440929651E+02  2.440929651E+02  0.000000000E+00  0.00000E+00  9.000E+00
      25     1     1     2     0     0 -1.902181524E+01 -6.398867898E+01 -1.488153605E+02  2.054930461E+02  1.250000000E+02  0.00000E+00  9.000E+00
      25     1     1     2     0     0  1.384515554E+02 -9.725111711E+00  2.363048129E+02  3.012115131E+02  1.250000000E+02  0.00000E+00  9.000E+00
      21     1     1     2   511   502 -1.194297402E+02  7.371379069E+01  1.083081985E+02  1.772790220E+02  1.907348633E-06  0.00000E+00  9.000E+00
#rwgt            1           1   2.8521786430107266E-002          10      190524           0
</event>
<event>
      5   9999  3.19816E-02  6.58710E+01 -1.00000E+00  1.32572E-01
      21    -1     0     0   502   512  0.000000000E+00  0.000000000E+00  2.164900558E+03  2.164900558E+03  0.000000000E+00  0.00000E+00  9.000E+00
      21    -1     0     0   501   502  0.000000000E+00  0.000000000E+00 -6.243464129E+02  6.243464129E+02  0.000000000E+00  0.00000E+00  9.000E+00
      25     1     1     2     0     0 -6.104451378E+02  4.674889935E+02  6.110284613E+02  9.900353559E+02  1.250000000E+02  0.00000E+00  9.000E+00
      25     1     1     2     0     0  5.489426295E+02 -4.910778152E+02 -1.121584713E+02  7.554468570E+02  1.250000000E+02  0.00000E+00  9.000E+00
      21     1     1     2   501   512  6.150250834E+01  2.358882173E+01  1.041684155E+03  1.043764758E+03  1.525878906E-05  0.00000E+00  9.000E+00
#rwgt            1           1   2.8488978789658788E-002          10      190560           0
</event>
<event>
      5   9999  3.19816E-02  1.91344E+01 -1.00000E+00  1.67970E-01
      21    -1     0     0   502   501  0.000000000E+00  0.000000000E+00  1.735014665E+03  1.735014665E+03  0.000000000E+00  0.00000E+00  9.000E+00
      -2    -1     0     0     0   502  0.000000000E+00  0.000000000E+00 -2.747558581E+02  2.747558581E+02  0.000000000E+00  0.00000E+00  9.000E+00
      25     1     1     2     0     0 -2.212224823E+02 -9.931396681E+01  9.529509868E+02  9.912331885E+02  1.250000000E+02  0.00000E+00  9.000E+00
      25     1     1     2     0     0  2.401213772E+02  9.632092444E+01  7.354536877E+02  7.895904780E+02  1.250000000E+02  0.00000E+00  9.000E+00
      -2     1     1     2     0   501 -1.889889488E+01  2.993042373E+00 -2.281458673E+02  2.289468569E+02  4.672030912E-06  0.00000E+00  9.000E+00
#rwgt            1           1   3.1000875588486389E-002          10      190680           0
</event>
<event>
      5   9999  3.19816E-02  2.12171E+02 -1.00000E+00  1.10722E-01
      21    -1     0     0   502   511  0.000000000E+00  0.000000000E+00  6.444806401E+02  6.444806401E+02  0.000000000E+00  0.00000E+00  9.000E+00
      21    -1     0     0   501   502  0.000000000E+00  0.000000000E+00 -2.166606310E+02  2.166606310E+02  0.000000000E+00  0.00000E+00  9.000E+00
      25     1     1     2     0     0 -7.249801793E+01  1.506859872E+02 -9.933782830E+00  2.090117446E+02  1.250000000E+02  0.00000E+00  9.000E+00
      25     1     1     2     0     0  2.367215427E+02 -1.634660230E+01  2.080571503E+02  3.394364123E+02  1.250000000E+02  0.00000E+00  9.000E+00
      21     1     1     2   501   511 -1.642235248E+02 -1.343393849E+02  2.296966416E+02  3.126931141E+02  2.697398305E-06  0.00000E+00  9.000E+00
#rwgt            1           1   2.7499446552888149E-002          10      190855           0
</event>
<event>
      5   9999  3.19816E-02  1.19871E+02 -1.00000E+00  1.20388E-01
      21    -1     0     0   502   501  0.000000000E+00  0.000000000E+00  5.729712776E+02  5.729712776E+02  0.000000000E+00  0.00000E+00  9.000E+00
      21    -1     0     0   512   502  0.000000000E+00  0.000000000E+00 -1.867295380E+02  1.867295380E+02  0.000000000E+00  0.00000E+00  9.000E+00
      25     1     1     2     0     0  9.883838381E+01  6.318767596E+01  4.574925859E+02  4.885551910E+02  1.250000000E+02  0.00000E+00  9.000E+00
      25     1     1     2     0     0 -2.181694806E+01  2.866421433E+01 -7.694480869E+01  1.511394058E+02  1.250000000E+02  0.00000E+00  9.000E+00
      21     1     1     2   512   501 -7.702143575E+01 -9.185189029E+01  5.693962379E+00  1.200062187E+02  1.886748289E-06  0.00000E+00  9.000E+00
#rwgt            2          11   3.3855157834297364E-003          10      190913           0
</event>
<event>
      5   9999  3.19816E-02  1.59269E+01 -1.00000E+00  1.74965E-01
      21    -1     0     0   511   501  0.000000000E+00  0.000000000E+00  3.167657895E+01  3.167657895E+01  0.000000000E+00  0.00000E+00  9.000E+00
      21    -1     0     0   501   502  0.000000000E+00  0.000000000E+00 -1.724022581E+03  1.724022581E+03  0.000000000E+00  0.00000E+00  9.000E+00
      25     1     1     2     0     0 -1.850268496E+02  2.790072037E+01 -8.390310031E+02  8.686837223E+02  1.250000000E+02  0.00000E+00  9.000E+00
      25     1     1     2     0     0  1.833545961E+02 -4.373962311E+01 -8.022987362E+02  8.335708276E+02  1.250000000E+02  0.00000E+00  9.000E+00
      21     1     1     2   511   502  1.672253460E+00  1.583890274E+01 -5.101626252E+01  5.344460976E+01  9.536743164E-07  0.00000E+00  9.000E+00
#rwgt            1           1   2.6536021153831506E-002          10      190933           0
</event>
<event>
      5   9999  3.19816E-02  1.31519E+02 -1.00000E+00  1.18703E-01
      21    -1     0     0   502   501  0.000000000E+00  0.000000000E+00  1.707199767E+02  1.707199767E+02  0.000000000E+00  0.00000E+00  9.000E+00
      21    -1     0     0   512   502  0.000000000E+00  0.000000000E+00 -1.115769591E+03  1.115769591E+03  0.000000000E+00  0.00000E+00  9.000E+00
      25     1     1     2     0     0  1.881108957E+01  3.344939078E+02 -1.796088190E+02  4.001554189E+02  1.250000000E+02  0.00000E+00  9.000E+00
      25     1     1     2     0     0  9.710929222E+01 -2.723683354E+02 -5.551413014E+02  6.382958478E+02  1.250000000E+02  0.00000E+00  9.000E+00
      21     1     1     2   512   501 -1.159203818E+02 -6.212557232E+01 -2.102994937E+02  2.480383009E+02  2.697398305E-06  0.00000E+00  9.000E+00
#rwgt            1           1   2.9508721620620956E-002          10      191084           0
</event>
<event>
      5   9999  3.19816E-02  4.63554E+01 -1.00000E+00  1.40977E-01
      21    -1     0     0   502   501  0.000000000E+00  0.000000000E+00  1.071525148E+03  1.071525148E+03  0.000000000E+00  0.00000E+00  9.000E+00
      21    -1     0     0   511   502  0.000000000E+00  0.000000000E+00 -1.016549968E+02  1.016549968E+02  0.000000000E+00  0.00000E+00  9.000E+00
      25     1     1     2     0     0 -1.647948324E+02 -1.745665748E+02  6.253249376E+02  6.813861632E+02  1.250000000E+02  0.00000E+00  9.000E+00
      25     1     1     2     0     0  1.677418127E+02  2.208281716E+02  3.065509812E+02  4.318575010E+02  1.250000000E+02  0.00000E+00  9.000E+00
      21     1     1     2   511   501 -2.946980395E+00 -4.626159679E+01  3.799423286E+01  5.993648105E+01  8.259061849E-07  0.00000E+00  9.000E+00
#rwgt            1           1   3.0281831090252991E-002          10      191128           0
</event>
<event>
      5   9999  3.19816E-02  1.78051E+02 -1.00000E+00  1.13517E-01
      21    -1     0     0   512   501  0.000000000E+00  0.000000000E+00  1.978858805E+03  1.978858805E+03  0.000000000E+00  0.00000E+00  9.000E+00
      21    -1     0     0   501   502  0.000000000E+00  0.000000000E+00 -2.084816141E+03  2.084816141E+03  0.000000000E+00  0.00000E+00  9.000E+00
      25     1     1     2     0     0  1.135378621E+03 -8.994647493E+02 -7.452060852E+02  1.633731483E+03  1.250000000E+02  0.00000E+00  9.000E+00
      25     1     1     2     0     0 -1.271994337E+03  1.013650923E+03 -1.336999572E+02  1.636752414E+03  1.250000000E+02  0.00000E+00  9.000E+00
      21     1     1     2   512   502  1.366157160E+02 -1.141861736E+02  7.729487065E+02  7.931910482E+02  1.078959322E-05  0.00000E+00  9.000E+00
#rwgt            1           1   2.9730254053146801E-002          10      191262           0
</event>
<event>
      5   9999  3.19816E-02  3.26150E+01 -1.00000E+00  1.50561E-01
      21    -1     0     0   511   501  0.000000000E+00  0.000000000E+00  5.488300693E+02  5.488300693E+02  0.000000000E+00  0.00000E+00  9.000E+00
      21    -1     0     0   501   502  0.000000000E+00  0.000000000E+00 -1.512720663E+02  1.512720663E+02  0.000000000E+00  0.00000E+00  9.000E+00
      25     1     1     2     0     0 -5.735691283E+01  1.240214240E+02  3.217250801E+00  1.852200846E+02  1.250000000E+02  0.00000E+00  9.000E+00
      25     1     1     2     0     0  7.375269781E+01 -9.582714069E+01  6.771980366E+01  1.866367411E+02  1.250000000E+02  0.00000E+00  9.000E+00
      21     1     1     2   511   502 -1.639578498E+01 -2.819428327E+01  3.266209486E+02  3.282453099E+02  3.814697266E-06  0.00000E+00  9.000E+00
#rwgt            1           1   2.5120485082841915E-002          10      191355           0
</event>
<event>
      5   9999  3.19816E-02  1.22655E+01 -1.00000E+00  1.86034E-01
      21    -1     0     0   502   501  0.000000000E+00  0.000000000E+00  2.530775903E+01  2.530775903E+01  0.000000000E+00  0.00000E+00  9.000E+00
      21    -1     0     0   512   502  0.000000000E+00  0.000000000E+00 -1.003069688E+03  1.003069688E+03  0.000000000E+00  0.00000E+00  9.000E+00
      25     1     1     2     0     0  1.459238792E+01 -8.084707087E+01 -5.059584496E+02  5.276060456E+02  1.250000000E+02  0.00000E+00  9.000E+00
      25     1     1     2     0     0 -1.416397247E+01  6.858909352E+01 -3.477335368E+02  3.760966557E+02  1.250000000E+02  0.00000E+00  9.000E+00
      21     1     1     2   512   501 -4.284154520E-01  1.225797736E+01 -1.240699427E+02  1.246747457E+02  0.000000000E+00  0.00000E+00  9.000E+00
#rwgt            1           1   4.9583769194579269E-002          10      191525           0
</event>
<event>
      5   9999  3.19816E-02  3.41378E+01 -1.00000E+00  1.49242E-01
      21    -1     0     0   502   501  0.000000000E+00  0.000000000E+00  2.949267474E+01  2.949267474E+01  0.000000000E+00  0.00000E+00  9.000E+00
      21    -1     0     0   501   511  0.000000000E+00  0.000000000E+00 -1.233500838E+03  1.233500838E+03  0.000000000E+00  0.00000E+00  9.000E+00
      25     1     1     2     0     0 -1.400895439E+01  7.538279089E+01 -4.378677688E+02  4.617705046E+02  1.250000000E+02  0.00000E+00  9.000E+00
      25     1     1     2     0     0  3.793421259E+01 -5.103185458E+01 -2.731229090E+02  3.070250448E+02  1.250000000E+02  0.00000E+00  9.000E+00
      21     1     1     2   502   511 -2.392525820E+01 -2.435093630E+01 -4.930174854E+02  4.941979633E+02  7.629394531E-06  0.00000E+00  9.000E+00
#rwgt            1           1   3.8988018693771484E-002          10      191677           0
</event>
<event>
      5   9999  3.19816E-02  9.76871E+01 -1.00000E+00  1.24287E-01
      21    -1     0     0   502   501  0.000000000E+00  0.000000000E+00  8.718064764E+02  8.718064764E+02  0.000000000E+00  0.00000E+00  9.000E+00
      -1    -1     0     0     0   502  0.000000000E+00  0.000000000E+00 -1.620552202E+03  1.620552202E+03  0.000000000E+00  0.00000E+00  9.000E+00
      25     1     1     2     0     0  1.189113338E+02 -5.261715634E+01 -1.162950980E+01  1.807448919E+02  1.250000000E+02  0.00000E+00  9.000E+00
      25     1     1     2     0     0 -3.038189389E+01  1.132173548E+01  7.803719577E+02  7.909845975E+02  1.250000000E+02  0.00000E+00  9.000E+00
      -1     1     1     2     0   501 -8.852943996E+01  4.129542086E+01 -1.517488173E+03  1.520629189E+03  0.000000000E+00  0.00000E+00  9.000E+00
#rwgt            1           1   2.3698437416347216E-002          10      191723           0
</event>
<event>
      5   9999  3.19816E-02  1.85906E+02 -1.00000E+00  1.12816E-01
      21    -1     0     0   502   501  0.000000000E+00  0.000000000E+00  6.973138886E+02  6.973138886E+02  0.000000000E+00  0.00000E+00  9.000E+00
      21    -1     0     0   501   511  0.000000000E+00  0.000000000E+00 -1.865800847E+03  1.865800847E+03  0.000000000E+00  0.00000E+00  9.000E+00
      25     1     1     2     0     0 -4.575761835E+02  6.974094956E+02 -8.740419915E+02  1.214631784E+03  1.250000000E+02  0.00000E+00  9.000E+00
      25     1     1     2     0     0  3.784860121E+02 -8.656523692E+02  5.294077331E+01  9.544807024E+02  1.250000000E+02  0.00000E+00  9.000E+00
      21     1     1     2   502   511  7.909017146E+01  1.682428736E+02 -3.473857397E+02  3.940022486E+02  3.814697266E-06  0.00000E+00  9.000E+00
#rwgt            2          11   5.1739252057079275E-003          10      192025           0
</event>
<event>
      5   9999  3.19816E-02  6.91564E+01 -1.00000E+00  1.31488E-01
      21    -1     0     0   502   501  0.000000000E+00  0.000000000E+00  1.020707834E+02  1.020707834E+02  0.000000000E+00  0.00000E+00  9.000E+00
      21    -1     0     0   512   502  0.000000000E+00  0.000000000E+00 -1.486798465E+03  1.486798465E+03  0.000000000E+00  0.00000E+00  9.000E+00
      25     1     1     2     0     0 -7.854885020E+01 -1.533524712E+02 -6.184706906E+02  6.540778986E+02  1.250000000E+02  0.00000E+00  9.000E+00
      25     1     1     2     0     0  3.318735715E+01  1.011514257E+02  1.231332822E+00  1.641935680E+02  1.250000000E+02  0.00000E+00  9.000E+00
      21     1     1     2   512   501  4.536149305E+01  5.220104556E+01 -7.674883239E+02  7.705977819E+02  1.078959322E-05  0.00000E+00  9.000E+00
#rwgt            1           1   2.8455565645832539E-002          10      192075           0
</event>
<event>
      5   9999  3.19816E-02  4.65751E+01 -1.00000E+00  1.40857E-01
      21    -1     0     0   502   511  0.000000000E+00  0.000000000E+00  9.859165724E+02  9.859165724E+02  0.000000000E+00  0.00000E+00  9.000E+00
      21    -1     0     0   501   502  0.000000000E+00  0.000000000E+00 -2.158124463E+02  2.158124463E+02  0.000000000E+00  0.00000E+00  9.000E+00
      25     1     1     2     0     0  4.389389372E+00  1.857714336E+01 -1.806204329E+02  2.204838266E+02  1.250000000E+02  0.00000E+00  9.000E+00
      25     1     1     2     0     0 -3.980177674E+01 -4.882945047E+01  9.057417216E+02  9.164941696E+02  1.250000000E+02  0.00000E+00  9.000E+00
      21     1     1     2   501   511  3.541238736E+01  3.025230711E+01  4.498283738E+01  6.475102256E+01  6.743495762E-07  0.00000E+00  9.000E+00
#rwgt            1           1   3.0933614120820022E-002          10      192157           0
</event>
<event>
      5   9999  3.19816E-02  1.51933E+02 -1.00000E+00  1.16174E-01
       2    -1     0     0   502     0  0.000000000E+00  0.000000000E+00  3.869103969E+03  3.869103969E+03  0.000000000E+00  0.00000E+00  9.000E+00
      21    -1     0     0   501   502  0.000000000E+00  0.000000000E+00 -3.064170018E+01  3.064170018E+01  0.000000000E+00  0.00000E+00  9.000E+00
      25     1     1     2     0     0  2.463685235E+02  1.609546901E+02  1.684072404E+03  1.714155396E+03  1.250000000E+02  0.00000E+00  9.000E+00
      25     1     1     2     0     0 -9.627215096E+01 -1.374051780E+02  1.448741194E+03  1.463770664E+03  1.250000000E+02  0.00000E+00  9.000E+00
       2     1     1     2   501     0 -1.500963725E+02 -2.354951210E+01  7.056486709E+02  7.218196086E+02  0.000000000E+00  0.00000E+00  9.000E+00
#rwgt            1           1   2.6166956380405178E-002          10      192265           0
</event>
<event>
      5   9999  3.19816E-02  1.00849E+02 -1.00000E+00  1.23663E-01
      21    -1     0     0   502   511  0.000000000E+00  0.000000000E+00  4.132173732E+02  4.132173732E+02  0.000000000E+00  0.00000E+00  9.000E+00
      21    -1     0     0   501   502  0.000000000E+00  0.000000000E+00 -2.448490897E+02  2.448490897E+02  0.000000000E+00  0.00000E+00  9.000E+00
      25     1     1     2     0     0  1.048617502E+02 -9.083695691E+01 -2.818976740E+01  1.888570951E+02  1.250000000E+02  0.00000E+00  9.000E+00
      25     1     1     2     0     0 -1.527849403E+02  1.795713662E+02  2.219361927E+01  2.677810118E+02  1.250000000E+02  0.00000E+00  9.000E+00
      21     1     1     2   501   511  4.792319014E+01 -8.873440926E+01  1.743644317E+02  2.014283559E+02  3.303624740E-06  0.00000E+00  9.000E+00
#rwgt            1           1   2.9705720349390768E-002          10      192333           0
</event>
<event>
      5   9999  3.19816E-02  6.41157E+02 -1.00000E+00  9.58779E-02
      21    -1     0     0   502   512  0.000000000E+00  0.000000000E+00  7.225525353E+02  7.225525353E+02  0.000000000E+00  0.00000E+00  9.000E+00
      21    -1     0     0   501   502  0.000000000E+00  0.000000000E+00 -3.125326063E+03  3.125326063E+03  0.000000000E+00  0.00000E+00  9.000E+00
      25     1     1     2     0     0 -4.541970090E+02  9.069099762E+02 -1.783680092E+03  2.055704331E+03  1.250000000E+02  0.00000E+00  9.000E+00
      25     1     1     2     0     0 -5.462451973E+01 -5.168044321E+02 -9.353208222E+02  1.077274663E+03  1.250000000E+02  0.00000E+00  9.000E+00
      21     1     1     2   501   512  5.088215287E+02 -3.901055441E+02  3.162273865E+02  7.148996038E+02  0.000000000E+00  0.00000E+00  9.000E+00
#rwgt            2          11   7.8239467583316111E-003          10      192611           0
</event>
<event>
      5   9999  3.19816E-02  2.35946E+02 -1.00000E+00  1.09096E-01
      21    -1     0     0   511   501  0.000000000E+00  0.000000000E+00  1.587886938E+03  1.587886938E+03  0.000000000E+00  0.00000E+00  9.000E+00
      21    -1     0     0   501   502  0.000000000E+00  0.000000000E+00 -1.482744297E+02  1.482744297E+02  0.000000000E+00  0.00000E+00  9.000E+00
      25     1     1     2     0     0  2.300364169E+01 -4.455839929E+02  7.513144141E+02  8.827075457E+02  1.250000000E+02  0.00000E+00  9.000E+00
      25     1     1     2     0     0  6.237171767E+01  2.256260375E+02  3.155208703E+02  4.122811657E+02  1.250000000E+02  0.00000E+00  9.000E+00
      21     1     1     2   511   502 -8.537535936E+01  2.199579554E+02  3.727772236E+02  4.411726562E+02  0.000000000E+00  0.00000E+00  9.000E+00
#rwgt            1           1   2.8319052627757673E-002          10      192646           0
</event>
<event>
      5   9999  3.19816E-02  1.96848E+02 -1.00000E+00  1.11900E-01
      21    -1     0     0   502   501  0.000000000E+00  0.000000000E+00  1.126950582E+03  1.126950582E+03  0.000000000E+00  0.00000E+00  9.000E+00
      21    -1     0     0   501   512  0.000000000E+00  0.000000000E+00 -2.774685863E+02  2.774685863E+02  0.000000000E+00  0.00000E+00  9.000E+00
      25     1     1     2     0     0  1.238980637E+02  2.989660691E+02  3.356985039E+02  4.827524481E+02  1.250000000E+02  0.00000E+00  9.000E+00
      25     1     1     2     0     0  2.085985381E+01 -4.323618878E+02  5.607120784E+02  7.193017242E+02  1.250000000E+02  0.00000E+00  9.000E+00
      21     1     1     2   502   512 -1.447579175E+02  1.333958187E+02 -4.692858705E+01  2.023649955E+02  3.090257978E-06  0.00000E+00  9.000E+00
#rwgt            1           1   2.8444221994049952E-002          10      192685           0
</event>
<event>
      5   9999  3.19816E-02  6.50133E+01 -1.00000E+00  1.32867E-01
       2    -1     0     0   502     0  0.000000000E+00  0.000000000E+00  3.610466497E+03  3.610466497E+03  0.000000000E+00  0.00000E+00  9.000E+00
      21    -1     0     0   501   502  0.000000000E+00  0.000000000E+00 -1.006688833E+03  1.006688833E+03  0.000000000E+00  0.00000E+00  9.000E+00
      25     1     1     2     0     0  4.077019680E+02 -1.015940872E+03  3.620500973E+01  1.102403081E+03  1.250000000E+02  0.00000E+00  9.000E+00
      25     1     1     2     0     0 -3.444346146E+02  1.030906731E+03  1.593259734E+02  1.105628173E+03  1.250000000E+02  0.00000E+00  9.000E+00
       2     1     1     2   501     0 -6.326735341E+01 -1.496585892E+01  2.408246681E+03  2.409124075E+03  0.000000000E+00  0.00000E+00  9.000E+00
#rwgt            1           1   2.8952941502737493E-002          10      192730           0
</event>
<event>
      5   9999  3.19816E-02  6.71373E+01 -1.00000E+00  1.32146E-01
      21    -1     0     0   502   501  0.000000000E+00  0.000000000E+00  9.085517725E+01  9.085517725E+01  0.000000000E+00  0.00000E+00  9.000E+00
       2    -1     0     0   501     0  0.000000000E+00  0.000000000E+00 -3.774676306E+03  3.774676306E+03  0.000000000E+00  0.00000E+00  9.000E+00
      25     1     1     2     0     0 -1.509877083E+02 -1.256666461E+02 -2.014016966E+02  3.078587946E+02  1.250000000E+02  0.00000E+00  9.000E+00
      25     1     1     2     0     0  2.174553501E+02  1.162080678E+02 -4.755818018E+02  5.500856247E+02  1.250000000E+02  0.00000E+00  9.000E+00
       2     1     1     2   502     0 -6.646764180E+01  9.458578333E+00 -3.006837630E+03  3.007587064E+03  4.315837288E-05  0.00000E+00  9.000E+00
#rwgt            1           1   3.2399498719907244E-002          10      192867           0
</event>
<event>
      5   9999  3.19816E-02  2.20978E+01 -1.00000E+00  1.62872E-01
      21    -1     0     0   502   511  0.000000000E+00  0.000000000E+00  1.127354145E+03  1.127354145E+03  0.000000000E+00  0.00000E+00  9.000E+00
      21    -1     0     0   501   502  0.000000000E+00  0.000000000E+00 -6.701817925E+02  6.701817925E+02  0.000000000E+00  0.00000E+00  9.000E+00
      25     1     1     2     0     0 -1.812405960E+02 -2.228463294E+02  1.019471780E+03  1.066515987E+03  1.250000000E+02  0.00000E+00  9.000E+00
      25     1     1     2     0     0  1.929198910E+02  2.040871709E+02 -6.074224594E+02  6.807765433E+02  1.250000000E+02  0.00000E+00  9.000E+00
      21     1     1     2   501   511 -1.167929508E+01  1.875915854E+01  4.512303153E+01  5.024340690E+01  4.768371582E-07  0.00000E+00  9.000E+00
#rwgt            1           1   3.6366828820597948E-002          10      192911           0
</event>
<event>
      5   9999  3.19816E-02  1.10640E+01 -1.00000E+00  1.90814E-01
      21    -1     0     0   502   501  0.000000000E+00  0.000000000E+00  2.603921403E+02  2.603921403E+02  0.000000000E+00  0.00000E+00  9.000E+00
      21    -1     0     0   512   502  0.000000000E+00  0.000000000E+00 -5.232637960E+02  5.232637960E+02  0.000000000E+00  0.00000E+00  9.000E+00
      25     1     1     2     0     0  1.921271845E+02 -1.570670860E+02 -3.395257631E+02  4.387318867E+02  1.250000000E+02  0.00000E+00  9.000E+00
      25     1     1     2     0     0 -1.968046812E+02  1.470405075E+02  1.196775534E+02  3.005007657E+02  1.250000000E+02  0.00000E+00  9.000E+00
      21     1     1     2   512   501  4.677496616E+00  1.002657850E+01 -4.302344594E+01  4.442328389E+01  0.000000000E+00  0.00000E+00  9.000E+00
#rwgt            1           1   2.8257638563643550E-002          10      193199           0
</event>
<event>
      5   9999  3.19816E-02  1.61797E+02 -1.00000E+00  1.15105E-01
      21    -1     0     0   502   511  0.000000000E+00  0.000000000E+00  1.120116695E+03  1.120116695E+03  0.000000000E+00  0.00000E+00  9.000E+00
      21    -1     0     0   501   502  0.000000000E+00  0.000000000E+00 -2.879300352E+02  2.879300352E+02  0.000000000E+00  0.00000E+00  9.000E+00
      25     1     1     2     0     0  1.920089519E+02 -1.269864377E+02 -8.438522094E+01  2.752069376E+02  1.250000000E+02  0.00000E+00  9.000E+00
      25     1     1     2     0     0 -3.975227734E+01  7.225025696E+01 -4.608424467E+01  1.566815266E+02  1.250000000E+02  0.00000E+00  9.000E+00
      21     1     1     2   501   511 -1.522566746E+02  5.473618075E+01  9.626561253E+02  9.761582659E+02  1.078959322E-05  0.00000E+00  9.000E+00
#rwgt            1           1   2.9379409313886759E-002          10      193481           0
</event>
<event>
      5   9999  3.19816E-02  3.61527E+01 -1.00000E+00  1.47618E-01
      21    -1     0     0   502   512  0.000000000E+00  0.000000000E+00  2.681257935E+03  2.681257935E+03  0.000000000E+00  0.00000E+00  9.000E+00
      21    -1     0     0   501   502  0.000000000E+00  0.000000000E+00 -1.012754412E+02  1.012754412E+02  0.000000000E+00  0.00000E+00  9.000E+00
      25     1     1     2     0     0  7.030361521E+01 -2.053820008E+02  7.780506455E+01  2.623032456E+02  1.250000000E+02  0.00000E+00  9.000E+00
      25     1     1     2     0     0 -7.236603176E+01  1.692881285E+02  1.409818156E+03  1.427272765E+03  1.250000000E+02  0.00000E+00  9.000E+00
      21     1     1     2   501   512  2.062416558E+00  3.609387235E+01  1.092359273E+03  1.092957365E+03  1.525878906E-05  0.00000E+00  9.000E+00
#rwgt            1           1   3.0590886515058507E-002          10      193538           0
</event>
<event>
      5   9999  3.19816E-02  3.54160E+01 -1.00000E+00  1.48197E-01
      21    -1     0     0   502   501  0.000000000E+00  0.000000000E+00  8.410670371E+01  8.410670371E+01  0.000000000E+00  0.00000E+00  9.000E+00
      21    -1     0     0   501   511  0.000000000E+00  0.000000000E+00 -7.830941493E+02  7.830941493E+02  0.000000000E+00  0.00000E+00  9.000E+00
      25     1     1     2     0     0 -3.341534137E+00 -1.655096279E+02 -3.089106322E+02  3.720959305E+02  1.250000000E+02  0.00000E+00  9.000E+00
      25     1     1     2     0     0  3.635248633E+01  1.783380392E+02 -1.881284439E+02  2.900745954E+02  1.250000000E+02  0.00000E+00  9.000E+00
      21     1     1     2   502   511 -3.301095220E+01 -1.282841135E+01 -2.019483695E+02  2.050303271E+02  0.000000000E+00  0.00000E+00  9.000E+00
#rwgt            1           1   2.9465717309110979E-002          10      193664           0
</event>
<event>
      5   9999  3.19816E-02  2.30372E+02 -1.00000E+00  1.09458E-01
      21    -1     0     0   502   512  0.000000000E+00  0.000000000E+00  2.280447271E+03  2.280447271E+03  0.000000000E+00  0.00000E+00  9.000E+00
      21    -1     0     0   501   502  0.000000000E+00  0.000000000E+00 -5.159514080E+02  5.159514080E+02  0.000000000E+00  0.00000E+00  9.000E+00
      25     1     1     2     0     0  7.988640647E+02 -7.851547094E+01  3.058626489E+02  8.680584272E+02  1.250000000E+02  0.00000E+00  9.000E+00
      25     1     1     2     0     0 -1.022627739E+03  2.373484902E+01  1.172615714E+03  1.561084062E+03  1.250000000E+02  0.00000E+00  9.000E+00
      21     1     1     2   501   512  2.237636745E+02  5.478062192E+01  2.860175005E+02  3.672561901E+02  3.814697266E-06  0.00000E+00  9.000E+00
#rwgt            2          11   5.9839064891750952E-003          10      193802           0
</event>
<event>
      5   9999  3.19816E-02  4.12412E+01 -1.00000E+00  1.44022E-01
      21    -1     0     0   511   501  0.000000000E+00  0.000000000E+00  1.405211327E+03  1.405211327E+03  0.000000000E+00  0.00000E+00  9.000E+00
      21    -1     0     0   501   502  0.000000000E+00  0.000000000E+00 -1.182879223E+02  1.182879223E+02  0.000000000E+00  0.00000E+00  9.000E+00
      25     1     1     2     0     0 -3.358459179E+02 -1.475584802E+02  4.154664563E+02  5.681578671E+02  1.250000000E+02  0.00000E+00  9.000E+00
      25     1     1     2     0     0  2.967616240E+02  1.343958544E+02  7.531976612E+02  8.300972376E+02  1.250000000E+02  0.00000E+00  9.000E+00
      21     1     1     2   511   502  3.908429392E+01  1.316262580E+01  1.182592874E+02  1.252441448E+02  1.907348633E-06  0.00000E+00  9.000E+00
#rwgt            1           1   2.8720550181930395E-002          10      193822           0
</event>
<event>
      5   9999  3.19816E-02  2.16736E+02 -1.00000E+00  1.10392E-01
      21    -1     0     0   502   501  0.000000000E+00  0.000000000E+00  4.459985498E+02  4.459985498E+02  0.000000000E+00  0.00000E+00  9.000E+00
      21    -1     0     0   501   512  0.000000000E+00  0.000000000E+00 -3.626699733E+02  3.626699733E+02  0.000000000E+00  0.00000E+00  9.000E+00
      25     1     1     2     0     0  1.627651405E+02  2.491633083E+02  3.924380081E+01  3.251767536E+02  1.250000000E+02  0.00000E+00  9.000E+00
      25     1     1     2     0     0  1.170705756E+01 -1.205796177E+02  1.611039409E+02  2.371834294E+02  1.250000000E+02  0.00000E+00  9.000E+00
      21     1     1     2   502   512 -1.744721981E+02 -1.285836906E+02 -1.170191653E+02  2.463083401E+02  3.814697266E-06  0.00000E+00  9.000E+00
#rwgt            1           1   3.1161976275559441E-002          10      193944           0
</event>
<event>
      5   9999  3.19816E-02  3.66988E+01 -1.00000E+00  1.47199E-01
      21    -1     0     0   502   501  0.000000000E+00  0.000000000E+00  5.459614947E+02  5.459614947E+02  0.000000000E+00  0.00000E+00  9.000E+00
      21    -1     0     0   501   511  0.000000000E+00  0.000000000E+00 -8.648192679E+02  8.648192679E+02  0.000000000E+00  0.00000E+00  9.000E+00
      25     1     1     2     0     0  1.012363160E+02 -2.831105704E+01 -4.594580926E+02  4.876238781E+02  1.250000000E+02  0.00000E+00  9.000E+00
      25     1     1     2     0     0 -1.314049874E+02  7.414833185E+00  5.154701672E+02  5.464949622E+02  1.250000000E+02  0.00000E+00  9.000E+00
      21     1     1     2   502   511  3.016867135E+01  2.089622385E+01 -3.748698478E+02  3.766619223E+02  0.000000000E+00  0.00000E+00  9.000E+00
#rwgt            1           1   2.5326948437580873E-002          10      194006           0
</event>
<event>
      5   9999  3.19816E-02  2.26564E+01 -1.00000E+00  1.62021E-01
      21    -1     0     0   502   501  0.000000000E+00  0.000000000E+00  3.691477318E+02  3.691477318E+02  0.000000000E+00  0.00000E+00  9.000E+00
      21    -1     0     0   512   502  0.000000000E+00  0.000000000E+00 -9.254696943E+02  9.254696943E+02  0.000000000E+00  0.00000E+00  9.000E+00
      25     1     1     2     0     0 -6.724105164E+01 -4.759373260E+02 -1.471306312E+02  5.179866020E+02  1.250000000E+02  0.00000E+00  9.000E+00
      25     1     1     2     0     0  5.798033838E+01  4.552600385E+02 -1.253616619E+02  4.918983315E+02  1.250000000E+02  0.00000E+00  9.000E+00
      21     1     1     2   512   501  9.260713259E+00  2.067728746E+01 -2.838296695E+02  2.847324926E+02  3.814697266E-06  0.00000E+00  9.000E+00
#rwgt            1           1   2.7715185866577032E-002          10      194148           0
</event>
<event>
      5   9999  3.19816E-02  1.36458E+02 -1.00000E+00  1.18046E-01
      21    -1     0     0   502   501  0.000000000E+00  0.000000000E+00  1.705432700E+03  1.705432700E+03  0.000000000E+00  0.00000E+00  9.000E+00
      21    -1     0     0   511   502  0.000000000E+00  0.000000000E+00 -4.324437316E+02  4.324437316E+02  0.000000000E+00  0.00000E+00  9.000E+00
      25     1     1     2     0     0  9.948632741E+01 -3.667877847E+02  1.391640924E+03  1.448005618E+03  1.250000000E+02  0.00000E+00  9.000E+00
      25     1     1     2     0     0  3.655497806E+01  3.561334576E+02  1.344479910E+02  4.023289305E+02  1.250000000E+02  0.00000E+00  9.000E+00
      21     1     1     2   511   501 -1.360413055E+02  1.065432718E+01 -2.530999466E+02  2.875418830E+02  6.031565972E-06  0.00000E+00  9.000E+00
#rwgt            1           1   2.5584411786662223E-002          10      194342           0
</event>
<event>
      5   9999  3.19816E-02  9.29068E+01 -1.00000E+00  1.25282E-01
       4    -1     0     0   502     0  0.000000000E+00  0.000000000E+00  1.589612450E+03  1.589612450E+03  0.000000000E+00  0.00000E+00  9.000E+00
      21    -1     0     0   501   502  0.000000000E+00  0.000000000E+00 -2.743234708E+02  2.743234708E+02  0.000000000E+00  0.00000E+00  9.000E+00
      25     1     1     2     0     0  5.372111784E+02 -2.853224780E+02  6.979343849E+02  9.342067074E+02  1.250000000E+02  0.00000E+00  9.000E+00
      25     1     1     2     0     0 -4.491805732E+02  3.150257932E+02  3.914479854E+02  6.854640494E+02  1.250000000E+02  0.00000E+00  9.000E+00
       4     1     1     2   501     0 -8.803060520E+01 -2.970331525E+01  2.259066086E+02  2.442651637E+02  0.000000000E+00  0.00000E+00  9.000E+00
#rwgt            1           1   2.8647830478822463E-002          10      194412           0
</event>
<event>
      5   9999  3.19816E-02  8.33779E+01 -1.00000E+00  1.27486E-01
      21    -1     0     0   502   501  0.000000000E+00  0.000000000E+00  4.664779913E+02  4.664779913E+02  0.000000000E+00  0.00000E+00  9.000E+00
      21    -1     0     0   511   502  0.000000000E+00  0.000000000E+00 -1.839141799E+03  1.839141799E+03  0.000000000E+00  0.00000E+00  9.000E+00
      25     1     1     2     0     0  6.930811898E+02 -9.396968745E+01 -7.621740261E+02  1.041981806E+03  1.250000000E+02  0.00000E+00  9.000E+00
      25     1     1     2     0     0 -7.711133388E+02  6.459531689E+01 -1.530320309E+02  7.986439374E+02  1.250000000E+02  0.00000E+00  9.000E+00
      21     1     1     2   511   501  7.803214901E+01  2.937437056E+01 -4.574577504E+02  4.649940466E+02  0.000000000E+00  0.00000E+00  9.000E+00
#rwgt            1           1   1.1310519329211156E-002          10      194493           0
</event>
<event>
      5   9999  3.19816E-02  4.95313E+01 -1.00000E+00  1.39309E-01
      21    -1     0     0   502   501  0.000000000E+00  0.000000000E+00  5.297654415E+02  5.297654415E+02  0.000000000E+00  0.00000E+00  9.000E+00
      21    -1     0     0   512   502  0.000000000E+00  0.000000000E+00 -4.683969134E+02  4.683969134E+02  0.000000000E+00  0.00000E+00  9.000E+00
      25     1     1     2     0     0  7.457586257E+01  1.138431585E+02 -1.267289399E+02  2.240692933E+02  1.250000000E+02  0.00000E+00  9.000E+00
      25     1     1     2     0     0 -4.407551592E+01 -7.481654745E+01  4.668192294E+02  4.910044397E+02  1.250000000E+02  0.00000E+00  9.000E+00
      21     1     1     2   512   501 -3.050034665E+01 -3.902661103E+01 -2.787217615E+02  2.830886218E+02  3.814697266E-06  0.00000E+00  9.000E+00
#rwgt            1           1   2.9415233091333953E-002          10      194610           0
</event>
<event>
      5   9999  3.19816E-02  6.20702E+01 -1.00000E+00  1.33921E-01
      21    -1     0     0   502   501  0.000000000E+00  0.000000000E+00  3.226125112E+02  3.226125112E+02  0.000000000E+00  0.00000E+00  9.000E+00
      21    -1     0     0   501   511  0.000000000E+00  0.000000000E+00 -2.056680363E+03  2.056680363E+03  0.000000000E+00  0.00000E+00  9.000E+00
      25     1     1     2     0     0  6.147700184E+01 -2.649191156E+02 -1.139713164E+02  3.202749140E+02  1.250000000E+02  0.00000E+00  9.000E+00
      25     1     1     2     0     0 -6.314038124E+01  3.269669754E+02  7.439333907E+01  3.633916340E+02  1.250000000E+02  0.00000E+00  9.000E+00
      21     1     1     2   502   511  1.663379403E+00 -6.204785979E+01 -1.694489874E+03  1.695626326E+03  3.737624730E-05  0.00000E+00  9.000E+00
#rwgt            1           1   3.1439364354494070E-002          10      194735           0
</event>
<event>
      5   9999  3.19816E-02  2.55865E+01 -1.00000E+00  1.58000E-01
      21    -1     0     0   502   501  0.000000000E+00  0.000000000E+00  6.923545854E+02  6.923545854E+02  0.000000000E+00  0.00000E+00  9.000E+00
      21    -1     0     0   512   502  0.000000000E+00  0.000000000E+00 -1.212764262E+03  1.212764262E+03  0.000000000E+00  0.00000E+00  9.000E+00
      25     1     1     2     0     0 -2.251089377E+02 -2.822870552E+02  5.981455280E+02  7.097626984E+02  1.250000000E+02  0.00000E+00  9.000E+00
      25     1     1     2     0     0  2.505764228E+02  2.798216845E+02 -1.044194542E+03  1.116716598E+03  1.250000000E+02  0.00000E+00  9.000E+00
      21     1     1     2   512   501 -2.546748508E+01  2.465370699E+00 -7.436066241E+01  7.863955088E+01  1.651812370E-06  0.00000E+00  9.000E+00
#rwgt            1           1   3.3539226010580819E-002          10      194843           0
</event>
<event>
      5   9999  3.19816E-02  5.74728E+02 -1.00000E+00  9.71633E-02
       1    -1     0     0   502     0  0.000000000E+00  0.000000000E+00  8.635427893E+02  8.635427893E+02  0.000000000E+00  0.00000E+00  9.000E+00
      21    -1     0     0   501   502  0.000000000E+00  0.000000000E+00 -8.131283575E+02  8.131283575E+02  0.000000000E+00  0.00000E+00  9.000E+00
      25     1     1     2     0     0 -3.298159954E+01 -2.285102598E+02 -2.777310235E+02  3.821835241E+02  1.250000000E+02  0.00000E+00  9.000E+00
      25     1     1     2     0     0  3.345931826E+02 -2.607158935E+02 -2.255701855E+02  4.964194633E+02  1.250000000E+02  0.00000E+00  9.000E+00
       1     1     1     2   501     0 -3.016115831E+02  4.892261533E+02  5.537156407E+02  7.980681593E+02  0.000000000E+00  0.00000E+00  9.000E+00
#rwgt            2          17   1.0640705645181118E-003          10      195074           0
</event>
<event>
      5   9999  3.19816E-02  1.20754E+02 -1.00000E+00  1.20253E-01
       2    -1     0     0   502     0  0.000000000E+00  0.000000000E+00  1.434150593E+03  1.434150593E+03  0.000000000E+00  0.00000E+00  9.000E+00
      21    -1     0     0   501   502  0.000000000E+00  0.000000000E+00 -3.911197633E+02  3.911197633E+02  0.000000000E+00  0.00000E+00  9.000E+00
      25     1     1     2     0     0 -3.688159989E+02 -6.617031415E+01  8.739154015E+02  9.590395615E+02  1.250000000E+02  0.00000E+00  9.000E+00
      25     1     1     2     0     0  3.813873249E+02 -5.392777488E+01 -2.185687697E+02  4.601758398E+02  1.250000000E+02  0.00000E+00  9.000E+00
       2     1     1     2   501     0 -1.257132598E+01  1.200980890E+02  3.876841983E+02  4.060549554E+02  5.394796609E-06  0.00000E+00  9.000E+00
#rwgt            1           1   2.7961210213726440E-002          10      195093           0
</event>
<event>
      5   9999  3.19816E-02  8.06172E+01 -1.00000E+00  1.28188E-01
      21    -1     0     0   502   511  0.000000000E+00  0.000000000E+00  6.267549745E+02  6.267549745E+02  0.000000000E+00  0.00000E+00  9.000E+00
      21    -1     0     0   501   502  0.000000000E+00  0.000000000E+00 -5.737935737E+02  5.737935737E+02  0.000000000E+00  0.00000E+00  9.000E+00
      25     1     1     2     0     0  3.605590824E+02 -2.759557411E+02  1.141991396E+02  4.845831883E+02  1.250000000E+02  0.00000E+00  9.000E+00
      25     1     1     2     0     0 -3.961216294E+02  3.483051542E+02 -1.810829224E+02  5.715285211E+02  1.250000000E+02  0.00000E+00  9.000E+00
      21     1     1     2   501   511  3.556254695E+01 -7.234941315E+01  1.198451837E+02  1.444368387E+02  2.336015456E-06  0.00000E+00  9.000E+00
#rwgt            1           1   2.2270287487109009E-002          10      195158           0
</event>
<event>
      5   9999  3.19816E-02  1.26863E+02 -1.00000E+00  1.19352E-01
      21    -1     0     0   512   501  0.000000000E+00  0.000000000E+00  9.563384322E+01  9.563384322E+01  0.000000000E+00  0.00000E+00  9.000E+00
      21    -1     0     0   501   502  0.000000000E+00  0.000000000E+00 -1.268108040E+03  1.268108040E+03  0.000000000E+00  0.00000E+00  9.000E+00
      25     1     1     2     0     0  5.921664307E+01  1.514546540E+02 -2.772070004E+02  3.448388669E+02  1.250000000E+02  0.00000E+00  9.000E+00
      25     1     1     2     0     0 -1.840281840E+02 -1.741752220E+02 -8.288976266E+02  8.757280718E+02  1.250000000E+02  0.00000E+00  9.000E+00
      21     1     1     2   512   502  1.248115410E+02  2.272056796E+01 -6.636957003E+01  1.431749447E+02  2.697398305E-06  0.00000E+00  9.000E+00
#rwgt            1           1   2.4295905496809902E-002          10      195264           0
</event>
<event>
      5   9999  3.19816E-02  9.91191E+01 -1.00000E+00  1.24001E-01
      21    -1     0     0   502   501  0.000000000E+00  0.000000000E+00  7.799960464E+02  7.799960464E+02  0.000000000E+00  0.00000E+00  9.000E+00
       2    -1     0     0   501     0  0.000000000E+00  0.000000000E+00 -2.415258548E+03  2.415258548E+03  0.000000000E+00  0.00000E+00  9.000E+00
      25     1     1     2     0     0  2.928481748E+01 -8.443125632E+01  5.387132247E+02  5.601992289E+02  1.250000000E+02  0.00000E+00  9.000E+00
      25     1     1     2     0     0 -1.212833295E+02  4.754132017E+01  1.939971633E+02  2.650089102E+02  1.250000000E+02  0.00000E+00  9.000E+00
       2     1     1     2   502     0  9.199851197E+01  3.688993615E+01 -2.367972890E+03  2.370046455E+03  3.051757812E-05  0.00000E+00  9.000E+00
#rwgt            1           1   3.2482262513368686E-002          10      195329           0
</event>
<event>
      5   9999  3.19816E-02  3.30258E+02 -1.00000E+00  1.04254E-01
      21    -1     0     0   502   501  0.000000000E+00  0.000000000E+00  1.080028988E+03  1.080028988E+03  0.000000000E+00  0.00000E+00  9.000E+00
      21    -1     0     0   511   502  0.000000000E+00  0.000000000E+00 -4.007541514E+02  4.007541514E+02  0.000000000E+00  0.00000E+00  9.000E+00
      25     1     1     2     0     0 -5.364698284E+01  3.260218970E+02  3.106041118E+02  4.703915288E+02  1.250000000E+02  0.00000E+00  9.000E+00
      25     1     1     2     0     0  1.289676956E+02 -4.468030133E+00  5.874058456E+02  6.142664383E+02  1.250000000E+02  0.00000E+00  9.000E+00
      21     1     1     2   511   501 -7.532071275E+01 -3.215538668E+02 -2.187351208E+02  3.961251723E+02  6.607249480E-06  0.00000E+00  9.000E+00
#rwgt            1           1   2.9661112493491355E-002          10      195396           0
</event>
<event>
      5   9999  3.19816E-02  8.31360E+02 -1.00000E+00  9.29589E-02
      21    -1     0     0   502   501  0.000000000E+00  0.000000000E+00  2.467582573E+03  2.467582573E+03  0.000000000E+00  0.00000E+00  9.000E+00
      21    -1     0     0   512   502  0.000000000E+00  0.000000000E+00 -1.855039269E+03  1.855039269E+03  0.000000000E+00  0.00000E+00  9.000E+00
      25     1     1     2     0     0 -1.889633196E+02  1.020666900E+03  6.088771765E+01  1.047282374E+03  1.250000000E+02  0.00000E+00  9.000E+00
      25     1     1     2     0     0  1.440109575E+02 -1.905226596E+02  1.775489809E+03  1.795836046E+03  1.250000000E+02  0.00000E+00  9.000E+00
      21     1     1     2   512   501  4.495236209E+01 -8.301442402E+02 -1.223834223E+03  1.479503423E+03  1.525878906E-05  0.00000E+00  9.000E+00
#rwgt            2          11   9.1159546736093030E-004          10      195499           0
</event>
<event>
      5   9999  3.19816E-02  1.01596E+02 -1.00000E+00  1.23519E-01
      21    -1     0     0   511   501  0.000000000E+00  0.000000000E+00  3.123261715E+02  3.123261715E+02  0.000000000E+00  0.00000E+00  9.000E+00
      21    -1     0     0   501   502  0.000000000E+00  0.000000000E+00 -1.133799641E+03  1.133799641E+03  0.000000000E+00  0.00000E+00  9.000E+00
      25     1     1     2     0     0  2.989917493E+02  9.805112261E+01  2.997589909E+01  3.399024026E+02  1.250000000E+02  0.00000E+00  9.000E+00
      25     1     1     2     0     0 -2.071455045E+02 -5.462369157E+01 -9.395575180E+02  9.717439669E+02  1.250000000E+02  0.00000E+00  9.000E+00
      21     1     1     2   511   502 -9.184624479E+01 -4.342743104E+01  8.810814971E+01  1.344794426E+02  2.132480600E-06  0.00000E+00  9.000E+00
#rwgt            1           1   2.9536777365363667E-002          10      195519           0
</event>
<event>
      5   9999  3.19816E-02  1.37220E+01 -1.00000E+00  1.81106E-01
      21    -1     0     0   512   501  0.000000000E+00  0.000000000E+00  7.392306078E+02  7.392306078E+02  0.000000000E+00  0.00000E+00  9.000E+00
      21    -1     0     0   501   502  0.000000000E+00  0.000000000E+00 -5.429363298E+01  5.429363298E+01  0.000000000E+00  0.00000E+00  9.000E+00
      25     1     1     2     0     0  1.218101593E+01 -3.449088450E+01  6.046568136E+02  6.185247452E+02  1.250000000E+02  0.00000E+00  9.000E+00
      25     1     1     2     0     0 -2.260845182E+01  4.341056382E+01  5.273862719E+01  1.442289220E+02  1.250000000E+02  0.00000E+00  9.000E+00
      21     1     1     2   512   502  1.042743588E+01 -8.919679324E+00  2.754153406E+01  3.077057355E+01  3.371747881E-07  0.00000E+00  9.000E+00
#rwgt            1           1   2.7668725518136178E-002          10      195595           0
</event>
<event>
      5   9999  3.19816E-02  4.00708E+01 -1.00000E+00  1.44793E-01
      21    -1     0     0   502   511  0.000000000E+00  0.000000000E+00  7.184159780E+02  7.184159780E+02  0.000000000E+00  0.00000E+00  9.000E+00
      21    -1     0     0   501   502  0.000000000E+00  0.000000000E+00 -3.806139416E+02  3.806139416E+02  0.000000000E+00  0.00000E+00  9.000E+00
      25     1     1     2     0     0 -4.538102399E+01  2.947669253E+02 -2.482958538E+02  4.077043152E+02  1.250000000E+02  0.00000E+00  9.000E+00
      25     1     1     2     0     0  5.375485927E+00 -2.924811095E+02  4.620925329E+02  5.610067774E+02  1.250000000E+02  0.00000E+00  9.000E+00
      21     1     1     2   501   511  4.000553806E+01 -2.285815823E+00  1.240053573E+02  1.303188270E+02  0.000000000E+00  0.00000E+00  9.000E+00
#rwgt            1           1   2.9919193645495352E-002          10      195770           0
</event>
<event>
      5   9999  3.19816E-02  1.40619E+02 -1.00000E+00  1.17516E-01
      21    -1     0     0   502   501  0.000000000E+00  0.000000000E+00  4.753475381E+02  4.753475381E+02  0.000000000E+00  0.00000E+00  9.000E+00
       2    -1     0     0   501     0  0.000000000E+00  0.000000000E+00 -8.323775005E+02  8.323775005E+02  0.000000000E+00  0.00000E+00  9.000E+00
      25     1     1     2     0     0  2.723640134E+02 -1.113682708E+02  3.700108114E+02  4.889969817E+02  1.250000000E+02  0.00000E+00  9.000E+00
      25     1     1     2     0     0 -1.925270796E+02 -4.389326395E+00 -3.757707165E+02  4.403573252E+02  1.250000000E+02  0.00000E+00  9.000E+00
       2     1     1     2   502     0 -7.983693387E+01  1.157575972E+02 -3.512700574E+02  3.783707316E+02  3.814697266E-06  0.00000E+00  9.000E+00
#rwgt            2          13   5.3024454298139230E-004          10      195940           0
</event>
<event>
      5   9999  3.19816E-02  1.14389E+02 -1.00000E+00  1.21258E-01
      21    -1     0     0   502   501  0.000000000E+00  0.000000000E+00  7.372292415E+02  7.372292415E+02  0.000000000E+00  0.00000E+00  9.000E+00
      21    -1     0     0   511   502  0.000000000E+00  0.000000000E+00 -9.486162441E+01  9.486162441E+01  0.000000000E+00  0.00000E+00  9.000E+00
      25     1     1     2     0     0 -1.163099362E+02 -6.917750388E+01  4.203629143E+02  4.589591572E+02  1.250000000E+02  0.00000E+00  9.000E+00
      25     1     1     2     0     0  2.258038753E+01  1.347490299E+02  1.456968100E+02  2.356262621E+02  1.250000000E+02  0.00000E+00  9.000E+00
      21     1     1     2   511   501  9.372954867E+01 -6.557152604E+01  7.630789278E+01  1.375054465E+02  2.132480600E-06  0.00000E+00  9.000E+00
#rwgt            1           1   3.4274236304291272E-002          10      195974           0
</event>
<event>
      5   9999  3.19816E-02  5.93779E+02 -1.00000E+00  9.67764E-02
       2    -1     0     0   502     0  0.000000000E+00  0.000000000E+00  2.392431428E+03  2.392431428E+03  0.000000000E+00  0.00000E+00  9.000E+00
      21    -1     0     0   501   502  0.000000000E+00  0.000000000E+00 -5.343813733E+02  5.343813733E+02  0.000000000E+00  0.00000E+00  9.000E+00
      25     1     1     2     0     0  2.253039950E+02 -1.575558756E+02 -3.834007482E+02  4.880644197E+02  1.250000000E+02  0.00000E+00  9.000E+00
      25     1     1     2     0     0  3.395551097E+02 -2.549466223E+01  7.390444693E+02  8.232614275E+02  1.250000000E+02  0.00000E+00  9.000E+00
       2     1     1     2   501     0 -5.648591046E+02  1.830505378E+02  1.502406333E+03  1.615486954E+03  0.000000000E+00  0.00000E+00  9.000E+00
#rwgt            1           1   2.6507525868502028E-002          10      196018           0
</event>
<event>
      5   9999  3.19816E-02  6.31048E+01 -1.00000E+00  1.33543E-01
      21    -1     0     0   502   501  0.000000000E+00  0.000000000E+00  2.826225117E+02  2.826225117E+02  0.000000000E+00  0.00000E+00  9.000E+00
      21    -1     0     0   501   511  0.000000000E+00  0.000000000E+00 -1.750997807E+03  1.750997807E+03  0.000000000E+00  0.00000E+00  9.000E+00
      25     1     1     2     0     0  4.202536744E+01  6.354328664E+01  2.464519220E+02  2.866486188E+02  1.250000000E+02  0.00000E+00  9.000E+00
      25     1     1     2     0     0  1.481416555E+01 -9.095654289E+01 -3.780318233E+02  4.086876700E+02  1.250000000E+02  0.00000E+00  9.000E+00
      21     1     1     2   502   511 -5.683953299E+01  2.741325626E+01 -1.336795394E+03  1.338284030E+03  2.157918644E-05  0.00000E+00  9.000E+00
#rwgt            1           1   2.8077402402034341E-002          10      196047           0
</event>
<event>
      5   9999  3.19816E-02  4.54490E+01 -1.00000E+00  1.41482E-01
      21    -1     0     0   502   512  0.000000000E+00  0.000000000E+00  1.333941135E+02  1.333941135E+02  0.000000000E+00  0.00000E+00  9.000E+00
      21    -1     0     0   501   502  0.000000000E+00  0.000000000E+00 -5.315303709E+02  5.315303709E+02  0.000000000E+00  0.00000E+00  9.000E+00
      25     1     1     2     0     0 -8.616237581E+01  2.725726485E+01  4.593915017E+01  1.609419740E+02  1.250000000E+02  0.00000E+00  9.000E+00
      25     1     1     2     0     0  5.511329292E+01  5.932561689E+00 -4.371151792E+02  4.580036575E+02  1.250000000E+02  0.00000E+00  9.000E+00
      21     1     1     2   501   512  3.104908288E+01 -3.318982654E+01 -6.960228230E+00  4.597885287E+01  6.848052319E-07  0.00000E+00  9.000E+00
#rwgt            1           1   2.8062561684170456E-002          10      196131           0
</event>
<event>
      5   9999  3.19816E-02  4.12718E+01 -1.00000E+00  1.44002E-01
      21    -1     0     0   502   501  0.000000000E+00  0.000000000E+00  1.606548101E+03  1.606548101E+03  0.000000000E+00  0.00000E+00  9.000E+00
       1    -1     0     0   501     0  0.000000000E+00  0.000000000E+00 -8.683260379E+02  8.683260379E+02  0.000000000E+00  0.00000E+00  9.000E+00
      25     1     1     2     0     0 -8.004872376E+02 -3.180750893E+02 -1.057161607E+02  8.767853139E+02  1.250000000E+02  0.00000E+00  9.000E+00
      25     1     1     2     0     0  7.811433513E+02  3.545329044E+02  1.064993784E+03  1.373213485E+03  1.250000000E+02  0.00000E+00  9.000E+00
       1     1     1     2   502     0  1.934388622E+01 -3.645781511E+01 -2.210555598E+02  2.248753404E+02  3.814697266E-06  0.00000E+00  9.000E+00
#rwgt            1           1   2.9100177056734618E-002          10      196205           0
</event>
<event>
      5   9999  3.19816E-02  4.04187E+01 -1.00000E+00  1.44560E-01
      21    -1     0     0   502   511  0.000000000E+00  0.000000000E+00  1.762391501E+03  1.762391501E+03  0.000000000E+00  0.00000E+00  9.000E+00
      21    -1     0     0   501   502  0.000000000E+00  0.000000000E+00 -5.223885964E+02  5.223885964E+02  0.000000000E+00  0.00000E+00  9.000E+00
      25     1     1     2     0     0 -6.255900599E+02 -3.454840808E+02  1.209161142E+03  1.410112705E+03  1.250000000E+02  0.00000E+00  9.000E+00
      25     1     1     2     0     0  6.384546918E+02  3.838008327E+02 -7.722760824E+01  7.592868866E+02  1.250000000E+02  0.00000E+00  9.000E+00
      21     1     1     2   501   511 -1.286463185E+01 -3.831675191E+01  1.080693706E+02  1.153805057E+02  1.348699152E-06  0.00000E+00  9.000E+00
#rwgt            1           1   2.8361366996567525E-002          10      196378           0
</event>
<event>
      5   9999  3.19816E-02  1.88025E+02 -1.00000E+00  1.12633E-01
      21    -1     0     0   502   501  0.000000000E+00  0.000000000E+00  4.164467461E+02  4.164467461E+02  0.000000000E+00  0.00000E+00  9.000E+00
      -1    -1     0     0     0   502  0.000000000E+00  0.000000000E+00 -2.656189948E+02  2.656189948E+02  0.000000000E+00  0.00000E+00  9.000E+00
      25     1     1     2     0     0  2.283852355E+02  9.097341523E+01  1.802324814E+01  2.763798393E+02  1.250000000E+02  0.00000E+00  9.000E+00
      25     1     1     2     0     0 -5.022364964E+01 -3.087464164E+01  1.646686048E+02  2.149800174E+02  1.250000000E+02  0.00000E+00  9.000E+00
      -1     1     1     2     0   501 -1.781615859E+02 -6.009877358E+01 -3.186410161E+01  1.907058841E+02  2.939421655E-06  0.00000E+00  9.000E+00
#rwgt            1           1   3.1071259110599481E-002          10      196517           0
</event>
<event>
      5   9999  3.19816E-02  2.37859E+02 -1.00000E+00  1.08974E-01
      21    -1     0     0   502   501  0.000000000E+00  0.000000000E+00  3.844944465E+02  3.844944465E+02  0.000000000E+00  0.00000E+00  9.000E+00
       2    -1     0     0   501     0  0.000000000E+00  0.000000000E+00 -7.528477409E+02  7.528477409E+02  0.000000000E+00  0.00000E+00  9.000E+00
      25     1     1     2     0     0 -1.336284723E+02  3.002466087E+02  2.222946548E+02  4.159861875E+02  1.250000000E+02  0.00000E+00  9.000E+00
      25     1     1     2     0     0 -1.575474709E+01 -1.151476767E+02 -1.898733075E+02  2.553117161E+02  1.250000000E+02  0.00000E+00  9.000E+00
       2     1     1     2   502     0  1.493832194E+02 -1.850989320E+02 -4.007746418E+02  4.660442837E+02  5.394796609E-06  0.00000E+00  9.000E+00
#rwgt            2          13   6.6542962766614111E-004          10      196680           0
</event>
<event>
      5   9999  3.19816E-02  5.40659E+01 -1.00000E+00  1.37166E-01
      21    -1     0     0   502   511  0.000000000E+00  0.000000000E+00  5.413981727E+02  5.413981727E+02  0.000000000E+00  0.00000E+00  9.000E+00
      21    -1     0     0   501   502  0.000000000E+00  0.000000000E+00 -4.588263438E+02  4.588263438E+02  0.000000000E+00  0.00000E+00  9.000E+00
      25     1     1     2     0     0 -4.617314128E+01  2.872471681E+02  3.356212595E+02  4.614212007E+02  1.250000000E+02  0.00000E+00  9.000E+00
      25     1     1     2     0     0  9.795671250E+01 -3.027902616E+02 -3.091062452E+02  4.609220442E+02  1.250000000E+02  0.00000E+00  9.000E+00
      21     1     1     2   501   511 -5.178357121E+01  1.554309341E+01  5.605681466E+01  7.788127163E+01  1.784161275E-06  0.00000E+00  9.000E+00
#rwgt            1           1   2.9811995789403696E-002          10      196699           0
</event>
<event>
      5   9999  3.19816E-02  1.69836E+02 -1.00000E+00  1.14295E-01
      21    -1     0     0   502   512  0.000000000E+00  0.000000000E+00  3.761300285E+02  3.761300285E+02  0.000000000E+00  0.00000E+00  9.000E+00
      21    -1     0     0   501   502  0.000000000E+00  0.000000000E+00 -1.644695358E+03  1.644695358E+03  0.000000000E+00  0.00000E+00  9.000E+00
      25     1     1     2     0     0  2.382983719E+02 -2.636037782E+01  7.775680059E+01  2.813398365E+02  1.250000000E+02  0.00000E+00  9.000E+00
      25     1     1     2     0     0 -3.085721035E+02  1.809751530E+02 -1.477227243E+03  1.525055434E+03  1.250000000E+02  0.00000E+00  9.000E+00
      21     1     1     2   501   512  7.027373165E+01 -1.546147752E+02  1.309051130E+02  2.144301161E+02  6.325959759E-06  0.00000E+00  9.000E+00
#rwgt            2          11   5.2653212831046898E-003          10      196851           0
</event>
<event>
      5   9999  3.19816E-02  1.13772E+02 -1.00000E+00  1.21359E-01
      21    -1     0     0   502   501  0.000000000E+00  0.000000000E+00  1.413505459E+02  1.413505459E+02  0.000000000E+00  0.00000E+00  9.000E+00
       2    -1     0     0   501     0  0.000000000E+00  0.000000000E+00 -1.727201248E+03  1.727201248E+03  0.000000000E+00  0.00000E+00  9.000E+00
      25     1     1     2     0     0  5.881739257E+01 -6.130524604E+01  5.253034194E+01  1.600070489E+02  1.250000000E+02  0.00000E+00  9.000E+00
      25     1     1     2     0     0 -1.677876819E+02  2.860210741E+01 -3.087903872E+02  3.740952953E+02  1.250000000E+02  0.00000E+00  9.000E+00
       2     1     1     2   502     0  1.089702893E+02  3.270313864E+01 -1.329590657E+03  1.334449449E+03  2.642899792E-05  0.00000E+00  9.000E+00
#rwgt            1           1   2.9572127666987452E-002          10      196871           0
</event>
<event>
      5   9999  3.19816E-02  1.88283E+02 -1.00000E+00  1.12611E-01
      21    -1     0     0   502   501  0.000000000E+00  0.000000000E+00  4.952409616E+02  4.952409616E+02  0.000000000E+00  0.00000E+00  9.000E+00
      21    -1     0     0   511   502  0.000000000E+00  0.000000000E+00 -3.580107862E+02  3.580107862E+02  0.000000000E+00  0.00000E+00  9.000E+00
      25     1     1     2     0     0 -1.500315623E+02  8.897912873E+01  3.882159910E+02  4.435802190E+02  1.250000000E+02  0.00000E+00  9.000E+00
      25     1     1     2     0     0 -5.002014656E+00  1.786222639E+01 -1.495902699E+02  1.958221850E+02  1.250000000E+02  0.00000E+00  9.000E+00
      21     1     1     2   511   501  1.550335769E+02 -1.068413551E+02 -1.013955457E+02  2.138493438E+02  3.015782986E-06  0.00000E+00  9.000E+00
#rwgt            1           1   2.6724369007763486E-002          10      196930           0
</event>
<event>
      5   9999  3.19816E-02  2.86717E+01 -1.00000E+00  1.54419E-01
      21    -1     0     0   512   501  0.000000000E+00  0.000000000E+00  1.225930056E+02  1.225930056E+02  0.000000000E+00  0.00000E+00  9.000E+00
      21    -1     0     0   501   502  0.000000000E+00  0.000000000E+00 -2.942123362E+02  2.942123362E+02  0.000000000E+00  0.00000E+00  9.000E+00
      25     1     1     2     0     0 -1.522298604E+01  1.019594218E+00  3.939660236E+01  1.319464708E+02  1.250000000E+02  0.00000E+00  9.000E+00
      25     1     1     2     0     0  4.301932090E+01  6.010913395E+00 -2.182988677E+02  2.552766904E+02  1.250000000E+02  0.00000E+00  9.000E+00
      21     1     1     2   512   502 -2.779633486E+01 -7.030507612E+00  7.282934686E+00  2.958218056E+01  5.960464478E-07  0.00000E+00  9.000E+00
#rwgt            1           1   1.9336985255147932E-002          10      196966           0
</event>
<event>
      5   9999  3.19816E-02  3.74005E+01 -1.00000E+00  1.46674E-01
      21    -1     0     0   502   501  0.000000000E+00  0.000000000E+00  1.587315250E+02  1.587315250E+02  0.000000000E+00  0.00000E+00  9.000E+00
      21    -1     0     0   501   511  0.000000000E+00  0.000000000E+00 -1.472025021E+03  1.472025021E+03  0.000000000E+00  0.00000E+00  9.000E+00
      25     1     1     2     0     0  1.764827015E+02 -2.300863341E+01  7.031015855E+01  2.285695945E+02  1.250000000E+02  0.00000E+00  9.000E+00
      25     1     1     2     0     0 -1.392567084E+02  1.939968996E+01 -1.215486717E+03  1.229960056E+03  1.250000000E+02  0.00000E+00  9.000E+00
      21     1     1     2   502   511 -3.722599307E+01  3.608943451E+00 -1.681169375E+02  1.722268960E+02  3.303624740E-06  0.00000E+00  9.000E+00
#rwgt            1           1   2.9306683216075404E-002          10      197087           0
</event>
<event>
      5   9999  3.19816E-02  3.24008E+01 -1.00000E+00  1.50753E-01
      21    -1     0     0   502   512  0.000000000E+00  0.000000000E+00  6.225397245E+02  6.225397245E+02  0.000000000E+00  0.00000E+00  9.000E+00
      21    -1     0     0   501   502  0.000000000E+00  0.000000000E+00 -7.664618189E+01  7.664618189E+01  0.000000000E+00  0.00000E+00  9.000E+00
      25     1     1     2     0     0 -1.287085750E+02  2.303027271E+01  2.618767626E+02  3.182777553E+02  1.250000000E+02  0.00000E+00  9.000E+00
      25     1     1     2     0     0  1.304732363E+02 -5.538293616E+01  1.451020541E+02  2.382648550E+02  1.250000000E+02  0.00000E+00  9.000E+00
      21     1     1     2   501   512 -1.764661281E+00  3.235266344E+01  1.389147258E+02  1.426432960E+02  2.697398305E-06  0.00000E+00  9.000E+00
#rwgt            1           1   2.9005276975792173E-002          10      197218           0
</event>
<event>
      5   9999  3.19816E-02  7.37120E+01 -1.00000E+00  1.30094E-01
      -1    -1     0     0     0   501  0.000000000E+00  0.000000000E+00  1.013717046E+03  1.013717046E+03  0.000000000E+00  0.00000E+00  9.000E+00
      21    -1     0     0   501   502  0.000000000E+00  0.000000000E+00 -9.181079499E+01  9.181079499E+01  0.000000000E+00  0.00000E+00  9.000E+00
      25     1     1     2     0     0  4.657230311E+01 -2.317156209E+01 -2.082599805E+01  1.369840243E+02  1.250000000E+02  0.00000E+00  9.000E+00
      25     1     1     2     0     0  1.167182027E+01 -2.200679250E+01  7.738435489E+02  7.842699589E+02  1.250000000E+02  0.00000E+00  9.000E+00
      -1     1     1     2     0   502 -5.824412338E+01  4.517835459E+01  1.688887003E+02  1.842738579E+02  3.814697266E-06  0.00000E+00  9.000E+00
#rwgt            1           1   2.6636442893271845E-002          10      197321           0
</event>
<event>
      5   9999  3.19816E-02  5.38345E+01 -1.00000E+00  1.37269E-01
      21    -1     0     0   502   511  0.000000000E+00  0.000000000E+00  2.504159123E+02  2.504159123E+02  0.000000000E+00  0.00000E+00  9.000E+00
      21    -1     0     0   501   502  0.000000000E+00  0.000000000E+00 -3.159475935E+02  3.159475935E+02  0.000000000E+00  0.00000E+00  9.000E+00
      25     1     1     2     0     0  1.178997095E+02  6.493293726E+01  7.189225293E+01  1.972564926E+02  1.250000000E+02  0.00000E+00  9.000E+00
      25     1     1     2     0     0 -1.705034253E+02 -7.637866754E+01 -1.896485801E+02  2.941032180E+02  1.250000000E+02  0.00000E+00  9.000E+00
      21     1     1     2   501   511  5.260371577E+01  1.144573027E+01  5.222464597E+01  7.500379525E+01  9.536743164E-07  0.00000E+00  9.000E+00
#rwgt            1           1   2.9346927429623245E-002          10      197384           0
</event>
<event>
      5   9999  3.19816E-02  5.86214E+01 -1.00000E+00  1.35245E-01
      21    -1     0     0   502   501  0.000000000E+00  0.000000000E+00  3.084654936E+02  3.084654936E+02  0.000000000E+00  0.00000E+00  9.000E+00
       2    -1     0     0   501     0  0.000000000E+00  0.000000000E+00 -1.410968610E+03  1.410968610E+03  0.000000000E+00  0.00000E+00  9.000E+00
      25     1     1     2     0     0  7.264329099E+01 -2.990690408E+02  1.528593067E+02  3.656641992E+02  1.250000000E+02  0.00000E+00  9.000E+00
      25     1     1     2     0     0 -3.074305722E+01  3.400670419E+02 -6.436666971E+02  7.392716317E+02  1.250000000E+02  0.00000E+00  9.000E+00
       2     1     1     2   502     0 -4.190023376E+01 -4.099800109E+01 -6.116957265E+02  6.144982729E+02  1.078959322E-05  0.00000E+00  9.000E+00
#rwgt            1           1   3.0081629683325024E-002          10      197448           0
</event>
<event>
      5   9999  3.19816E-02  6.54206E+01 -1.00000E+00  1.32726E-01
      21    -1     0     0   511   501  0.000000000E+00  0.000000000E+00  2.149815313E+02  2.149815313E+02  0.000000000E+00  0.00000E+00  9.000E+00
      21    -1     0     0   501   502  0.000000000E+00  0.000000000E+00 -1.044982033E+03  1.044982033E+03  0.000000000E+00  0.00000E+00  9.000E+00
      25     1     1     2     0     0 -2.004384103E+02 -1.820806154E+02 -3.460134433E+02  4.568141961E+02  1.250000000E+02  0.00000E+00  9.000E+00
      25     1     1     2     0     0  2.442290292E+02  2.306834518E+02 -5.830565112E+02  6.844286441E+02  1.250000000E+02  0.00000E+00  9.000E+00
      21     1     1     2   511   502 -4.379061883E+01 -4.860283638E+01  9.906945245E+01  1.187207244E+02  2.697398305E-06  0.00000E+00  9.000E+00
#rwgt            1           1   3.6236328824821293E-002          10      197560           0
</event>
<event>
      5   9999  3.97571E-02  3.92656E+01 -1.00000E+00  1.45341E-01
      21    -1     0     0   512   501  0.000000000E+00  0.000000000E+00  5.065558982E+01  5.065558982E+01  0.000000000E+00  0.00000E+00  9.000E+00
      21    -1     0     0   501   502  0.000000000E+00  0.000000000E+00 -2.135828341E+03  2.135828341E+03  0.000000000E+00  0.00000E+00  9.000E+00
      25     1     1     2     0     0 -8.212858325E+01 -1.926920219E+02 -3.350300098E+02  4.144217984E+02  1.250000000E+02  0.00000E+00  9.000E+00
      25     1     1     2     0     0  5.053587718E+01  1.693749101E+02 -1.655536449E+03  1.669630998E+03  1.250000000E+02  0.00000E+00  9.000E+00
      21     1     1     2   512   502  3.159270607E+01  2.331711181E+01 -9.460629230E+01  1.024311345E+02  0.000000000E+00  0.00000E+00  9.000E+00
#rwgt            1           1  0.12092576237786411               10      197650           0
</event>
<event>
      5   9999  3.19816E-02  1.45498E+02 -1.00000E+00  1.16921E-01
      21    -1     0     0   502   501  0.000000000E+00  0.000000000E+00  1.442115600E+02  1.442115600E+02  0.000000000E+00  0.00000E+00  9.000E+00
      21    -1     0     0   511   502  0.000000000E+00  0.000000000E+00 -6.939069684E+02  6.939069684E+02  0.000000000E+00  0.00000E+00  9.000E+00
      25     1     1     2     0     0 -4.883970153E+01 -2.245878431E+02 -1.768710682E+02  3.158059380E+02  1.250000000E+02  0.00000E+00  9.000E+00
      25     1     1     2     0     0  3.493712761E+01  7.975542770E+01 -3.765038940E+01  1.569206263E+02  1.250000000E+02  0.00000E+00  9.000E+00
      21     1     1     2   511   501  1.390257393E+01  1.448324154E+02 -3.351739508E+02  3.653919641E+02  5.394796609E-06  0.00000E+00  9.000E+00
#rwgt            1           1   2.6009788661084426E-002          10      197737           0
</event>
<event>
      5   9999  3.19816E-02  1.86085E+02 -1.00000E+00  1.12800E-01
      21    -1     0     0   502   512  0.000000000E+00  0.000000000E+00  4.638512560E+02  4.638512560E+02  0.000000000E+00  0.00000E+00  9.000E+00
      21    -1     0     0   501   502  0.000000000E+00  0.000000000E+00 -4.932322492E+02  4.932322492E+02  0.000000000E+00  0.00000E+00  9.000E+00
      25     1     1     2     0     0 -1.398761739E+02  1.653935600E+02 -8.480425988E+01  2.640778980E+02  1.250000000E+02  0.00000E+00  9.000E+00
      25     1     1     2     0     0 -4.589862920E+01 -1.761301370E+02 -2.511294419E+02  3.343942372E+02  1.250000000E+02  0.00000E+00  9.000E+00
      21     1     1     2   501   512  1.857748031E+02  1.073657699E+01  3.065527086E+02  3.586113700E+02  3.814697266E-06  0.00000E+00  9.000E+00
#rwgt            1           1   2.4443859024679212E-002          10      197771           0
</event>
<event>
      5   9999  3.19816E-02  6.48129E+00 -1.00000E+00  2.20390E-01
      21    -1     0     0   502   511  0.000000000E+00  0.000000000E+00  4.998807789E+02  4.998807789E+02  0.000000000E+00  0.00000E+00  9.000E+00
      21    -1     0     0   501   502  0.000000000E+00  0.000000000E+00 -4.162781268E+02  4.162781268E+02  0.000000000E+00  0.00000E+00  9.000E+00
      25     1     1     2     0     0 -2.028356084E+02  7.872909440E+01 -2.988086705E+02  3.901950486E+02  1.250000000E+02  0.00000E+00  9.000E+00
      25     1     1     2     0     0  2.000506551E+02 -7.287664370E+01  1.407092086E+02  2.841748602E+02  1.250000000E+02  0.00000E+00  9.000E+00
      21     1     1     2   501   511  2.784953333E+00 -5.852450703E+00  2.417021139E+02  2.417889969E+02  2.697398305E-06  0.00000E+00  9.000E+00
#rwgt            1           1   2.8287846769446543E-002          10      197840           0
</event>
<event>
      5   9999  3.19816E-02  4.03657E+02 -1.00000E+00  1.01567E-01
      21    -1     0     0   502   512  0.000000000E+00  0.000000000E+00  7.511067690E+02  7.511067690E+02  0.000000000E+00  0.00000E+00  9.000E+00
      21    -1     0     0   501   502  0.000000000E+00  0.000000000E+00 -8.536967558E+02  8.536967558E+02  0.000000000E+00  0.00000E+00  9.000E+00
      25     1     1     2     0     0 -2.080109015E+02 -1.744027163E+02 -4.950419969E+02  5.782529042E+02  1.250000000E+02  0.00000E+00  9.000E+00
      25     1     1     2     0     0  4.788896128E+02 -1.248692773E+02  3.537535794E+02  6.210428267E+02  1.250000000E+02  0.00000E+00  9.000E+00
      21     1     1     2   501   512 -2.708787113E+02  2.992719936E+02  3.869843065E+01  4.055077939E+02  3.631483605E-06  0.00000E+00  9.000E+00
#rwgt            2          11   3.0058189448892805E-003          10      198089           0
</event>
<event>
      5   9999  3.19816E-02  7.47830E+01 -1.00000E+00  1.29783E-01
      21    -1     0     0   502   501  0.000000000E+00  0.000000000E+00  4.078724984E+02  4.078724984E+02  0.000000000E+00  0.00000E+00  9.000E+00
      21    -1     0     0   511   502  0.000000000E+00  0.000000000E+00 -5.488543880E+02  5.488543880E+02  0.000000000E+00  0.00000E+00  9.000E+00
      25     1     1     2     0     0  1.283502135E+02  2.745310454E+02 -7.936029699E+01  3.372893845E+02  1.250000000E+02  0.00000E+00  9.000E+00
      25     1     1     2     0     0 -1.027843647E+02 -3.448082126E+02  1.388940194E+02  4.054304844E+02  1.250000000E+02  0.00000E+00  9.000E+00
      21     1     1     2   511   501 -2.556584884E+01  7.027716720E+01 -2.005156120E+02  2.140070175E+02  2.697398305E-06  0.00000E+00  9.000E+00
#rwgt            1           1   2.6520482653016927E-002          10      198109           0
</event>
<event>
      5   9999  3.19816E-02  3.05957E+02 -1.00000E+00  1.05315E-01
      21    -1     0     0   502   512  0.000000000E+00  0.000000000E+00  1.567690734E+02  1.567690734E+02  0.000000000E+00  0.00000E+00  9.000E+00
      21    -1     0     0   501   502  0.000000000E+00  0.000000000E+00 -1.998282642E+03  1.998282642E+03  0.000000000E+00  0.00000E+00  9.000E+00
      25     1     1     2     0     0  3.461087530E+02  9.292070662E+00 -1.517616361E+03  1.561621603E+03  1.250000000E+02  0.00000E+00  9.000E+00
      25     1     1     2     0     0 -6.249224639E+01  1.054743722E+02 -1.931843490E+02  2.607207640E+02  1.250000000E+02  0.00000E+00  9.000E+00
      21     1     1     2   501   512 -2.836165066E+02 -1.147664429E+02 -1.307128588E+02  3.327093487E+02  6.877043296E-06  0.00000E+00  9.000E+00
#rwgt            2          11   4.7248662200085932E-003          10      198212           0
</event>
<event>
      5   9999  3.19816E-02  3.58756E+01 -1.00000E+00  1.47833E-01
       5    -1     0     0   502     0  0.000000000E+00  0.000000000E+00  4.499440254E+02  4.499440254E+02  0.000000000E+00  0.00000E+00  9.000E+00
      21    -1     0     0   501   502  0.000000000E+00  0.000000000E+00 -1.488288630E+02  1.488288630E+02  0.000000000E+00  0.00000E+00  9.000E+00
      25     1     1     2     0     0  7.030563719E+01  7.638917460E+01 -2.683222325E+01  1.646910951E+02  1.250000000E+02  0.00000E+00  9.000E+00
      25     1     1     2     0     0 -4.891945924E+01 -1.051935404E+02  8.882923643E+01  1.922873571E+02  1.250000000E+02  0.00000E+00  9.000E+00
       5     1     1     2   501     0 -2.138617795E+01  2.880436582E+01  2.391181492E+02  2.417944362E+02  4.672030912E-06  0.00000E+00  9.000E+00
#rwgt            1           1   2.7944892387347566E-002          10      198262           0
</event>
<event>
      5   9999  3.19816E-02  2.09661E+02 -1.00000E+00  1.10907E-01
       1    -1     0     0   502     0  0.000000000E+00  0.000000000E+00  2.321331126E+03  2.321331126E+03  0.000000000E+00  0.00000E+00  9.000E+00
      21    -1     0     0   501   502  0.000000000E+00  0.000000000E+00 -7.707325223E+02  7.707325223E+02  0.000000000E+00  0.00000E+00  9.000E+00
      25     1     1     2     0     0  6.894247108E+02  3.206153651E+02  2.674299291E+02  8.156251659E+02  1.250000000E+02  0.00000E+00  9.000E+00
      25     1     1     2     0     0 -8.822944446E+02 -2.384034116E+02 -5.295643016E+01  9.239637748E+02  1.250000000E+02  0.00000E+00  9.000E+00
       1     1     1     2   501     0  1.928697338E+02 -8.221195343E+01  1.336125105E+03  1.352474708E+03  2.157918644E-05  0.00000E+00  9.000E+00
#rwgt            2          17   7.9962361899522613E-004          10      198489           0
</event>
<event>
      5   9999  3.19816E-02  2.82827E+02 -1.00000E+00  1.06431E-01
      21    -1     0     0   502   501  0.000000000E+00  0.000000000E+00  1.520815742E+03  1.520815742E+03  0.000000000E+00  0.00000E+00  9.000E+00
       1    -1     0     0   501     0  0.000000000E+00  0.000000000E+00 -1.162445809E+03  1.162445809E+03  0.000000000E+00  0.00000E+00  9.000E+00
      25     1     1     2     0     0 -6.410707678E+02  4.011213424E+02  6.203678815E+02  9.860787844E+02  1.250000000E+02  0.00000E+00  9.000E+00
      25     1     1     2     0     0  8.595351657E+02 -5.807436273E+02  2.835929484E+02  1.082642056E+03  1.250000000E+02  0.00000E+00  9.000E+00
       1     1     1     2   502     0 -2.184643979E+02  1.796222849E+02 -5.455908966E+02  6.145407105E+02  0.000000000E+00  0.00000E+00  9.000E+00
#rwgt            1           1   2.6623077115949776E-002          10      198538           0
</event>
<event>
      5   9999  3.19816E-02  8.25967E+01 -1.00000E+00  1.27682E-01
      21    -1     0     0   511   501  0.000000000E+00  0.000000000E+00  1.354770559E+02  1.354770559E+02  0.000000000E+00  0.00000E+00  9.000E+00
      21    -1     0     0   501   502  0.000000000E+00  0.000000000E+00 -2.544305816E+03  2.544305816E+03  0.000000000E+00  0.00000E+00  9.000E+00
      25     1     1     2     0     0  1.777333674E+02  1.411735526E+02 -1.253326911E+02  2.878409375E+02  1.250000000E+02  0.00000E+00  9.000E+00
      25     1     1     2     0     0 -1.099014664E+02 -9.404552772E+01 -2.299816177E+03  2.307748327E+03  1.250000000E+02  0.00000E+00  9.000E+00
      21     1     1     2   511   502 -6.783190103E+01 -4.712802489E+01  1.632010818E+01  8.419360699E+01  2.419684306E-06  0.00000E+00  9.000E+00
#rwgt            2          11   1.1078238004872091E-002          10      198646           0
</event>
<event>
      5   9999  3.19816E-02  4.46491E+01 -1.00000E+00  1.41939E-01
      21    -1     0     0   502   501  0.000000000E+00  0.000000000E+00  1.480827549E+02  1.480827549E+02  0.000000000E+00  0.00000E+00  9.000E+00
      21    -1     0     0   512   502  0.000000000E+00  0.000000000E+00 -2.717421278E+02  2.717421278E+02  0.000000000E+00  0.00000E+00  9.000E+00
      25     1     1     2     0     0  4.620935337E+01  9.119677061E+01 -6.238757893E+01  1.731166234E+02  1.250000000E+02  0.00000E+00  9.000E+00
      25     1     1     2     0     0 -5.548723577E+01 -1.348713234E+02 -3.606399880E+01  1.954346930E+02  1.250000000E+02  0.00000E+00  9.000E+00
      21     1     1     2   512   501  9.277882399E+00  4.367455276E+01 -2.520779518E+01  5.127356628E+01  8.259061849E-07  0.00000E+00  9.000E+00
#rwgt            1           1   3.0125130626276694E-002          10      198666           0
</event>
<event>
      5   9999  3.19816E-02  8.43260E+01 -1.00000E+00  1.27252E-01
      21    -1     0     0   502   501  0.000000000E+00  0.000000000E+00  4.902550649E+02  4.902550649E+02  0.000000000E+00  0.00000E+00  9.000E+00
      21    -1     0     0   511   502  0.000000000E+00  0.000000000E+00 -5.536684559E+02  5.536684559E+02  0.000000000E+00  0.00000E+00  9.000E+00
      25     1     1     2     0     0  3.538674603E+02  1.281648693E+02 -1.956383207E+02  4.422078309E+02  1.250000000E+02  0.00000E+00  9.000E+00
      25     1     1     2     0     0 -4.330019155E+02 -9.903403568E+01  1.904997129E+02  4.992129202E+02  1.250000000E+02  0.00000E+00  9.000E+00
      21     1     1     2   511   501  7.913445521E+01 -2.913083361E+01 -5.827478324E+01  1.025027699E+02  1.507891493E-06  0.00000E+00  9.000E+00
#rwgt            1           1   2.9358801034458152E-002          10      198749           0
</event>
<event>
      5   9999  3.19816E-02  7.86695E+01 -1.00000E+00  1.28703E-01
      21    -1     0     0   502   501  0.000000000E+00  0.000000000E+00  2.549665902E+02  2.549665902E+02  0.000000000E+00  0.00000E+00  9.000E+00
      21    -1     0     0   512   502  0.000000000E+00  0.000000000E+00 -4.431777639E+02  4.431777639E+02  0.000000000E+00  0.00000E+00  9.000E+00
      25     1     1     2     0     0 -1.737130122E+02 -1.383439336E+02 -6.069136426E+00  2.549060395E+02  1.250000000E+02  0.00000E+00  9.000E+00
      25     1     1     2     0     0  1.101043822E+02  1.846345938E+02 -4.228957300E+00  2.487082473E+02  1.250000000E+02  0.00000E+00  9.000E+00
      21     1     1     2   512   501  6.360862997E+01 -4.629066021E+01 -1.779130800E+02  1.945300673E+02  2.697398305E-06  0.00000E+00  9.000E+00
#rwgt            1           1   2.8065119156539059E-002          10      198888           0
</event>
<event>
      5   9999  3.19816E-02  5.23555E+01 -1.00000E+00  1.37944E-01
      21    -1     0     0   511   501  0.000000000E+00  0.000000000E+00  1.537920152E+03  1.537920152E+03  0.000000000E+00  0.00000E+00  9.000E+00
      21    -1     0     0   501   502  0.000000000E+00  0.000000000E+00 -1.869143677E+02  1.869143677E+02  0.000000000E+00  0.00000E+00  9.000E+00
      25     1     1     2     0     0 -1.327356547E+02  1.166657405E+02  2.675222623E+02  3.441261540E+02  1.250000000E+02  0.00000E+00  9.000E+00
      25     1     1     2     0     0  1.439651669E+02 -1.678027549E+02 -3.903649453E+01  2.569680559E+02  1.250000000E+02  0.00000E+00  9.000E+00
      21     1     1     2   511   502 -1.122951219E+01  5.113701449E+01  1.122520016E+03  1.123740310E+03  1.525878906E-05  0.00000E+00  9.000E+00
#rwgt            1           1   2.7339961031102974E-002          10      198940           0
</event>
<event>
      5   9999  3.19816E-02  1.09017E+02 -1.00000E+00  1.22165E-01
      21    -1     0     0   502   512  0.000000000E+00  0.000000000E+00  9.719453373E+01  9.719453373E+01  0.000000000E+00  0.00000E+00  9.000E+00
      21    -1     0     0   501   502  0.000000000E+00  0.000000000E+00 -1.701223481E+03  1.701223481E+03  0.000000000E+00  0.00000E+00  9.000E+00
      25     1     1     2     0     0 -2.002513052E+01  2.353129320E+02 -2.595552206E+02  3.725145559E+02  1.250000000E+02  0.00000E+00  9.000E+00
      25     1     1     2     0     0  1.241919045E+02 -2.031564607E+02 -1.258923227E+03  1.287326248E+03  1.250000000E+02  0.00000E+00  9.000E+00
      21     1     1     2   501   512 -1.041667740E+02 -3.215647126E+01 -8.555049976E+01  1.385772112E+02  3.438521648E-06  0.00000E+00  9.000E+00
#rwgt            1           1   2.7516801315361591E-002          10      199081           0
</event>
<event>
      5   9999  3.19816E-02  4.98396E+01 -1.00000E+00  1.39155E-01
      21    -1     0     0   511   501  0.000000000E+00  0.000000000E+00  7.333471491E+02  7.333471491E+02  0.000000000E+00  0.00000E+00  9.000E+00
      21    -1     0     0   501   502  0.000000000E+00  0.000000000E+00 -5.940049931E+02  5.940049931E+02  0.000000000E+00  0.00000E+00  9.000E+00
      25     1     1     2     0     0  4.328342849E+01  4.796390046E+02  3.693849655E+02  6.196751428E+02  1.250000000E+02  0.00000E+00  9.000E+00
      25     1     1     2     0     0 -7.341546838E+01 -5.193384846E+02 -3.036271649E+02  6.188026728E+02  1.250000000E+02  0.00000E+00  9.000E+00
      21     1     1     2   511   502  3.013203989E+01  3.969948006E+01  7.358435542E+01  8.887432648E+01  0.000000000E+00  0.00000E+00  9.000E+00
#rwgt            1           1   2.9924316825924047E-002          10      199231           0
</event>
<event>
      5   9999  3.19816E-02  8.35682E+01 -1.00000E+00  1.27439E-01
       5    -1     0     0   502     0  0.000000000E+00  0.000000000E+00  2.116712046E+02  2.116712046E+02  0.000000000E+00  0.00000E+00  9.000E+00
      21    -1     0     0   501   502  0.000000000E+00  0.000000000E+00 -1.958946867E+03  1.958946867E+03  0.000000000E+00  0.00000E+00  9.000E+00
      25     1     1     2     0     0 -3.740788057E+02  1.349477825E+02 -2.000950617E+02  4.623947346E+02  1.250000000E+02  0.00000E+00  9.000E+00
      25     1     1     2     0     0  3.636304952E+02 -2.178602548E+02 -1.562029872E+03  1.623346096E+03  1.250000000E+02  0.00000E+00  9.000E+00
       5     1     1     2   501     0  1.044831055E+01  8.291247237E+01  1.484927057E+01  8.487724138E+01  1.450243599E-06  0.00000E+00  9.000E+00
#rwgt            1           1   3.3056731962396668E-002          10      199360           0
</event>
<event>
      5   9999  3.65527E-02  5.93608E+01 -1.00000E+00  1.34952E-01
      21    -1     0     0   511   501  0.000000000E+00  0.000000000E+00  9.339662169E+02  9.339662169E+02  0.000000000E+00  0.00000E+00  9.000E+00
      21    -1     0     0   501   502  0.000000000E+00  0.000000000E+00 -1.510305869E+03  1.510305869E+03  0.000000000E+00  0.00000E+00  9.000E+00
      25     1     1     2     0     0 -1.113153968E+03  1.472018499E+02  3.714461387E+01  1.130391465E+03  1.250000000E+02  0.00000E+00  9.000E+00
      25     1     1     2     0     0  1.060777644E+03 -1.751379447E+02 -6.298549789E+02  1.252303798E+03  1.250000000E+02  0.00000E+00  9.000E+00
      21     1     1     2   511   502  5.237632470E+01  2.793609486E+01  1.637071332E+01  6.157682225E+01  5.331201500E-07  0.00000E+00  9.000E+00
#rwgt            1           1   8.3946209296805116E-002          10      199507           0
</event>
<event>
      5   9999  3.19816E-02  9.82533E+01 -1.00000E+00  1.24173E-01
      21    -1     0     0   502   501  0.000000000E+00  0.000000000E+00  2.980308793E+02  2.980308793E+02  0.000000000E+00  0.00000E+00  9.000E+00
      21    -1     0     0   512   502  0.000000000E+00  0.000000000E+00 -1.062296937E+03  1.062296937E+03  0.000000000E+00  0.00000E+00  9.000E+00
      25     1     1     2     0     0 -2.852222580E+02  3.249710901E+01 -6.121140286E+02  6.875437314E+02  1.250000000E+02  0.00000E+00  9.000E+00
      25     1     1     2     0     0  1.872972599E+02 -4.052222517E+01  2.020297466E+02  3.052266909E+02  1.250000000E+02  0.00000E+00  9.000E+00
      21     1     1     2   512   501  9.792499813E+01  8.025116165E+00 -3.541817761E+02  3.675573946E+02  5.394796609E-06  0.00000E+00  9.000E+00
#rwgt            1           1   3.0945918469373904E-002          10      199611           0
</event>
<event>
      5   9999  3.19816E-02  3.83259E+01 -1.00000E+00  1.46001E-01
      21    -1     0     0   502   511  0.000000000E+00  0.000000000E+00  5.960309273E+02  5.960309273E+02  0.000000000E+00  0.00000E+00  9.000E+00
      21    -1     0     0   501   502  0.000000000E+00  0.000000000E+00 -1.721503429E+02  1.721503429E+02  0.000000000E+00  0.00000E+00  9.000E+00
      25     1     1     2     0     0  1.277479726E+02 -9.527762593E+01  2.183342373E+02  2.978123733E+02  1.250000000E+02  0.00000E+00  9.000E+00
      25     1     1     2     0     0 -1.075605987E+02  1.278559487E+02 -4.785716567E+01  2.140834751E+02  1.250000000E+02  0.00000E+00  9.000E+00
      21     1     1     2   501   511 -2.018737382E+01 -3.257832274E+01  2.534035127E+02  2.562854218E+02  0.000000000E+00  0.00000E+00  9.000E+00
#rwgt            1           1   3.1571871285604257E-002          10      199709           0
</event>
<event>
      5   9999  3.19816E-02  1.64619E+01 -1.00000E+00  1.73661E-01
      21    -1     0     0   502   501  0.000000000E+00  0.000000000E+00  8.216904416E+02  8.216904416E+02  0.000000000E+00  0.00000E+00  9.000E+00
      21    -1     0     0   501   512  0.000000000E+00  0.000000000E+00 -1.598366140E+02  1.598366140E+02  0.000000000E+00  0.00000E+00  9.000E+00
      25     1     1     2     0     0  6.077518496E+01 -2.477094042E+02  4.944730200E+01  2.883116503E+02  1.250000000E+02  0.00000E+00  9.000E+00
      25     1     1     2     0     0 -6.400414253E+01  2.638514896E+02  6.057104750E+02  6.754437936E+02  1.250000000E+02  0.00000E+00  9.000E+00
      21     1     1     2   502   512  3.228957573E+00 -1.614208538E+01  6.696050640E+00  1.777161168E+01  3.769728732E-07  0.00000E+00  9.000E+00
#rwgt            1           1   3.0091209490111598E-002          10      199785           0
</event>
<event>
      5   9999  3.19816E-02  1.14432E+01 -1.00000E+00  1.89224E-01
      21    -1     0     0   511   501  0.000000000E+00  0.000000000E+00  2.978967233E+02  2.978967233E+02  0.000000000E+00  0.00000E+00  9.000E+00
      21    -1     0     0   501   502  0.000000000E+00  0.000000000E+00 -4.979315257E+02  4.979315257E+02  0.000000000E+00  0.00000E+00  9.000E+00
      25     1     1     2     0     0  2.541393793E+01 -9.686370082E+01  2.482842575E+02  2.954632250E+02  1.250000000E+02  0.00000E+00  9.000E+00
      25     1     1     2     0     0 -2.403607697E+01  1.082236478E+02 -4.566205754E+02  4.862277664E+02  1.250000000E+02  0.00000E+00  9.000E+00
      21     1     1     2   511   502 -1.377860964E+00 -1.135994694E+01  8.301515428E+00  1.413725764E+01  1.685873940E-07  0.00000E+00  9.000E+00
#rwgt            1           1   2.8783201343076138E-002          10      199933           0
</event>
<event>
      5   9999  3.19816E-02  5.00209E+01 -1.00000E+00  1.39065E-01
      21    -1     0     0   512   501  0.000000000E+00  0.000000000E+00  9.219339962E+02  9.219339962E+02  0.000000000E+00  0.00000E+00  9.000E+00
      21    -1     0     0   501   502  0.000000000E+00  0.000000000E+00 -2.047948084E+02  2.047948084E+02  0.000000000E+00  0.00000E+00  9.000E+00
      25     1     1     2     0     0 -1.480399185E+02  1.315307736E+02  6.852288731E+02  7.241407117E+02  1.250000000E+02  0.00000E+00  9.000E+00
      25     1     1     2     0     0  1.392269224E+02 -8.229230774E+01 -1.238466525E+02  2.389961363E+02  1.250000000E+02  0.00000E+00  9.000E+00
      21     1     1     2   512   502  8.812996135E+00 -4.923846586E+01  1.557569672E+02  1.635919566E+02  0.000000000E+00  0.00000E+00  9.000E+00
#rwgt            1           1   2.5793474231480668E-002          10      200241           0
</event>
<event>
      5   9999  3.19816E-02  1.03012E+02 -1.00000E+00  1.23251E-01
      21    -1     0     0   502   501  0.000000000E+00  0.000000000E+00  1.299662751E+03  1.299662751E+03  0.000000000E+00  0.00000E+00  9.000E+00
      21    -1     0     0   511   502  0.000000000E+00  0.000000000E+00 -2.311704807E+03  2.311704807E+03  0.000000000E+00  0.00000E+00  9.000E+00
      25     1     1     2     0     0  3.584991103E+02 -5.099593691E+02  1.117778545E+03  1.285937031E+03  1.250000000E+02  0.00000E+00  9.000E+00
      25     1     1     2     0     0 -3.885972271E+02  4.114426943E+02 -7.803871829E+02  9.720710112E+02  1.250000000E+02  0.00000E+00  9.000E+00
      21     1     1     2   511   501  3.009811678E+01  9.851667479E+01 -1.349433418E+03  1.353359516E+03  2.157918644E-05  0.00000E+00  9.000E+00
#rwgt            1           1   2.8709696338428854E-002          10      200342           0
</event>
<event>
      5   9999  3.19816E-02  5.48709E+01 -1.00000E+00  1.36811E-01
      21    -1     0     0   502   501  0.000000000E+00  0.000000000E+00  6.131773250E+01  6.131773250E+01  0.000000000E+00  0.00000E+00  9.000E+00
       2    -1     0     0   501     0  0.000000000E+00  0.000000000E+00 -2.454954469E+03  2.454954469E+03  0.000000000E+00  0.00000E+00  9.000E+00
      25     1     1     2     0     0  4.603128290E+01 -3.231550932E+02 -1.545409947E+03  1.584444697E+03  1.250000000E+02  0.00000E+00  9.000E+00
      25     1     1     2     0     0  1.896869685E+00  2.964397577E+02 -6.375908732E+02  7.141619212E+02  1.250000000E+02  0.00000E+00  9.000E+00
       2     1     1     2   502     0 -4.792815259E+01  2.671533546E+01 -2.106359159E+02  2.176655830E+02  2.697398305E-06  0.00000E+00  9.000E+00
#rwgt            1           1   3.8320384132744439E-002          10      200438           0
</event>
<event>
      5   9999  3.19816E-02  1.73840E+02 -1.00000E+00  1.13910E-01
      21    -1     0     0   511   501  0.000000000E+00  0.000000000E+00  7.374279390E+02  7.374279390E+02  0.000000000E+00  0.00000E+00  9.000E+00
      21    -1     0     0   501   502  0.000000000E+00  0.000000000E+00 -2.356553435E+02  2.356553435E+02  0.000000000E+00  0.00000E+00  9.000E+00
      25     1     1     2     0     0 -1.265083822E+02 -1.006358000E+02 -1.375485024E+02  2.463260553E+02  1.250000000E+02  0.00000E+00  9.000E+00
      25     1     1     2     0     0  4.260508249E+01 -5.161538193E+01  4.399831617E+02  4.622656414E+02  1.250000000E+02  0.00000E+00  9.000E+00
      21     1     1     2   511   502  8.390329970E+01  1.522511819E+02  1.993379363E+02  2.644915858E+02  0.000000000E+00  0.00000E+00  9.000E+00
#rwgt            1           1   2.8391212280380551E-002          10      200583           0
</event>
<event>
      5   9999  3.19816E-02  3.15772E+01 -1.00000E+00  1.51510E-01
      21    -1     0     0   512   501  0.000000000E+00  0.000000000E+00  2.191777193E+02  2.191777193E+02  0.000000000E+00  0.00000E+00  9.000E+00
      21    -1     0     0   501   502  0.000000000E+00  0.000000000E+00 -2.648491971E+02  2.648491971E+02  0.000000000E+00  0.00000E+00  9.000E+00
      25     1     1     2     0     0 -1.492777629E+02  7.126874270E+01 -1.241702952E+01  2.077071660E+02  1.250000000E+02  0.00000E+00  9.000E+00
      25     1     1     2     0     0  1.736432150E+02 -5.118279120E+01 -6.713237496E+01  2.300073912E+02  1.250000000E+02  0.00000E+00  9.000E+00
      21     1     1     2   512   502 -2.436545208E+01 -2.008595150E+01  3.387792669E+01  4.631235925E+01  0.000000000E+00  0.00000E+00  9.000E+00
#rwgt            1           1   3.3275196088932042E-002          10      200672           0
</event>
<event>
      5   9999  3.19816E-02  3.86515E+01 -1.00000E+00  1.45770E-01
      21    -1     0     0   502   501  0.000000000E+00  0.000000000E+00  4.813051662E+02  4.813051662E+02  0.000000000E+00  0.00000E+00  9.000E+00
      21    -1     0     0   511   502  0.000000000E+00  0.000000000E+00 -7.136748491E+02  7.136748491E+02  0.000000000E+00  0.00000E+00  9.000E+00
      25     1     1     2     0     0 -3.509096587E+02 -3.470835787E+02 -6.561741249E+00  5.091882320E+02  1.250000000E+02  0.00000E+00  9.000E+00
      25     1     1     2     0     0  3.567577185E+02  3.852901429E+02 -9.331334252E+01  5.477745374E+02  1.250000000E+02  0.00000E+00  9.000E+00
      21     1     1     2   511   501 -5.848059787E+00 -3.820656420E+01 -1.324945991E+02  1.380172458E+02  0.000000000E+00  0.00000E+00  9.000E+00
#rwgt            1           1   3.0070871409247427E-002          10      200748           0
</event>
<event>
      5   9999  3.19816E-02  1.03522E+02 -1.00000E+00  1.23156E-01
      21    -1     0     0   502   501  0.000000000E+00  0.000000000E+00  7.560924815E+02  7.560924815E+02  0.000000000E+00  0.00000E+00  9.000E+00
      21    -1     0     0   501   512  0.000000000E+00  0.000000000E+00 -5.611895166E+02  5.611895166E+02  0.000000000E+00  0.00000E+00  9.000E+00
      25     1     1     2     0     0 -2.361327582E+01 -2.196376575E+02  1.273508112E+02  2.839744997E+02  1.250000000E+02  0.00000E+00  9.000E+00
      25     1     1     2     0     0  7.442655748E+01  1.294447964E+02  5.272689576E+02  5.620790170E+02  1.250000000E+02  0.00000E+00  9.000E+00
      21     1     1     2   502   512 -5.081328166E+01  9.019286111E+01 -4.597168039E+02  4.712284813E+02  9.344061824E-06  0.00000E+00  9.000E+00
#rwgt            1           1   3.0867074149248479E-002          10      200833           0
</event>
<event>
      5   9999  3.19816E-02  6.25926E+00 -1.00000E+00  2.22656E-01
      21    -1     0     0   502   501  0.000000000E+00  0.000000000E+00  1.723237126E+03  1.723237126E+03  0.000000000E+00  0.00000E+00  9.000E+00
      21    -1     0     0   511   502  0.000000000E+00  0.000000000E+00 -1.229801039E+03  1.229801039E+03  0.000000000E+00  0.00000E+00  9.000E+00
      25     1     1     2     0     0  1.118999330E+03 -4.224103583E+02  1.053990951E+03  1.599097226E+03  1.250000000E+02  0.00000E+00  9.000E+00
      25     1     1     2     0     0 -1.112962673E+03  4.207559311E+02 -5.059415356E+02  1.298970093E+03  1.250000000E+02  0.00000E+00  9.000E+00
      21     1     1     2   511   501 -6.036657248E+00  1.654427194E+00 -5.461332876E+01  5.497084717E+01  9.536743164E-07  0.00000E+00  9.000E+00
#rwgt            1           1   5.9430838802569746E-002          10      200883           0
</event>
<event>
      5   9999  3.19816E-02  8.86713E+00 -1.00000E+00  2.01994E-01
      21    -1     0     0   512   501  0.000000000E+00  0.000000000E+00  1.179332307E+03  1.179332307E+03  0.000000000E+00  0.00000E+00  9.000E+00
      21    -1     0     0   501   502  0.000000000E+00  0.000000000E+00 -6.207959139E+02  6.207959139E+02  0.000000000E+00  0.00000E+00  9.000E+00
      25     1     1     2     0     0  3.720593192E+02  4.719170842E+02  7.884902712E+02  9.992375989E+02  1.250000000E+02  0.00000E+00  9.000E+00
      25     1     1     2     0     0 -3.632036708E+02 -4.714660614E+02 -3.357940674E+02  6.946796450E+02  1.250000000E+02  0.00000E+00  9.000E+00
      21     1     1     2   512   502 -8.855648406E+00 -4.510228424E-01  1.058401897E+02  1.062109772E+02  0.000000000E+00  0.00000E+00  9.000E+00
#rwgt            1           1   2.1642986762763630E-002          10      201256           0
</event>
<event>
      5   9999  3.19816E-02  2.63794E+02 -1.00000E+00  1.07439E-01
      21    -1     0     0   511   501  0.000000000E+00  0.000000000E+00  5.769642900E+02  5.769642900E+02  0.000000000E+00  0.00000E+00  9.000E+00
      21    -1     0     0   501   502  0.000000000E+00  0.000000000E+00 -7.968613309E+02  7.968613309E+02  0.000000000E+00  0.00000E+00  9.000E+00
      25     1     1     2     0     0 -1.314371722E+02 -4.027110273E+02 -3.974484150E+01  4.434597548E+02  1.250000000E+02  0.00000E+00  9.000E+00
      25     1     1     2     0     0  1.791422698E+02  1.432668048E+02 -4.704519477E+02  5.381146395E+02  1.250000000E+02  0.00000E+00  9.000E+00
      21     1     1     2   511   502 -4.770509763E+01  2.594442225E+02  2.902997482E+02  3.922512266E+02  5.394796609E-06  0.00000E+00  9.000E+00
#rwgt            2          11   3.8008368911986281E-003          10      201620           0
</event>
<event>
      5   9999  3.19816E-02  5.33669E+01 -1.00000E+00  1.37480E-01
      21    -1     0     0   502   501  0.000000000E+00  0.000000000E+00  1.309745895E+03  1.309745895E+03  0.000000000E+00  0.00000E+00  9.000E+00
      21    -1     0     0   512   502  0.000000000E+00  0.000000000E+00 -3.969516101E+02  3.969516101E+02  0.000000000E+00  0.00000E+00  9.000E+00
      25     1     1     2     0     0  1.905513901E+02 -2.402380298E+02  9.004805636E+02  9.594344108E+02  1.250000000E+02  0.00000E+00  9.000E+00
      25     1     1     2     0     0 -1.958456078E+02  2.933416917E+02  2.843864264E+02  4.700058401E+02  1.250000000E+02  0.00000E+00  9.000E+00
      21     1     1     2   512   501  5.294217698E+00 -5.310366190E+01 -2.720727056E+02  2.772572538E+02  5.394796609E-06  0.00000E+00  9.000E+00
#rwgt            1           1   2.9316473811391689E-002          10      201655           0
</event>
<event>
      5   9999  3.19816E-02  1.42092E+01 -1.00000E+00  1.79629E-01
       2    -1     0     0   502     0  0.000000000E+00  0.000000000E+00  2.423475024E+03  2.423475024E+03  0.000000000E+00  0.00000E+00  9.000E+00
      21    -1     0     0   501   502  0.000000000E+00  0.000000000E+00 -1.264049159E+02  1.264049159E+02  0.000000000E+00  0.00000E+00  9.000E+00
      25     1     1     2     0     0  1.519935268E+02  4.159483054E+02  1.174277113E+03  1.261216382E+03  1.250000000E+02  0.00000E+00  9.000E+00
      25     1     1     2     0     0 -1.508948322E+02 -4.017816896E+02  5.201027542E+02  6.858058409E+02  1.250000000E+02  0.00000E+00  9.000E+00
       2     1     1     2   501     0 -1.098694562E+00 -1.416661580E+01  6.026902406E+02  6.028577164E+02  1.321449896E-05  0.00000E+00  9.000E+00
#rwgt            1           1   3.1321847369126250E-002          10      201799           0
</event>
<event>
      5   9999  3.19816E-02  8.94538E+01 -1.00000E+00  1.26045E-01
      21    -1     0     0   502   501  0.000000000E+00  0.000000000E+00  2.834173034E+02  2.834173034E+02  0.000000000E+00  0.00000E+00  9.000E+00
      21    -1     0     0   511   502  0.000000000E+00  0.000000000E+00 -1.546868632E+03  1.546868632E+03  0.000000000E+00  0.00000E+00  9.000E+00
      25     1     1     2     0     0 -5.748245471E+02 -1.376625538E+02 -2.955391545E+02  6.725642203E+02  1.250000000E+02  0.00000E+00  9.000E+00
      25     1     1     2     0     0  4.915964746E+02  1.704508195E+02 -7.427086798E+02  9.154025119E+02  1.250000000E+02  0.00000E+00  9.000E+00
      21     1     1     2   511   501  8.322807254E+01 -3.278826574E+01 -2.252034944E+02  2.423192034E+02  3.814697266E-06  0.00000E+00  9.000E+00
#rwgt            2          11   4.2831340517988778E-003          10      202347           0
</event>
<event>
      5   9999  3.19816E-02  1.92237E+02 -1.00000E+00  1.12278E-01
       2    -1     0     0   502     0  0.000000000E+00  0.000000000E+00  1.997194968E+03  1.997194968E+03  0.000000000E+00  0.00000E+00  9.000E+00
      21    -1     0     0   501   502  0.000000000E+00  0.000000000E+00 -9.459479602E+01  9.459479602E+01  0.000000000E+00  0.00000E+00  9.000E+00
      25     1     1     2     0     0  1.534243649E+02  9.519755289E+01  4.488870720E+02  4.997261383E+02  1.250000000E+02  0.00000E+00  9.000E+00
      25     1     1     2     0     0 -3.454242912E+02 -1.047386070E+02  5.597668382E+02  6.776813631E+02  1.250000000E+02  0.00000E+00  9.000E+00
       2     1     1     2   501     0  1.919999263E+02  9.541054121E+00  8.939462620E+02  9.143822629E+02  1.868812365E-05  0.00000E+00  9.000E+00
#rwgt            2          18   1.2790952193913335E-003          10      202382           0
</event>
<event>
      5   9999  3.19816E-02  1.80600E+02 -1.00000E+00  1.13285E-01
       2    -1     0     0   502     0  0.000000000E+00  0.000000000E+00  5.034387832E+03  5.034387832E+03  0.000000000E+00  0.00000E+00  9.000E+00
      21    -1     0     0   501   502  0.000000000E+00  0.000000000E+00 -2.795942099E+01  2.795942099E+01  0.000000000E+00  0.00000E+00  9.000E+00
      25     1     1     2     0     0  7.958654748E+01  4.478519689E+01  2.893782659E+03  2.897920428E+03  1.250000000E+02  0.00000E+00  9.000E+00
      25     1     1     2     0     0  5.466450779E+01 -1.655865667E+02  5.340804935E+02  5.755641519E+02  1.250000000E+02  0.00000E+00  9.000E+00
       2     1     1     2   501     0 -1.342510553E+02  1.208013698E+02  1.578565258E+03  1.588862672E+03  2.157918644E-05  0.00000E+00  9.000E+00
#rwgt            1           1   1.8569118071077622E-002          10      202491           0
</event>
<event>
      5   9999  3.19816E-02  5.69383E+01 -1.00000E+00  1.35930E-01
      21    -1     0     0   502   501  0.000000000E+00  0.000000000E+00  8.166981301E+02  8.166981301E+02  0.000000000E+00  0.00000E+00  9.000E+00
       2    -1     0     0   501     0  0.000000000E+00  0.000000000E+00 -1.503384651E+03  1.503384651E+03  0.000000000E+00  0.00000E+00  9.000E+00
      25     1     1     2     0     0  2.505971513E+01  9.228493858E+01  4.353234407E+02  4.628995542E+02  1.250000000E+02  0.00000E+00  9.000E+00
      25     1     1     2     0     0 -7.315780941E+01 -1.227569781E+02  3.424809190E+02  3.915859045E+02  1.250000000E+02  0.00000E+00  9.000E+00
       2     1     1     2   502     0  4.809809428E+01  3.047203955E+01 -1.464490881E+03  1.465597322E+03  0.000000000E+00  0.00000E+00  9.000E+00
#rwgt            1           1   3.1936353023816991E-002          10      202533           0
</event>
<event>
      5   9999  3.19816E-02  3.35027E+02 -1.00000E+00  1.04057E-01
      21    -1     0     0   502   511  0.000000000E+00  0.000000000E+00  3.750433223E+02  3.750433223E+02  0.000000000E+00  0.00000E+00  9.000E+00
      21    -1     0     0   501   502  0.000000000E+00  0.000000000E+00 -1.228951030E+03  1.228951030E+03  0.000000000E+00  0.00000E+00  9.000E+00
      25     1     1     2     0     0 -3.383226443E+02  8.396618886E+01 -6.774893244E+02  7.720941116E+02  1.250000000E+02  0.00000E+00  9.000E+00
      25     1     1     2     0     0  2.740121311E+01  4.081813516E+01 -4.047554157E+02  4.264608929E+02  1.250000000E+02  0.00000E+00  9.000E+00
      21     1     1     2   501   511  3.109214312E+02 -1.247843240E+02  2.283370327E+02  4.054393474E+02  3.814697266E-06  0.00000E+00  9.000E+00
#rwgt            1           1   2.3521687450227841E-002          10      202632           0
</event>
<event>
      5   9999  3.19816E-02  4.48520E+01 -1.00000E+00  1.41822E-01
      21    -1     0     0   502   501  0.000000000E+00  0.000000000E+00  2.055546996E+03  2.055546996E+03  0.000000000E+00  0.00000E+00  9.000E+00
      21    -1     0     0   512   502  0.000000000E+00  0.000000000E+00 -4.064867593E+02  4.064867593E+02  0.000000000E+00  0.00000E+00  9.000E+00
      25     1     1     2     0     0  9.136799672E+01 -8.141291265E+02  1.045145517E+03  1.333832260E+03  1.250000000E+02  0.00000E+00  9.000E+00
      25     1     1     2     0     0 -1.359406272E+02  8.091304661E+02  6.571399782E+02  1.058598090E+03  1.250000000E+02  0.00000E+00  9.000E+00
      21     1     1     2   512   501  4.457263052E+01  4.998660354E+00 -5.322525811E+01  6.960340579E+01  2.023048729E-06  0.00000E+00  9.000E+00
#rwgt            1           1   2.6800688293735549E-002          10      202668           0
</event>
<event>
      5   9999  3.19816E-02  7.45608E+01 -1.00000E+00  1.29847E-01
      21    -1     0     0   502   501  0.000000000E+00  0.000000000E+00  4.204186558E+02  4.204186558E+02  0.000000000E+00  0.00000E+00  9.000E+00
      21    -1     0     0   501   511  0.000000000E+00  0.000000000E+00 -1.291758206E+03  1.291758206E+03  0.000000000E+00  0.00000E+00  9.000E+00
      25     1     1     2     0     0  3.250619154E+02 -3.575603036E+02 -5.748680232E+01  5.024384062E+02  1.250000000E+02  0.00000E+00  9.000E+00
      25     1     1     2     0     0 -2.942957395E+02  4.254775371E+02 -1.658634284E+02  5.574735812E+02  1.250000000E+02  0.00000E+00  9.000E+00
      21     1     1     2   502   511 -3.076617591E+01 -6.791723346E+01 -6.479893194E+02  6.522648743E+02  1.078959322E-05  0.00000E+00  9.000E+00
#rwgt            1           1   3.0572962706881091E-002          10      202761           0
</event>
<event>
      5   9999  3.19816E-02  8.05554E+01 -1.00000E+00  1.28204E-01
      21    -1     0     0   512   501  0.000000000E+00  0.000000000E+00  5.592558017E+02  5.592558017E+02  0.000000000E+00  0.00000E+00  9.000E+00
      21    -1     0     0   501   502  0.000000000E+00  0.000000000E+00 -6.768116752E+02  6.768116752E+02  0.000000000E+00  0.00000E+00  9.000E+00
      25     1     1     2     0     0 -1.542739779E+02  2.403227395E+02  3.773502536E+01  3.140133938E+02  1.250000000E+02  0.00000E+00  9.000E+00
      25     1     1     2     0     0  2.296094870E+02 -2.117966551E+02 -4.807403386E+02  5.867832758E+02  1.250000000E+02  0.00000E+00  9.000E+00
      21     1     1     2   512   502 -7.533550908E+01 -2.852608434E+01  3.254494397E+02  3.352708073E+02  3.814697266E-06  0.00000E+00  9.000E+00
#rwgt            1           1   2.7299293819754579E-002          10      202847           0
</event>
<event>
      5   9999  3.19816E-02  5.89196E+02 -1.00000E+00  9.68681E-02
       2    -1     0     0   502     0  0.000000000E+00  0.000000000E+00  3.591163375E+03  3.591163375E+03  0.000000000E+00  0.00000E+00  9.000E+00
      21    -1     0     0   501   502  0.000000000E+00  0.000000000E+00 -6.616642940E+02  6.616642940E+02  0.000000000E+00  0.00000E+00  9.000E+00
      25     1     1     2     0     0  1.277984324E+03  5.852845893E+02  1.157223578E+03  1.824991340E+03  1.250000000E+02  0.00000E+00  9.000E+00
      25     1     1     2     0     0 -7.137412658E+02 -7.549370838E+02  9.301435883E+02  1.400053103E+03  1.250000000E+02  0.00000E+00  9.000E+00
       2     1     1     2   501     0 -5.642430583E+02  1.696524945E+02  8.421319147E+02  1.027783226E+03  1.078959322E-05  0.00000E+00  9.000E+00
#rwgt            2          18   1.4892759763115791E-003          10      202909           0
</event>
<event>
      5   9999  3.19816E-02  7.55313E+01 -1.00000E+00  1.29569E-01
      21    -1     0     0   502   511  0.000000000E+00  0.000000000E+00  1.398437349E+02  1.398437349E+02  0.000000000E+00  0.00000E+00  9.000E+00
      21    -1     0     0   501   502  0.000000000E+00  0.000000000E+00 -1.179960470E+03  1.179960470E+03  0.000000000E+00  0.00000E+00  9.000E+00
      25     1     1     2     0     0  1.084778449E+02  2.508656741E+02 -1.393555303E+02  3.312793279E+02  1.250000000E+02  0.00000E+00  9.000E+00
      25     1     1     2     0     0 -1.518190740E+02 -1.890068397E+02 -8.609913643E+02  9.031631891E+02  1.250000000E+02  0.00000E+00  9.000E+00
      21     1     1     2   501   511  4.334122909E+01 -6.185883439E+01 -3.976984058E+01  8.536168784E+01  1.719260824E-06  0.00000E+00  9.000E+00
#rwgt            1           1   2.9479521675164856E-002          10      202958           0
</event>
<event>
      5   9999  3.19816E-02  2.21216E+01 -1.00000E+00  1.62835E-01
      21    -1     0     0   502   501  0.000000000E+00  0.000000000E+00  1.017492993E+02  1.017492993E+02  0.000000000E+00  0.00000E+00  9.000E+00
      21    -1     0     0   501   512  0.000000000E+00  0.000000000E+00 -1.776513580E+03  1.776513580E+03  0.000000000E+00  0.00000E+00  9.000E+00
      25     1     1     2     0     0  9.542099493E+01 -2.591103563E+02 -9.266683356E+02  9.749782291E+02  1.250000000E+02  0.00000E+00  9.000E+00
      25     1     1     2     0     0 -8.148313165E+01  2.419317954E+02 -1.836649417E+02  3.384203085E+02  1.250000000E+02  0.00000E+00  9.000E+00
      21     1     1     2   502   512 -1.393786328E+01  1.717856091E+01 -5.644310031E+02  5.648643414E+02  0.000000000E+00  0.00000E+00  9.000E+00
#rwgt            1           1   2.8299029892611925E-002          10      203053           0
</event>
<event>
      5   9999  3.19816E-02  1.48251E+02 -1.00000E+00  1.16596E-01
      21    -1     0     0   502   511  0.000000000E+00  0.000000000E+00  5.039235437E+02  5.039235437E+02  0.000000000E+00  0.00000E+00  9.000E+00
      21    -1     0     0   501   502  0.000000000E+00  0.000000000E+00 -5.017806633E+02  5.017806633E+02  0.000000000E+00  0.00000E+00  9.000E+00
      25     1     1     2     0     0 -1.880972697E+02 -1.727387219E+02 -3.545114144E+02  4.544475678E+02  1.250000000E+02  0.00000E+00  9.000E+00
      25     1     1     2     0     0  2.382780204E+02  3.323909828E+01  2.481775561E+02  3.675572772E+02  1.250000000E+02  0.00000E+00  9.000E+00
      21     1     1     2   501   511 -5.018075065E+01  1.394996237E+02  1.084767388E+02  1.836993620E+02  3.015782986E-06  0.00000E+00  9.000E+00
#rwgt            1           1   2.6288371325376130E-002          10      203199           0
</event>
<event>
      5   9999  3.19816E-02  9.53128E+01 -1.00000E+00  1.24773E-01
      21    -1     0     0   512   501  0.000000000E+00  0.000000000E+00  2.546035749E+02  2.546035749E+02  0.000000000E+00  0.00000E+00  9.000E+00
      21    -1     0     0   501   502  0.000000000E+00  0.000000000E+00 -6.623042043E+02  6.623042043E+02  0.000000000E+00  0.00000E+00  9.000E+00
      25     1     1     2     0     0 -1.862537779E+02  1.675254483E+02 -2.539579256E+02  3.779879278E+02  1.250000000E+02  0.00000E+00  9.000E+00
      25     1     1     2     0     0  2.813328031E+02 -1.608541177E+02 -2.302255077E+02  4.167145038E+02  1.250000000E+02  0.00000E+00  9.000E+00
      21     1     1     2   512   502 -9.507902521E+01 -6.671330576E+00  7.648280387E+01  1.222053476E+02  1.907348633E-06  0.00000E+00  9.000E+00
#rwgt            1           1   2.8134801505934528E-002          10      203270           0
</event>
<event>
      5   9999  3.19816E-02  4.14933E+01 -1.00000E+00  1.43860E-01
      21    -1     0     0   502   501  0.000000000E+00  0.000000000E+00  6.111854900E+02  6.111854900E+02  0.000000000E+00  0.00000E+00  9.000E+00
      21    -1     0     0   501   511  0.000000000E+00  0.000000000E+00 -2.570196512E+03  2.570196512E+03  0.000000000E+00  0.00000E+00  9.000E+00
      25     1     1     2     0     0  1.500701845E+02  2.908777351E+02  5.119155643E+02  6.203333475E+02  1.250000000E+02  0.00000E+00  9.000E+00
      25     1     1     2     0     0 -1.730331359E+02 -3.254377576E+02 -8.004178904E+02  8.900247184E+02  1.250000000E+02  0.00000E+00  9.000E+00
      21     1     1     2   502   511  2.296295135E+01  3.456002251E+01 -1.670508696E+03  1.671023936E+03  0.000000000E+00  0.00000E+00  9.000E+00
#rwgt            1           1   2.6970647814888157E-002          10      203354           0
</event>
<event>
      5   9999  3.19816E-02  3.64910E+01 -1.00000E+00  1.47357E-01
       2    -1     0     0   502     0  0.000000000E+00  0.000000000E+00  1.707470318E+03  1.707470318E+03  0.000000000E+00  0.00000E+00  9.000E+00
      21    -1     0     0   501   502  0.000000000E+00  0.000000000E+00 -4.127352900E+02  4.127352900E+02  0.000000000E+00  0.00000E+00  9.000E+00
      25     1     1     2     0     0 -4.624032766E+00  2.862409306E+02  4.337115525E+02  5.344959896E+02  1.250000000E+02  0.00000E+00  9.000E+00
      25     1     1     2     0     0  3.890104672E+01 -2.737238003E+02 -2.984864542E+02  4.256256262E+02  1.250000000E+02  0.00000E+00  9.000E+00
       2     1     1     2   501     0 -3.427701395E+01 -1.251713032E+01  1.159509930E+03  1.160083992E+03  1.525878906E-05  0.00000E+00  9.000E+00
#rwgt            1           1   3.0026680116084867E-002          10      203503           0
</event>
<event>
      5   9999  3.19816E-02  2.90366E+01 -1.00000E+00  1.54031E-01
      21    -1     0     0   502   501  0.000000000E+00  0.000000000E+00  3.060045783E+02  3.060045783E+02  0.000000000E+00  0.00000E+00  9.000E+00
      21    -1     0     0   501   511  0.000000000E+00  0.000000000E+00 -3.011084042E+02  3.011084042E+02  0.000000000E+00  0.00000E+00  9.000E+00
      25     1     1     2     0     0 -1.662093910E+02  1.177596481E+01 -1.105577890E+02  2.358225174E+02  1.250000000E+02  0.00000E+00  9.000E+00
      25     1     1     2     0     0  1.935071427E+02 -2.167328174E+01  1.847899129E+02  2.961200049E+02  1.250000000E+02  0.00000E+00  9.000E+00
      21     1     1     2   502   511 -2.729775163E+01  9.897316924E+00 -6.933594987E+01  7.517046010E+01  9.536743164E-07  0.00000E+00  9.000E+00
#rwgt            1           1   2.6669229236357755E-002          10      203674           0
</event>
<event>
      5   9999  3.19816E-02  7.59345E+01 -1.00000E+00  1.29456E-01
      21    -1     0     0   502   501  0.000000000E+00  0.000000000E+00  9.965552114E+01  9.965552114E+01  0.000000000E+00  0.00000E+00  9.000E+00
      21    -1     0     0   501   512  0.000000000E+00  0.000000000E+00 -1.401240243E+03  1.401240243E+03  0.000000000E+00  0.00000E+00  9.000E+00
      25     1     1     2     0     0  2.098787376E+02  1.489817252E+02 -2.054089149E+02  3.522250151E+02  1.250000000E+02  0.00000E+00  9.000E+00
      25     1     1     2     0     0 -1.339641754E+02 -1.507203673E+02 -5.754779645E+02  6.224651934E+02  1.250000000E+02  0.00000E+00  9.000E+00
      21     1     1     2   502   512 -7.591456214E+01  1.738642137E+00 -5.206978426E+02  5.262055558E+02  7.629394531E-06  0.00000E+00  9.000E+00
#rwgt            1           1   2.6754310982500171E-002          10      203801           0
</event>
<event>
      5   9999  3.19816E-02  1.50868E+02 -1.00000E+00  1.16294E-01
      21    -1     0     0   502   501  0.000000000E+00  0.000000000E+00  4.989806519E+02  4.989806519E+02  0.000000000E+00  0.00000E+00  9.000E+00
       5    -1     0     0   501     0  0.000000000E+00  0.000000000E+00 -7.995243137E+02  7.995243137E+02  0.000000000E+00  0.00000E+00  9.000E+00
      25     1     1     2     0     0 -2.082498306E+02 -5.071987882E+02 -2.983346027E+02  6.365902433E+02  1.250000000E+02  0.00000E+00  9.000E+00
      25     1     1     2     0     0  6.335879415E+01  4.651534025E+02  7.643070831E+01  4.917811280E+02  1.250000000E+02  0.00000E+00  9.000E+00
       5     1     1     2   502     0  1.448910365E+02  4.204538570E+01 -7.863976748E+01  1.701335944E+02  3.303624740E-06  0.00000E+00  9.000E+00
#rwgt            2          16   7.7920137013688538E-006          10      203875           0
</event>
<event>
      5   9999  3.19816E-02  1.58847E+02 -1.00000E+00  1.15416E-01
      21    -1     0     0   502   501  0.000000000E+00  0.000000000E+00  1.939138146E+02  1.939138146E+02  0.000000000E+00  0.00000E+00  9.000E+00
       1    -1     0     0   501     0  0.000000000E+00  0.000000000E+00 -6.777996873E+02  6.777996873E+02  0.000000000E+00  0.00000E+00  9.000E+00
      25     1     1     2     0     0 -1.192530924E+01  4.507203156E+01  1.118538658E+02  1.740976402E+02  1.250000000E+02  0.00000E+00  9.000E+00
      25     1     1     2     0     0 -1.290038741E+02  2.821699893E+01 -1.954128592E+02  2.669258026E+02  1.250000000E+02  0.00000E+00  9.000E+00
       1     1     1     2   502     0  1.409291833E+02 -7.328903049E+01 -4.003268793E+02  4.306900590E+02  5.394796609E-06  0.00000E+00  9.000E+00
#rwgt            1           1   2.4894047918128621E-002          10      203909           0
</event>
<event>
      5   9999  3.19816E-02  4.66977E+01 -1.00000E+00  1.40790E-01
      21    -1     0     0   502   501  0.000000000E+00  0.000000000E+00  3.724944325E+02  3.724944325E+02  0.000000000E+00  0.00000E+00  9.000E+00
       2    -1     0     0   501     0  0.000000000E+00  0.000000000E+00 -1.153249105E+03  1.153249105E+03  0.000000000E+00  0.00000E+00  9.000E+00
      25     1     1     2     0     0 -8.750459310E+01  1.835634619E+02  2.935380845E+02  3.783413874E+02  1.250000000E+02  0.00000E+00  9.000E+00
      25     1     1     2     0     0  9.863785017E+01 -2.289145914E+02 -5.106183556E+02  5.817967177E+02  1.250000000E+02  0.00000E+00  9.000E+00
       2     1     1     2   502     0 -1.113325708E+01  4.535112946E+01 -5.636744009E+02  5.656054319E+02  1.078959322E-05  0.00000E+00  9.000E+00
#rwgt            1           1   2.7659679463673797E-002          10      203963           0
</event>
<event>
      5   9999  3.19816E-02  2.02176E+01 -1.00000E+00  1.65982E-01
      21    -1     0     0   502   501  0.000000000E+00  0.000000000E+00  1.432378100E+02  1.432378100E+02  0.000000000E+00  0.00000E+00  9.000E+00
      21    -1     0     0   501   511  0.000000000E+00  0.000000000E+00 -9.936100332E+02  9.936100332E+02  0.000000000E+00  0.00000E+00  9.000E+00
      25     1     1     2     0     0  2.388963506E+02 -2.445667105E+02 -3.259186664E+02  4.886024144E+02  1.250000000E+02  0.00000E+00  9.000E+00
      25     1     1     2     0     0 -2.195513054E+02  2.504420968E+02 -4.651360888E+02  5.855771517E+02  1.250000000E+02  0.00000E+00  9.000E+00
      21     1     1     2   502   511 -1.934504526E+01 -5.875386268E+00 -5.931746806E+01  6.266827712E+01  6.743495762E-07  0.00000E+00  9.000E+00
#rwgt            1           1   2.8407100825335443E-002          10      204104           0
</event>
<event>
      5   9999  3.19816E-02  4.26748E+01 -1.00000E+00  1.43118E-01
      21    -1     0     0   502   501  0.000000000E+00  0.000000000E+00  2.510314887E+02  2.510314887E+02  0.000000000E+00  0.00000E+00  9.000E+00
      21    -1     0     0   501   512  0.000000000E+00  0.000000000E+00 -1.898928972E+02  1.898928972E+02  0.000000000E+00  0.00000E+00  9.000E+00
      25     1     1     2     0     0 -5.350367850E+00 -5.312949421E+01 -1.029129270E+02  1.704917597E+02  1.250000000E+02  0.00000E+00  9.000E+00
      25     1     1     2     0     0  3.088146501E+01  8.732450097E+01  1.662628448E+02  2.277006081E+02  1.250000000E+02  0.00000E+00  9.000E+00
      21     1     1     2   502   512 -2.553109716E+01 -3.419500676E+01 -2.211326297E+00  4.273201813E+01  1.264054183E-06  0.00000E+00  9.000E+00
#rwgt            1           1   2.7286331539333769E-002          10      204278           0
</event>
<event>
      5   9999  3.19816E-02  5.64225E+01 -1.00000E+00  1.36146E-01
      21    -1     0     0   502   511  0.000000000E+00  0.000000000E+00  9.382398359E+01  9.382398359E+01  0.000000000E+00  0.00000E+00  9.000E+00
      21    -1     0     0   501   502  0.000000000E+00  0.000000000E+00 -5.568764566E+02  5.568764566E+02  0.000000000E+00  0.00000E+00  9.000E+00
      25     1     1     2     0     0 -1.090697692E+02  8.395284388E+01 -2.163280254E+02  2.852492053E+02  1.250000000E+02  0.00000E+00  9.000E+00
      25     1     1     2     0     0  7.831192020E+01 -3.665107590E+01 -2.655505013E+02  3.059707943E+02  1.250000000E+02  0.00000E+00  9.000E+00
      21     1     1     2   501   511  3.075784896E+01 -4.730176798E+01  1.882605365E+01  5.948044067E+01  8.596304120E-07  0.00000E+00  9.000E+00
#rwgt            1           1   3.3771834840924803E-002          10      204387           0
</event>
<event>
      5   9999  3.19816E-02  1.35617E+02 -1.00000E+00  1.18155E-01
      21    -1     0     0   502   501  0.000000000E+00  0.000000000E+00  1.343683844E+03  1.343683844E+03  0.000000000E+00  0.00000E+00  9.000E+00
      21    -1     0     0   512   502  0.000000000E+00  0.000000000E+00 -2.766502793E+02  2.766502793E+02  0.000000000E+00  0.00000E+00  9.000E+00
      25     1     1     2     0     0 -1.136821649E+02  8.149402823E+01 -1.214006514E+02  2.234458087E+02  1.250000000E+02  0.00000E+00  9.000E+00
      25     1     1     2     0     0  2.472829793E+02 -5.819734432E+01  1.224298400E+03  1.256609476E+03  1.250000000E+02  0.00000E+00  9.000E+00
      21     1     1     2   512   501 -1.336008145E+02 -2.329668391E+01 -3.586418330E+01  1.402788393E+02  2.567846683E-06  0.00000E+00  9.000E+00
#rwgt            1           1   2.8664929171536468E-002          10      204445           0
</event>
<event>
      5   9999  3.19816E-02  1.60894E+02 -1.00000E+00  1.15199E-01
      21    -1     0     0   502   501  0.000000000E+00  0.000000000E+00  1.688164204E+02  1.688164204E+02  0.000000000E+00  0.00000E+00  9.000E+00
      21    -1     0     0   501   511  0.000000000E+00  0.000000000E+00 -1.149908958E+03  1.149908958E+03  0.000000000E+00  0.00000E+00  9.000E+00
      25     1     1     2     0     0 -2.027676143E+02  2.306747503E+02 -8.568926701E+01  3.424809430E+02  1.250000000E+02  0.00000E+00  9.000E+00
      25     1     1     2     0     0  4.871233023E+01 -1.842643579E+02 -5.110963010E+02  5.596165416E+02  1.250000000E+02  0.00000E+00  9.000E+00
      21     1     1     2   502   511  1.540552840E+02 -4.641039237E+01 -3.843069695E+02  4.166278937E+02  0.000000000E+00  0.00000E+00  9.000E+00
#rwgt            1           1   2.6860922598962864E-002          10      204510           0
</event>
<event>
      5   9999  3.19816E-02  2.99057E+01 -1.00000E+00  1.53135E-01
      21    -1     0     0   502   512  0.000000000E+00  0.000000000E+00  2.759283477E+02  2.759283477E+02  0.000000000E+00  0.00000E+00  9.000E+00
      21    -1     0     0   501   502  0.000000000E+00  0.000000000E+00 -1.287876462E+03  1.287876462E+03  0.000000000E+00  0.00000E+00  9.000E+00
      25     1     1     2     0     0  1.408847604E+01  4.217493991E+02 -9.655797031E+02  1.061150415E+03  1.250000000E+02  0.00000E+00  9.000E+00
      25     1     1     2     0     0 -1.873807350E+01 -4.512914384E+02 -5.408759567E+01  4.717685299E+02  1.250000000E+02  0.00000E+00  9.000E+00
      21     1     1     2   501   512  4.649597461E+00  2.954203933E+01  7.719184221E+00  3.088586488E+01  6.743495762E-07  0.00000E+00  9.000E+00
#rwgt            1           1   3.0079382462029264E-002          10      204546           0
</event>
<event>
      5   9999  3.19816E-02  3.41946E+01 -1.00000E+00  1.49194E-01
      21    -1     0     0   502   511  0.000000000E+00  0.000000000E+00  1.277252186E+03  1.277252186E+03  0.000000000E+00  0.00000E+00  9.000E+00
      21    -1     0     0   501   502  0.000000000E+00  0.000000000E+00 -2.826275647E+02  2.826275647E+02  0.000000000E+00  0.00000E+00  9.000E+00
      25     1     1     2     0     0  6.788627928E+01  5.159367638E+02  7.154345080E+02  8.934600307E+02  1.250000000E+02  0.00000E+00  9.000E+00
      25     1     1     2     0     0 -5.689470172E+01 -5.483166068E+02  2.391453672E+02  6.137618553E+02  1.250000000E+02  0.00000E+00  9.000E+00
      21     1     1     2   501   511 -1.099157757E+01  3.237984304E+01  4.004474566E+01  5.265786426E+01  8.259061849E-07  0.00000E+00  9.000E+00
#rwgt            1           1   2.5123323469697801E-002          10      204683           0
</event>
<event>
      5   9999  3.19816E-02  3.91992E+02 -1.00000E+00  1.01950E-01
      21    -1     0     0   502   501  0.000000000E+00  0.000000000E+00  6.887232842E+02  6.887232842E+02  0.000000000E+00  0.00000E+00  9.000E+00
       2    -1     0     0   501     0  0.000000000E+00  0.000000000E+00 -2.034460815E+03  2.034460815E+03  0.000000000E+00  0.00000E+00  9.000E+00
      25     1     1     2     0     0 -6.608934141E+01 -4.512565127E+02 -5.216399923E+01  4.757586827E+02  1.250000000E+02  0.00000E+00  9.000E+00
      25     1     1     2     0     0 -1.475690076E+02  7.799014887E+02  9.078925611E+01  8.086350432E+02  1.250000000E+02  0.00000E+00  9.000E+00
       2     1     1     2   502     0  2.136583490E+02 -3.286449759E+02 -1.384362788E+03  1.438790373E+03  1.525878906E-05  0.00000E+00  9.000E+00
#rwgt            1           1   3.1575411911925748E-002          10      204819           0
</event>
<event>
      5   9999  3.19816E-02  8.97617E+00 -1.00000E+00  2.01341E-01
      21    -1     0     0   511   501  0.000000000E+00  0.000000000E+00  3.726598285E+02  3.726598285E+02  0.000000000E+00  0.00000E+00  9.000E+00
      21    -1     0     0   501   502  0.000000000E+00  0.000000000E+00 -8.122288426E+02  8.122288426E+02  0.000000000E+00  0.00000E+00  9.000E+00
      25     1     1     2     0     0  1.606479485E+02 -3.799744872E+02 -5.743073207E+02  7.180823580E+02  1.250000000E+02  0.00000E+00  9.000E+00
      25     1     1     2     0     0 -1.664872099E+02  3.731572519E+02  1.110861445E+02  4.415081621E+02  1.250000000E+02  0.00000E+00  9.000E+00
      21     1     1     2   511   502  5.839261449E+00  6.817235313E+00  2.365216215E+01  2.529815103E+01  3.371747881E-07  0.00000E+00  9.000E+00
#rwgt            1           1   3.0420740501671279E-002          10      204858           0
</event>
<event>
      5   9999  3.19816E-02  2.72692E+01 -1.00000E+00  1.55976E-01
      21    -1     0     0   502   501  0.000000000E+00  0.000000000E+00  2.795357493E+02  2.795357493E+02  0.000000000E+00  0.00000E+00  9.000E+00
      21    -1     0     0   501   512  0.000000000E+00  0.000000000E+00 -2.327260109E+03  2.327260109E+03  0.000000000E+00  0.00000E+00  9.000E+00
      25     1     1     2     0     0  6.434961860E+02 -1.292649035E+02 -1.709750634E+03  1.835665816E+03  1.250000000E+02  0.00000E+00  9.000E+00
      25     1     1     2     0     0 -6.294432447E+02  1.058955758E+02 -2.820972048E+02  7.089545149E+02  1.250000000E+02  0.00000E+00  9.000E+00
      21     1     1     2   502   512 -1.405294137E+01  2.336932769E+01 -5.587652051E+01  6.217552720E+01  0.000000000E+00  0.00000E+00  9.000E+00
#rwgt            1           1   2.8697726753499568E-002          10      205157           0
</event>
<event>
      5   9999  3.19816E-02  1.45514E+01 -1.00000E+00  1.78635E-01
      21    -1     0     0   502   501  0.000000000E+00  0.000000000E+00  1.075058231E+03  1.075058231E+03  0.000000000E+00  0.00000E+00  9.000E+00
      21    -1     0     0   511   502  0.000000000E+00  0.000000000E+00 -6.404562853E+01  6.404562853E+01  0.000000000E+00  0.00000E+00  9.000E+00
      25     1     1     2     0     0 -2.000786358E+02 -5.653111180E+01  3.558090620E+02  4.306417487E+02  1.250000000E+02  0.00000E+00  9.000E+00
      25     1     1     2     0     0  2.054146929E+02  7.006880546E+01  6.407118719E+02  6.879255311E+02  1.250000000E+02  0.00000E+00  9.000E+00
      21     1     1     2   511   501 -5.336057134E+00 -1.353769365E+01  1.449166904E+01  2.053658021E+01  3.769728732E-07  0.00000E+00  9.000E+00
#rwgt            1           1   2.7597009792233011E-002          10      205335           0
</event>
<event>
      5   9999  3.19816E-02  2.27819E+01 -1.00000E+00  1.61834E-01
      21    -1     0     0   502   501  0.000000000E+00  0.000000000E+00  9.695266608E+01  9.695266608E+01  0.000000000E+00  0.00000E+00  9.000E+00
      21    -1     0     0   501   512  0.000000000E+00  0.000000000E+00 -1.910537759E+03  1.910537759E+03  0.000000000E+00  0.00000E+00  9.000E+00
      25     1     1     2     0     0 -7.284999830E+01 -2.957761420E+02 -5.433886496E+02  6.353635754E+02  1.250000000E+02  0.00000E+00  9.000E+00
      25     1     1     2     0     0  5.219264309E+01  2.861693890E+02 -4.424260530E+02  5.440430163E+02  1.250000000E+02  0.00000E+00  9.000E+00
      21     1     1     2   502   512  2.065735521E+01  9.606753039E+00 -8.277703901E+02  8.280838331E+02  1.078959322E-05  0.00000E+00  9.000E+00
#rwgt            1           1   2.6632349448927353E-002          10      205461           0
</event>
<event>
      5   9999  3.19816E-02  2.26949E+01 -1.00000E+00  1.61963E-01
      21    -1     0     0   511   501  0.000000000E+00  0.000000000E+00  9.899163185E+02  9.899163185E+02  0.000000000E+00  0.00000E+00  9.000E+00
      21    -1     0     0   501   502  0.000000000E+00  0.000000000E+00 -1.381736973E+03  1.381736973E+03  0.000000000E+00  0.00000E+00  9.000E+00
      25     1     1     2     0     0 -3.827924677E+02  9.337272738E+02 -7.517029919E+01  1.019633399E+03  1.250000000E+02  0.00000E+00  9.000E+00
      25     1     1     2     0     0  3.887290232E+02 -9.556319340E+02 -5.098116468E+02  1.157529940E+03  1.250000000E+02  0.00000E+00  9.000E+00
      21     1     1     2   511   502 -5.936555550E+00  2.190466016E+01  1.931612916E+02  1.944899520E+02  3.814697266E-06  0.00000E+00  9.000E+00
#rwgt            1           1   3.2166060885914935E-002          10      205547           0
</event>
<event>
      5   9999  3.19816E-02  5.98404E+01 -1.00000E+00  1.34765E-01
      21    -1     0     0   502   501  0.000000000E+00  0.000000000E+00  8.928266363E+01  8.928266363E+01  0.000000000E+00  0.00000E+00  9.000E+00
       2    -1     0     0   501     0  0.000000000E+00  0.000000000E+00 -3.559414572E+03  3.559414572E+03  0.000000000E+00  0.00000E+00  9.000E+00
      25     1     1     2     0     0 -3.152971442E+02  3.771546735E+01 -1.479182834E+03  1.518038735E+03  1.250000000E+02  0.00000E+00  9.000E+00
      25     1     1     2     0     0  2.935853459E+02  1.804718536E+01 -2.990187174E+02  4.376702521E+02  1.250000000E+02  0.00000E+00  9.000E+00
       2     1     1     2   502     0  2.171179830E+01 -5.576265271E+01 -1.691930357E+03  1.692988249E+03  2.157918644E-05  0.00000E+00  9.000E+00
#rwgt            1           1   4.2267976902631454E-002          10      205741           0
</event>
<event>
      5   9999  3.19816E-02  2.20616E+02 -1.00000E+00  1.10119E-01
       1    -1     0     0   502     0  0.000000000E+00  0.000000000E+00  1.167102465E+03  1.167102465E+03  0.000000000E+00  0.00000E+00  9.000E+00
      21    -1     0     0   501   502  0.000000000E+00  0.000000000E+00 -3.321757451E+02  3.321757451E+02  0.000000000E+00  0.00000E+00  9.000E+00
      25     1     1     2     0     0 -8.836273085E+01  4.855853254E+02  7.016496727E+02  8.669131120E+02  1.250000000E+02  0.00000E+00  9.000E+00
      25     1     1     2     0     0  1.804578879E+02 -2.851110273E+02 -2.522475885E+01  3.607140635E+02  1.250000000E+02  0.00000E+00  9.000E+00
       1     1     1     2   501     0 -9.209515705E+01 -2.004742981E+02  1.585018062E+02  2.716510348E+02  3.303624740E-06  0.00000E+00  9.000E+00
#rwgt            2          17   2.4328117172351077E-004          10      205861           0
</event>
<event>
      5   9999  3.19816E-02  1.95021E+01 -1.00000E+00  1.67278E-01
      21    -1     0     0   502   501  0.000000000E+00  0.000000000E+00  2.709508183E+02  2.709508183E+02  0.000000000E+00  0.00000E+00  9.000E+00
      21    -1     0     0   501   511  0.000000000E+00  0.000000000E+00 -2.727064757E+02  2.727064757E+02  0.000000000E+00  0.00000E+00  9.000E+00
      25     1     1     2     0     0  1.854294910E+02  6.105049625E+01 -1.349642483E+02  2.682379681E+02  1.250000000E+02  0.00000E+00  9.000E+00
      25     1     1     2     0     0 -1.659350057E+02 -6.050650229E+01  1.362172603E+02  2.556865365E+02  1.250000000E+02  0.00000E+00  9.000E+00
      21     1     1     2   502   511 -1.949448535E+01 -5.439939555E-01 -3.008669417E+00  1.973278947E+01  4.578319638E-07  0.00000E+00  9.000E+00
#rwgt            1           1   2.3923042367904764E-002          10      205880           0
</event>
<event>
      5   9999  3.19816E-02  1.02429E+02 -1.00000E+00  1.23361E-01
      21    -1     0     0   502   512  0.000000000E+00  0.000000000E+00  7.073102607E+02  7.073102607E+02  0.000000000E+00  0.00000E+00  9.000E+00
      21    -1     0     0   501   502  0.000000000E+00  0.000000000E+00 -2.219346621E+02  2.219346621E+02  0.000000000E+00  0.00000E+00  9.000E+00
      25     1     1     2     0     0 -3.257073047E+01  8.101512682E+01  8.110456387E+01  1.727056847E+02  1.250000000E+02  0.00000E+00  9.000E+00
      25     1     1     2     0     0  1.047003426E+02 -8.289877835E+00 -1.323857808E+02  2.101948590E+02  1.250000000E+02  0.00000E+00  9.000E+00
      21     1     1     2   501   512 -7.212961215E+01 -7.272524898E+01  5.366568156E+02  5.463443790E+02  7.629394531E-06  0.00000E+00  9.000E+00
#rwgt            1           1   3.0256981178828378E-002          10      205976           0
</event>
<event>
      5   9999  3.19816E-02  7.58394E+01 -1.00000E+00  1.29482E-01
      21    -1     0     0   511   501  0.000000000E+00  0.000000000E+00  3.741585042E+02  3.741585042E+02  0.000000000E+00  0.00000E+00  9.000E+00
      21    -1     0     0   501   502  0.000000000E+00  0.000000000E+00 -2.711068114E+02  2.711068114E+02  0.000000000E+00  0.00000E+00  9.000E+00
      25     1     1     2     0     0 -2.325785269E+01 -8.349345280E+01 -2.005969667E+02  2.517463554E+02  1.250000000E+02  0.00000E+00  9.000E+00
      25     1     1     2     0     0 -5.244783170E+01  8.799493993E+01  2.596568813E+02  3.058440461E+02  1.250000000E+02  0.00000E+00  9.000E+00
      21     1     1     2   511   502  7.570568439E+01 -4.501487130E+00  4.399177824E+01  8.767491425E+01  1.907348633E-06  0.00000E+00  9.000E+00
#rwgt            1           1   3.0853509132608013E-002          10      206029           0
</event>
<event>
      5   9999  3.19816E-02  1.25488E+02 -1.00000E+00  1.19550E-01
      21    -1     0     0   502   512  0.000000000E+00  0.000000000E+00  4.365691540E+02  4.365691540E+02  0.000000000E+00  0.00000E+00  9.000E+00
      21    -1     0     0   501   502  0.000000000E+00  0.000000000E+00 -1.565399261E+03  1.565399261E+03  0.000000000E+00  0.00000E+00  9.000E+00
      25     1     1     2     0     0 -7.490830207E+01  5.557302205E+02 -1.202589930E+03  1.332777128E+03  1.250000000E+02  0.00000E+00  9.000E+00
      25     1     1     2     0     0  1.571887246E+02 -4.609822401E+02  1.470215901E+02  5.238828770E+02  1.250000000E+02  0.00000E+00  9.000E+00
      21     1     1     2   501   512 -8.228042252E+01 -9.474798035E+01 -7.326176751E+01  1.453084109E+02  1.651812370E-06  0.00000E+00  9.000E+00
#rwgt            1           1   3.0687832168392631E-002          10      206107           0
</event>
<event>
      5   9999  3.19816E-02  2.27782E+01 -1.00000E+00  1.61839E-01
      21    -1     0     0   511   501  0.000000000E+00  0.000000000E+00  1.527810636E+03  1.527810636E+03  0.000000000E+00  0.00000E+00  9.000E+00
      21    -1     0     0   501   502  0.000000000E+00  0.000000000E+00 -1.602554151E+02  1.602554151E+02  0.000000000E+00  0.00000E+00  9.000E+00
      25     1     1     2     0     0  1.868642470E+02 -1.987513179E+02  1.976796262E+01  3.007259642E+02  1.250000000E+02  0.00000E+00  9.000E+00
      25     1     1     2     0     0 -1.744692116E+02  2.178617815E+02  1.268566310E+03  1.304909478E+03  1.250000000E+02  0.00000E+00  9.000E+00
      21     1     1     2   511   502 -1.239503540E+01 -1.911046357E+01  7.922094758E+01  8.243060873E+01  9.536743164E-07  0.00000E+00  9.000E+00
#rwgt            1           1   2.7778384274753473E-002          10      206206           0
</event>
<event>
      5   9999  3.19816E-02  2.08622E+02 -1.00000E+00  1.10985E-01
      21    -1     0     0   502   512  0.000000000E+00  0.000000000E+00  9.990347523E+02  9.990347523E+02  0.000000000E+00  0.00000E+00  9.000E+00
      21    -1     0     0   501   502  0.000000000E+00  0.000000000E+00 -1.554030362E+02  1.554030362E+02  0.000000000E+00  0.00000E+00  9.000E+00
      25     1     1     2     0     0 -1.167800849E+02  1.099174652E+02  2.711172797E+01  2.051328428E+02  1.250000000E+02  0.00000E+00  9.000E+00
      25     1     1     2     0     0 -4.555669476E+01 -2.409510461E+02  4.825882363E+02  5.555620802E+02  1.250000000E+02  0.00000E+00  9.000E+00
      21     1     1     2   501   512  1.623367797E+02  1.310335810E+02  3.339317518E+02  3.937428656E+02  7.629394531E-06  0.00000E+00  9.000E+00
#rwgt            2          11   2.6894429353036620E-003          10      206510           0
</event>
<event>
      5   9999  3.19816E-02  1.08492E+01 -1.00000E+00  1.91752E-01
      21    -1     0     0   502   501  0.000000000E+00  0.000000000E+00  8.528276908E+01  8.528276908E+01  0.000000000E+00  0.00000E+00  9.000E+00
      21    -1     0     0   501   511  0.000000000E+00  0.000000000E+00 -4.064570778E+03  4.064570778E+03  0.000000000E+00  0.00000E+00  9.000E+00
      25     1     1     2     0     0  3.575871772E+02  7.994136187E+01 -7.172437540E+02  8.150600060E+02  1.250000000E+02  0.00000E+00  9.000E+00
      25     1     1     2     0     0 -3.615982053E+02 -9.002189840E+01 -1.025766522E+03  1.098489491E+03  1.250000000E+02  0.00000E+00  9.000E+00
      21     1     1     2   502   511  4.011028096E+00  1.008053653E+01 -2.236277733E+03  2.236304050E+03  5.285799584E-05  0.00000E+00  9.000E+00
#rwgt            1           1   3.3456556711245006E-002          10      206530           0
</event>
<event>
      5   9999  3.19816E-02  1.10295E+02 -1.00000E+00  1.21944E-01
      21    -1     0     0   502   501  0.000000000E+00  0.000000000E+00  1.078371022E+03  1.078371022E+03  0.000000000E+00  0.00000E+00  9.000E+00
      21    -1     0     0   512   502  0.000000000E+00  0.000000000E+00 -2.361241880E+02  2.361241880E+02  0.000000000E+00  0.00000E+00  9.000E+00
      25     1     1     2     0     0 -1.128945699E+02  1.265231994E+01  8.236337803E+02  8.407751597E+02  1.250000000E+02  0.00000E+00  9.000E+00
      25     1     1     2     0     0  1.639252134E+02  8.512751563E+01  1.742035629E+02  2.830018565E+02  1.250000000E+02  0.00000E+00  9.000E+00
      21     1     1     2   512   501 -5.103064349E+01 -9.777983556E+01 -1.555905093E+02  1.907181937E+02  1.907348633E-06  0.00000E+00  9.000E+00
#rwgt            1           1   2.9725403175855598E-002          10      206817           0
</event>
<event>
      5   9999  3.19816E-02  6.48994E+01 -1.00000E+00  1.32907E-01
      21    -1     0     0   502   501  0.000000000E+00  0.000000000E+00  2.415432552E+02  2.415432552E+02  0.000000000E+00  0.00000E+00  9.000E+00
       2    -1     0     0   501     0  0.000000000E+00  0.000000000E+00 -1.804238592E+03  1.804238592E+03  0.000000000E+00  0.00000E+00  9.000E+00
      25     1     1     2     0     0 -3.755157403E+02 -1.054121604E+02 -2.183289523E+02  4.641296437E+02  1.250000000E+02  0.00000E+00  9.000E+00
      25     1     1     2     0     0  3.348385297E+02  1.559818378E+02 -2.052358166E+02  4.406743867E+02  1.250000000E+02  0.00000E+00  9.000E+00
       2     1     1     2   502     0  4.067721055E+01 -5.056967738E+01 -1.139130568E+03  1.140977817E+03  0.000000000E+00  0.00000E+00  9.000E+00
#rwgt            1           1   2.8356492165660371E-002          10      206932           0
</event>
<event>
      5   9999  3.19816E-02  2.76615E+01 -1.00000E+00  1.55529E-01
      21    -1     0     0   511   501  0.000000000E+00  0.000000000E+00  3.662038690E+02  3.662038690E+02  0.000000000E+00  0.00000E+00  9.000E+00
      21    -1     0     0   501   502  0.000000000E+00  0.000000000E+00 -7.792738663E+02  7.792738663E+02  0.000000000E+00  0.00000E+00  9.000E+00
      25     1     1     2     0     0 -1.309117471E+01  9.140606858E+01 -6.913302360E+01  1.700906323E+02  1.250000000E+02  0.00000E+00  9.000E+00
      25     1     1     2     0     0 -1.451915018E+01 -8.972346052E+01 -6.499772898E+02  6.680992309E+02  1.250000000E+02  0.00000E+00  9.000E+00
      21     1     1     2   511   502  2.761032490E+01 -1.682608061E+00  3.060403161E+02  3.072878721E+02  6.607249480E-06  0.00000E+00  9.000E+00
#rwgt            1           1   3.1751518057587663E-002          10      206983           0
</event>
<event>
      5   9999  3.19816E-02  2.77550E+01 -1.00000E+00  1.55424E-01
      21    -1     0     0   502   501  0.000000000E+00  0.000000000E+00  8.338519823E+02  8.338519823E+02  0.000000000E+00  0.00000E+00  9.000E+00
       2    -1     0     0   501     0  0.000000000E+00  0.000000000E+00 -9.357651509E+02  9.357651509E+02  0.000000000E+00  0.00000E+00  9.000E+00
      25     1     1     2     0     0  1.555347546E+02 -1.984186111E+01  8.019182214E+02  8.266090934E+02  1.250000000E+02  0.00000E+00  9.000E+00
      25     1     1     2     0     0 -1.281710088E+02  2.448600374E+01 -4.059185349E+02  4.443222129E+02  1.250000000E+02  0.00000E+00  9.000E+00
       2     1     1     2   502     0 -2.736374580E+01 -4.644142632E+00 -4.979128552E+02  4.986858270E+02  5.394796609E-06  0.00000E+00  9.000E+00
#rwgt            1           1   3.0254753532996073E-002          10      207095           0
</event>
<event>
      5   9999  3.19816E-02  1.82927E+02 -1.00000E+00  1.13077E-01
       1    -1     0     0   502     0  0.000000000E+00  0.000000000E+00  1.496904587E+03  1.496904587E+03  0.000000000E+00  0.00000E+00  9.000E+00
      21    -1     0     0   501   502  0.000000000E+00  0.000000000E+00 -1.971582956E+02  1.971582956E+02  0.000000000E+00  0.00000E+00  9.000E+00
      25     1     1     2     0     0  2.262544783E+02 -3.095554415E+02  1.892853329E+02  4.454992678E+02  1.250000000E+02  0.00000E+00  9.000E+00
      25     1     1     2     0     0 -1.974617223E+02  1.289088614E+02  2.394995614E+02  3.585995904E+02  1.250000000E+02  0.00000E+00  9.000E+00
       1     1     1     2   501     0 -2.879275606E+01  1.806465801E+02  8.709613973E+02  8.899640247E+02  1.078959322E-05  0.00000E+00  9.000E+00
#rwgt            2          17   5.6651555544679031E-004          10      207312           0
</event>
<event>
      5   9999  3.19816E-02  3.74470E+01 -1.00000E+00  1.46639E-01
      21    -1     0     0   502   501  0.000000000E+00  0.000000000E+00  3.351198903E+02  3.351198903E+02  0.000000000E+00  0.00000E+00  9.000E+00
      21    -1     0     0   511   502  0.000000000E+00  0.000000000E+00 -6.998382960E+02  6.998382960E+02  0.000000000E+00  0.00000E+00  9.000E+00
      25     1     1     2     0     0  4.192169736E+01  3.523400435E+02  1.147178915E+02  3.933015759E+02  1.250000000E+02  0.00000E+00  9.000E+00
      25     1     1     2     0     0 -1.382760415E+01 -3.275811848E+02 -3.102667426E+02  4.683920226E+02  1.250000000E+02  0.00000E+00  9.000E+00
      21     1     1     2   511   501 -2.809409321E+01 -2.475885874E+01 -1.691695547E+02  1.732645878E+02  0.000000000E+00  0.00000E+00  9.000E+00
#rwgt            2          11   1.6390774073245346E-003          10      207526           0
</event>
<event>
      5   9999  3.19816E-02  3.53763E+01 -1.00000E+00  1.48228E-01
      21    -1     0     0   512   501  0.000000000E+00  0.000000000E+00  1.842804766E+02  1.842804766E+02  0.000000000E+00  0.00000E+00  9.000E+00
      21    -1     0     0   501   502  0.000000000E+00  0.000000000E+00 -4.187145152E+02  4.187145152E+02  0.000000000E+00  0.00000E+00  9.000E+00
      25     1     1     2     0     0  7.730836548E+01  1.125178275E+02 -3.125529596E+02  3.632508740E+02  1.250000000E+02  0.00000E+00  9.000E+00
      25     1     1     2     0     0 -1.058368562E+02 -9.159872179E+01  4.907336130E+01  1.939715462E+02  1.250000000E+02  0.00000E+00  9.000E+00
      21     1     1     2   512   502  2.852849068E+01 -2.091910574E+01  2.904555974E+01  4.577257155E+01  3.371747881E-07  0.00000E+00  9.000E+00
#rwgt            1           1   3.3302426476690669E-002          10      207561           0
</event>
<event>
      5   9999  3.19816E-02  2.43636E+01 -1.00000E+00  1.59594E-01
      21    -1     0     0   502   501  0.000000000E+00  0.000000000E+00  1.233891755E+03  1.233891755E+03  0.000000000E+00  0.00000E+00  9.000E+00
      21    -1     0     0   501   511  0.000000000E+00  0.000000000E+00 -9.281383839E+01  9.281383839E+01  0.000000000E+00  0.00000E+00  9.000E+00
      25     1     1     2     0     0  6.469950739E+01  4.933718850E+01  2.272338880E+02  2.718095368E+02  1.250000000E+02  0.00000E+00  9.000E+00
      25     1     1     2     0     0 -5.390575048E+01 -7.117939181E+01  9.760629543E+02  9.880770347E+02  1.250000000E+02  0.00000E+00  9.000E+00
      21     1     1     2   502   511 -1.079375690E+01  2.184220331E+01 -6.221892547E+01  6.681902215E+01  1.784161275E-06  0.00000E+00  9.000E+00
#rwgt            1           1   2.6277989779851324E-002          10      207726           0
</event>
<event>
      5   9999  3.19816E-02  2.44328E+02 -1.00000E+00  1.08572E-01
      21    -1     0     0   502   501  0.000000000E+00  0.000000000E+00  1.447505652E+03  1.447505652E+03  0.000000000E+00  0.00000E+00  9.000E+00
      21    -1     0     0   512   502  0.000000000E+00  0.000000000E+00 -1.990982725E+02  1.990982725E+02  0.000000000E+00  0.00000E+00  9.000E+00
      25     1     1     2     0     0 -4.837599302E+01  3.331599558E+01  1.157062980E+03  1.165276762E+03  1.250000000E+02  0.00000E+00  9.000E+00
      25     1     1     2     0     0 -1.813830444E+02  4.979211213E+01  1.963217518E+01  2.266924911E+02  1.250000000E+02  0.00000E+00  9.000E+00
      21     1     1     2   512   501  2.297590374E+02 -8.310810770E+01  7.171222433E+01  2.546346715E+02  9.536743164E-07  0.00000E+00  9.000E+00
#rwgt            1           1   2.8648215323324167E-002          10      207816           0
</event>
<event>
      5   9999  3.19816E-02  1.45319E+01 -1.00000E+00  1.78691E-01
      21    -1     0     0   502   501  0.000000000E+00  0.000000000E+00  2.113595434E+02  2.113595434E+02  0.000000000E+00  0.00000E+00  9.000E+00
      21    -1     0     0   511   502  0.000000000E+00  0.000000000E+00 -2.755785679E+02  2.755785679E+02  0.000000000E+00  0.00000E+00  9.000E+00
      25     1     1     2     0     0  1.709028174E+02  4.577919268E+01 -1.119874741E+02  2.438641053E+02  1.250000000E+02  0.00000E+00  9.000E+00
      25     1     1     2     0     0 -1.563753199E+02 -4.542242426E+01  6.967503666E+01  2.167857192E+02  1.250000000E+02  0.00000E+00  9.000E+00
      21     1     1     2   511   501 -1.452749749E+01 -3.567684236E-01 -2.190658712E+01  2.628828686E+01  2.384185791E-07  0.00000E+00  9.000E+00
#rwgt            1           1   2.8650538522045989E-002          10      207899           0
</event>
<event>
      5   9999  3.19816E-02  2.77365E+01 -1.00000E+00  1.55445E-01
      21    -1     0     0   502   512  0.000000000E+00  0.000000000E+00  8.058496610E+02  8.058496610E+02  0.000000000E+00  0.00000E+00  9.000E+00
      21    -1     0     0   501   502  0.000000000E+00  0.000000000E+00 -5.857280611E+02  5.857280611E+02  0.000000000E+00  0.00000E+00  9.000E+00
      25     1     1     2     0     0 -3.731341749E+02  3.320498885E+02  5.248389387E+02  7.352327200E+02  1.250000000E+02  0.00000E+00  9.000E+00
      25     1     1     2     0     0  3.832959976E+02 -3.578578029E+02 -3.176912643E+02  6.257241951E+02  1.250000000E+02  0.00000E+00  9.000E+00
      21     1     1     2   501   512 -1.016182270E+01  2.580791437E+01  1.297392544E+01  3.062080708E+01  5.591411304E-07  0.00000E+00  9.000E+00
#rwgt            1           1   3.1448161277902703E-002          10      208074           0
</event>
<event>
      5   9999  3.19816E-02  3.82214E+01 -1.00000E+00  1.46076E-01
      21    -1     0     0   502   501  0.000000000E+00  0.000000000E+00  4.311955821E+02  4.311955821E+02  0.000000000E+00  0.00000E+00  9.000E+00
      21    -1     0     0   511   502  0.000000000E+00  0.000000000E+00 -5.068613640E+02  5.068613640E+02  0.000000000E+00  0.00000E+00  9.000E+00
      25     1     1     2     0     0 -2.884875658E+02  2.558163001E+02 -1.559252876E+02  4.342864841E+02  1.250000000E+02  0.00000E+00  9.000E+00
      25     1     1     2     0     0  2.506201401E+02 -2.610058947E+02  1.603275172E+02  4.150475207E+02  1.250000000E+02  0.00000E+00  9.000E+00
      21     1     1     2   511   501  3.786742568E+01  5.189594642E+00 -8.006801153E+01  8.872294118E+01  1.348699152E-06  0.00000E+00  9.000E+00
#rwgt            1           1   3.3201812941603362E-002          10      208210           0
</event>
<event>
      5   9999  3.19816E-02  8.95531E+01 -1.00000E+00  1.26022E-01
      21    -1     0     0   512   501  0.000000000E+00  0.000000000E+00  1.273975579E+03  1.273975579E+03  0.000000000E+00  0.00000E+00  9.000E+00
      21    -1     0     0   501   502  0.000000000E+00  0.000000000E+00 -1.121913410E+02  1.121913410E+02  0.000000000E+00  0.00000E+00  9.000E+00
      25     1     1     2     0     0  2.703594057E+02 -2.230226820E+01  1.662164413E+02  3.418252548E+02  1.250000000E+02  0.00000E+00  9.000E+00
      25     1     1     2     0     0 -1.831713128E+02  4.274697946E+01  7.196880182E+02  7.542909767E+02  1.250000000E+02  0.00000E+00  9.000E+00
      21     1     1     2   512   502 -8.718809290E+01 -2.044471126E+01  2.758797785E+02  2.900506885E+02  3.814697266E-06  0.00000E+00  9.000E+00
#rwgt            1           1   2.7869775901934807E-002          10      208324           0
</event>
<event>
      5   9999  3.19816E-02  1.66681E+02 -1.00000E+00  1.14607E-01
      21    -1     0     0   502   501  0.000000000E+00  0.000000000E+00  1.631935975E+02  1.631935975E+02  0.000000000E+00  0.00000E+00  9.000E+00
      21    -1     0     0   501   511  0.000000000E+00  0.000000000E+00 -1.199980609E+03  1.199980609E+03  0.000000000E+00  0.00000E+00  9.000E+00
      25     1     1     2     0     0  1.511211083E+02  2.681649749E+02 -1.319214802E+02  3.574609350E+02  1.250000000E+02  0.00000E+00  9.000E+00
      25     1     1     2     0     0  3.066549700E+00 -2.048507378E+02 -7.090373136E+02  7.485533652E+02  1.250000000E+02  0.00000E+00  9.000E+00
      21     1     1     2   502   511 -1.541876580E+02 -6.331423712E+01 -1.958282176E+02  2.571599062E+02  6.607249480E-06  0.00000E+00  9.000E+00
#rwgt            1           1   2.9047597417201369E-002          10      208393           0
</event>
<event>
      5   9999  3.19816E-02  6.62912E+02 -1.00000E+00  9.54926E-02
       2    -1     0     0   502     0  0.000000000E+00  0.000000000E+00  1.986149944E+03  1.986149944E+03  0.000000000E+00  0.00000E+00  9.000E+00
      21    -1     0     0   501   502  0.000000000E+00  0.000000000E+00 -1.724104944E+03  1.724104944E+03  0.000000000E+00  0.00000E+00  9.000E+00
      25     1     1     2     0     0 -1.430644533E+02  5.126161368E+02 -1.052552517E+03  1.186058406E+03  1.250000000E+02  0.00000E+00  9.000E+00
      25     1     1     2     0     0 -4.329055061E+02 -8.408093636E+02 -1.027802464E+02  9.594562742E+02  1.250000000E+02  0.00000E+00  9.000E+00
       2     1     1     2   501     0  5.759699593E+02  3.281932268E+02  1.417377764E+03  1.564740207E+03  3.051757812E-05  0.00000E+00  9.000E+00
#rwgt            2          18   1.9274475373264419E-003          10      208459           0
</event>
<event>
      5   9999  3.19816E-02  1.65299E+01 -1.00000E+00  1.73500E-01
      21    -1     0     0   502   501  0.000000000E+00  0.000000000E+00  6.496010462E+02  6.496010462E+02  0.000000000E+00  0.00000E+00  9.000E+00
      21    -1     0     0   501   511  0.000000000E+00  0.000000000E+00 -3.043957607E+02  3.043957607E+02  0.000000000E+00  0.00000E+00  9.000E+00
      25     1     1     2     0     0  1.130217260E+02 -7.338964153E+01 -1.580534197E+00  1.838136233E+02  1.250000000E+02  0.00000E+00  9.000E+00
      25     1     1     2     0     0 -1.256897403E+02  6.277080851E+01  5.422959092E+02  5.739755556E+02  1.250000000E+02  0.00000E+00  9.000E+00
      21     1     1     2   502   511  1.266801434E+01  1.061883302E+01 -1.955100895E+02  1.962076280E+02  3.814697266E-06  0.00000E+00  9.000E+00
#rwgt            1           1   2.8589602602834243E-002          10      208523           0
</event>
<event>
      5   9999  3.19816E-02  2.37673E+01 -1.00000E+00  1.60413E-01
      21    -1     0     0   502   501  0.000000000E+00  0.000000000E+00  1.103535500E+03  1.103535500E+03  0.000000000E+00  0.00000E+00  9.000E+00
      21    -1     0     0   512   502  0.000000000E+00  0.000000000E+00 -4.367183147E+01  4.367183147E+01  0.000000000E+00  0.00000E+00  9.000E+00
      25     1     1     2     0     0 -1.056481162E+02  9.837948932E+01  3.890094756E+02  4.333513822E+02  1.250000000E+02  0.00000E+00  9.000E+00
      25     1     1     2     0     0  1.200117949E+02 -7.944355288E+01  6.613219188E+02  6.882483486E+02  1.250000000E+02  0.00000E+00  9.000E+00
      21     1     1     2   512   501 -1.436367867E+01 -1.893593644E+01  9.532273879E+00  2.560760042E+01  4.915124924E-07  0.00000E+00  9.000E+00
#rwgt            1           1   3.1764533918343246E-002          10      208705           0
</event>
<event>
      5   9999  3.19816E-02  4.53788E+02 -1.00000E+00  1.00063E-01
      21    -1     0     0   502   501  0.000000000E+00  0.000000000E+00  1.437828390E+03  1.437828390E+03  0.000000000E+00  0.00000E+00  9.000E+00
      21    -1     0     0   501   511  0.000000000E+00  0.000000000E+00 -8.667325457E+02  8.667325457E+02  0.000000000E+00  0.00000E+00  9.000E+00
      25     1     1     2     0     0 -5.549318998E+02  1.651156414E+02 -3.748775239E+02  7.009784207E+02  1.250000000E+02  0.00000E+00  9.000E+00
      25     1     1     2     0     0  7.154050963E+02  2.593506563E+02  8.345917157E+02  1.136325458E+03  1.250000000E+02  0.00000E+00  9.000E+00
      21     1     1     2   502   511 -1.604731965E+02 -4.244662976E+02  1.113816524E+02  4.672570568E+02  3.303624740E-06  0.00000E+00  9.000E+00
#rwgt            2          11   3.5343592925199232E-003          10      208920           0
</event>
<event>
      5   9999  3.19816E-02  4.70671E+02 -1.00000E+00  9.96036E-02
      21    -1     0     0   512   501  0.000000000E+00  0.000000000E+00  5.795735759E+02  5.795735759E+02  0.000000000E+00  0.00000E+00  9.000E+00
      21    -1     0     0   501   502  0.000000000E+00  0.000000000E+00 -1.558109429E+03  1.558109429E+03  0.000000000E+00  0.00000E+00  9.000E+00
      25     1     1     2     0     0  2.078641313E+02  7.656115503E+02 -6.265088570E+02  1.018580822E+03  1.250000000E+02  0.00000E+00  9.000E+00
      25     1     1     2     0     0 -2.089328856E+02 -2.949413558E+02 -4.965319077E+02  6.267473889E+02  1.250000000E+02  0.00000E+00  9.000E+00
      21     1     1     2   512   502  1.068754368E+00 -4.706701945E+02  1.445049112E+02  4.923547944E+02  9.147322699E-06  0.00000E+00  9.000E+00
#rwgt            1           1   3.2213535174871320E-002          10      208940           0
</event>
<event>
      5   9999  3.19816E-02  2.68325E+01 -1.00000E+00  1.56484E-01
      21    -1     0     0   502   501  0.000000000E+00  0.000000000E+00  4.695750661E+02  4.695750661E+02  0.000000000E+00  0.00000E+00  9.000E+00
      21    -1     0     0   511   502  0.000000000E+00  0.000000000E+00 -8.775987548E+01  8.775987548E+01  0.000000000E+00  0.00000E+00  9.000E+00
      25     1     1     2     0     0 -2.815074735E+01 -6.184427402E+01  3.486144071E+02  3.765291273E+02  1.250000000E+02  0.00000E+00  9.000E+00
      25     1     1     2     0     0  5.496402419E+01  6.082976629E+01  3.619642307E+01  1.538066496E+02  1.250000000E+02  0.00000E+00  9.000E+00
      21     1     1     2   511   501 -2.681327684E+01  1.014507727E+00 -2.995639556E+00  2.699916475E+01  3.650024150E-07  0.00000E+00  9.000E+00
#rwgt            1           1   2.5542993113219246E-002          10      208984           0
</event>
<event>
      5   9999  3.19816E-02  1.96528E+02 -1.00000E+00  1.11926E-01
      21    -1     0     0   502   501  0.000000000E+00  0.000000000E+00  2.259313670E+02  2.259313670E+02  0.000000000E+00  0.00000E+00  9.000E+00
       2    -1     0     0   501     0  0.000000000E+00  0.000000000E+00 -4.019744388E+03  4.019744388E+03  0.000000000E+00  0.00000E+00  9.000E+00
      25     1     1     2     0     0  5.902024188E+02  4.094472563E+02 -3.066324151E+03  3.151817690E+03  1.250000000E+02  0.00000E+00  9.000E+00
      25     1     1     2     0     0 -3.938068128E+02 -4.166698134E+02 -3.940852462E+02  7.068420761E+02  1.250000000E+02  0.00000E+00  9.000E+00
       2     1     1     2   502     0 -1.963956060E+02  7.222557163E+00 -3.334036229E+02  3.870159882E+02  7.629394531E-06  0.00000E+00  9.000E+00
#rwgt            2          13   2.7152576481441529E-003          10      209076           0
</event>
<event>
      5   9999  3.19816E-02  1.15499E+02 -1.00000E+00  1.21077E-01
      21    -1     0     0   502   511  0.000000000E+00  0.000000000E+00  2.279935674E+02  2.279935674E+02  0.000000000E+00  0.00000E+00  9.000E+00
      21    -1     0     0   501   502  0.000000000E+00  0.000000000E+00 -6.477644517E+02  6.477644517E+02  0.000000000E+00  0.00000E+00  9.000E+00
      25     1     1     2     0     0 -5.479179680E+01 -1.153375808E+01 -4.871225419E+02  5.060123906E+02  1.250000000E+02  0.00000E+00  9.000E+00
      25     1     1     2     0     0  1.562672777E+02  6.669446634E+01 -3.692278387E+01  2.141399213E+02  1.250000000E+02  0.00000E+00  9.000E+00
      21     1     1     2   501   511 -1.014754809E+02 -5.516070826E+01  1.042744415E+02  1.556057072E+02  3.303624740E-06  0.00000E+00  9.000E+00
#rwgt            1           1   2.9117165145414382E-002          10      209095           0
</event>
<event>
      5   9999  3.19816E-02  7.35275E+01 -1.00000E+00  1.30148E-01
      21    -1     0     0   502   501  0.000000000E+00  0.000000000E+00  1.411124731E+02  1.411124731E+02  0.000000000E+00  0.00000E+00  9.000E+00
      21    -1     0     0   512   502  0.000000000E+00  0.000000000E+00 -7.661281329E+02  7.661281329E+02  0.000000000E+00  0.00000E+00  9.000E+00
      25     1     1     2     0     0  2.235866958E+02 -1.234312727E+02 -2.002106481E+02  3.477579521E+02  1.250000000E+02  0.00000E+00  9.000E+00
      25     1     1     2     0     0 -1.799643940E+02  1.826206875E+02 -2.953385108E+02  4.105938804E+02  1.250000000E+02  0.00000E+00  9.000E+00
      21     1     1     2   512   501 -4.362230176E+01 -5.918941480E+01 -1.294665009E+02  1.488887735E+02  0.000000000E+00  0.00000E+00  9.000E+00
#rwgt            1           1   2.7160153674577605E-002          10      209196           0
</event>
<event>
      5   9999  3.19816E-02  2.97255E+01 -1.00000E+00  1.53318E-01
      21    -1     0     0   502   501  0.000000000E+00  0.000000000E+00  8.892208009E+01  8.892208009E+01  0.000000000E+00  0.00000E+00  9.000E+00
      21    -1     0     0   501   511  0.000000000E+00  0.000000000E+00 -2.153198567E+03  2.153198567E+03  0.000000000E+00  0.00000E+00  9.000E+00
      25     1     1     2     0     0 -1.164867203E+02  2.019542793E+02 -2.573546243E+02  3.690678658E+02  1.250000000E+02  0.00000E+00  9.000E+00
      25     1     1     2     0     0  1.461818927E+02 -2.006123557E+02 -5.542306176E+02  6.200089036E+02  1.250000000E+02  0.00000E+00  9.000E+00
      21     1     1     2   502   511 -2.969517240E+01 -1.341923595E+00 -1.252691245E+03  1.253043877E+03  1.525878906E-05  0.00000E+00  9.000E+00
#rwgt            1           1   2.7104876573024440E-002          10      209303           0
</event>
<event>
      5   9999  3.19816E-02  2.10873E+01 -1.00000E+00  1.64494E-01
      21    -1     0     0   502   512  0.000000000E+00  0.000000000E+00  1.316272050E+02  1.316272050E+02  0.000000000E+00  0.00000E+00  9.000E+00
      21    -1     0     0   501   502  0.000000000E+00  0.000000000E+00 -2.236822429E+02  2.236822429E+02  0.000000000E+00  0.00000E+00  9.000E+00
      25     1     1     2     0     0 -5.089322977E+01  3.118109700E+01 -2.337478533E+01  1.404769100E+02  1.250000000E+02  0.00000E+00  9.000E+00
      25     1     1     2     0     0  6.096608377E+01 -1.265512901E+01 -1.037084698E+02  1.739467228E+02  1.250000000E+02  0.00000E+00  9.000E+00
      21     1     1     2   501   512 -1.007285400E+01 -1.852596799E+01  3.502821721E+01  4.088581512E+01  4.768371582E-07  0.00000E+00  9.000E+00
#rwgt            1           1   3.0118171056804668E-002          10      209436           0
</event>
<event>
      5   9999  3.19816E-02  9.15073E+01 -1.00000E+00  1.25587E-01
      21    -1     0     0   502   511  0.000000000E+00  0.000000000E+00  5.729746462E+02  5.729746462E+02  0.000000000E+00  0.00000E+00  9.000E+00
      21    -1     0     0   501   502  0.000000000E+00  0.000000000E+00 -3.308669783E+03  3.308669783E+03  0.000000000E+00  0.00000E+00  9.000E+00
      25     1     1     2     0     0  4.660941527E+02  1.696836830E+01 -2.759966074E+03  2.801886759E+03  1.250000000E+02  0.00000E+00  9.000E+00
      25     1     1     2     0     0 -4.662207447E+02 -1.084756027E+02 -4.059204681E+02  6.399415329E+02  1.250000000E+02  0.00000E+00  9.000E+00
      21     1     1     2   501   511  1.265919435E-01  9.150723444E+01  4.301914046E+02  4.398161373E+02  1.078959322E-05  0.00000E+00  9.000E+00
#rwgt            1           1   4.6546853322056624E-002          10      209518           0
</event>
<event>
      5   9999  3.19816E-02  1.74799E+02 -1.00000E+00  1.13820E-01
      21    -1     0     0   502   512  0.000000000E+00  0.000000000E+00  1.618688601E+02  1.618688601E+02  0.000000000E+00  0.00000E+00  9.000E+00
      21    -1     0     0   501   502  0.000000000E+00  0.000000000E+00 -1.909599366E+03  1.909599366E+03  0.000000000E+00  0.00000E+00  9.000E+00
      25     1     1     2     0     0 -3.546977661E+02 -3.232770963E+00 -1.909849048E+02  4.218070530E+02  1.250000000E+02  0.00000E+00  9.000E+00
      25     1     1     2     0     0  1.916640704E+02 -5.981235765E+01 -1.383441964E+03  1.403513200E+03  1.250000000E+02  0.00000E+00  9.000E+00
      21     1     1     2   501   512  1.630336957E+02  6.304512861E+01 -1.733036372E+02  2.461479735E+02  4.672030912E-06  0.00000E+00  9.000E+00
#rwgt            1           1   2.6347566500393774E-002          10      209594           0
</event>
<event>
      5   9999  3.19816E-02  8.73351E+01 -1.00000E+00  1.26532E-01
       2    -1     0     0   502     0  0.000000000E+00  0.000000000E+00  3.941010563E+02  3.941010563E+02  0.000000000E+00  0.00000E+00  9.000E+00
      21    -1     0     0   501   502  0.000000000E+00  0.000000000E+00 -4.220856034E+02  4.220856034E+02  0.000000000E+00  0.00000E+00  9.000E+00
      25     1     1     2     0     0 -1.477955215E+02 -1.970360083E+02 -2.290550752E+02  3.588285555E+02  1.250000000E+02  0.00000E+00  9.000E+00
      25     1     1     2     0     0  7.807351392E+01  2.496312585E+02  2.248195460E+02  3.668515600E+02  1.250000000E+02  0.00000E+00  9.000E+00
       2     1     1     2   501     0  6.972200763E+01 -5.259525018E+01 -2.374901788E+01  9.050654418E+01  8.259061849E-07  0.00000E+00  9.000E+00
#rwgt            1           1   2.9941691845169892E-002          10      209664           0
</event>
<event>
      5   9999  3.19816E-02  1.52849E+01 -1.00000E+00  1.76617E-01
      21    -1     0     0   502   501  0.000000000E+00  0.000000000E+00  9.260932746E+02  9.260932746E+02  0.000000000E+00  0.00000E+00  9.000E+00
      21    -1     0     0   501   511  0.000000000E+00  0.000000000E+00 -1.998208869E+03  1.998208869E+03  0.000000000E+00  0.00000E+00  9.000E+00
      25     1     1     2     0     0 -6.502661863E+02  9.737579015E+01 -3.931930953E+02  7.762434977E+02  1.250000000E+02  0.00000E+00  9.000E+00
      25     1     1     2     0     0  6.644387201E+02 -1.031000704E+02  5.753248632E+02  8.937181522E+02  1.250000000E+02  0.00000E+00  9.000E+00
      21     1     1     2   502   511 -1.417253380E+01  5.724280300E+00 -1.254247363E+03  1.254340494E+03  0.000000000E+00  0.00000E+00  9.000E+00
#rwgt            1           1   2.9683748606118759E-002          10      209745           0
</event>
<event>
      5   9999  3.19816E-02  8.23510E+01 -1.00000E+00  1.27744E-01
      21    -1     0     0   512   501  0.000000000E+00  0.000000000E+00  1.021763540E+03  1.021763540E+03  0.000000000E+00  0.00000E+00  9.000E+00
      21    -1     0     0   501   502  0.000000000E+00  0.000000000E+00 -1.815171422E+02  1.815171422E+02  0.000000000E+00  0.00000E+00  9.000E+00
      25     1     1     2     0     0  2.331159789E+02 -2.287460924E+02  4.384927937E+02  5.608643013E+02  1.250000000E+02  0.00000E+00  9.000E+00
      25     1     1     2     0     0 -2.906886109E+02  1.698641457E+02  1.717044665E+02  3.980717528E+02  1.250000000E+02  0.00000E+00  9.000E+00
      21     1     1     2   512   502  5.757263205E+01  5.888194664E+01  2.300491370E+02  2.443446276E+02  2.697398305E-06  0.00000E+00  9.000E+00
#rwgt            1           1   2.5382197459537428E-002          10      210039           0
</event>
<event>
      5   9999  3.19816E-02  4.77404E+01 -1.00000E+00  1.40231E-01
      21    -1     0     0   502   501  0.000000000E+00  0.000000000E+00  5.805637602E+02  5.805637602E+02  0.000000000E+00  0.00000E+00  9.000E+00
      21    -1     0     0   511   502  0.000000000E+00  0.000000000E+00 -8.184649427E+02  8.184649427E+02  0.000000000E+00  0.00000E+00  9.000E+00
      25     1     1     2     0     0  2.590750115E+02  3.650139006E+02 -9.102530076E+01  4.735669061E+02  1.250000000E+02  0.00000E+00  9.000E+00
      25     1     1     2     0     0 -2.189684872E+02 -3.909100330E+02  2.483831479E+02  5.273301057E+02  1.250000000E+02  0.00000E+00  9.000E+00
      21     1     1     2   511   501 -4.010652435E+01  2.589613241E+01 -3.952590296E+02  3.981316911E+02  5.394796609E-06  0.00000E+00  9.000E+00
#rwgt            1           1   3.0558782780335164E-002          10      210157           0
</event>
<event>
      5   9999  3.19816E-02  3.18929E+02 -1.00000E+00  1.04736E-01
       3    -1     0     0   502     0  0.000000000E+00  0.000000000E+00  1.871648851E+03  1.871648851E+03  0.000000000E+00  0.00000E+00  9.000E+00
      21    -1     0     0   501   502  0.000000000E+00  0.000000000E+00 -2.681952546E+02  2.681952546E+02  0.000000000E+00  0.00000E+00  9.000E+00
      25     1     1     2     0     0  8.821275088E+01  2.930181778E+02  1.076017549E+03  1.125646440E+03  1.250000000E+02  0.00000E+00  9.000E+00
      25     1     1     2     0     0  9.791871584E+01 -3.403796855E+01 -1.774358970E+02  2.405309871E+02  1.250000000E+02  0.00000E+00  9.000E+00
       3     1     1     2   501     0 -1.861314667E+02 -2.589802092E+02  7.048719443E+02  7.736666786E+02  0.000000000E+00  0.00000E+00  9.000E+00
#rwgt            1           1   3.0002042463001484E-002          10      210330           0
</event>
<event>
      5   9999  3.19816E-02  2.54041E+01 -1.00000E+00  1.58231E-01
      21    -1     0     0   511   501  0.000000000E+00  0.000000000E+00  2.430225000E+02  2.430225000E+02  0.000000000E+00  0.00000E+00  9.000E+00
      21    -1     0     0   501   502  0.000000000E+00  0.000000000E+00 -6.019445708E+02  6.019445708E+02  0.000000000E+00  0.00000E+00  9.000E+00
      25     1     1     2     0     0 -2.393842639E+01  3.291498205E+02 -1.014284004E+02  3.671857472E+02  1.250000000E+02  0.00000E+00  9.000E+00
      25     1     1     2     0     0  3.399993559E+01 -3.524765594E+02 -2.505759997E+02  4.514521594E+02  1.250000000E+02  0.00000E+00  9.000E+00
      21     1     1     2   511   502 -1.006150920E+01  2.332673897E+01 -6.917670727E+00  2.632916418E+01  7.396741894E-07  0.00000E+00  9.000E+00
#rwgt            1           1   2.8978631603874441E-002          10      210388           0
</event>
<event>
      5   9999  3.19816E-02  6.14428E+01 -1.00000E+00  1.34154E-01
      21    -1     0     0   502   501  0.000000000E+00  0.000000000E+00  7.043071404E+01  7.043071404E+01  0.000000000E+00  0.00000E+00  9.000E+00
       2    -1     0     0   501     0  0.000000000E+00  0.000000000E+00 -2.406351321E+03  2.406351321E+03  0.000000000E+00  0.00000E+00  9.000E+00
      25     1     1     2     0     0  1.338246911E+02  1.830787266E+02 -2.886647216E+02  3.877875573E+02  1.250000000E+02  0.00000E+00  9.000E+00
      25     1     1     2     0     0 -1.123508555E+02 -1.255105308E+02 -5.229569809E+02  5.634577286E+02  1.250000000E+02  0.00000E+00  9.000E+00
       2     1     1     2   502     0 -2.147383561E+01 -5.756819589E+01 -1.524298904E+03  1.525536749E+03  2.157918644E-05  0.00000E+00  9.000E+00
#rwgt            1           1   1.4225582968037042E-002          10      210544           0
</event>
<event>
      5   9999  3.19816E-02  7.39888E+00 -1.00000E+00  2.12207E-01
      21    -1     0     0   502   501  0.000000000E+00  0.000000000E+00  6.542412179E+01  6.542412179E+01  0.000000000E+00  0.00000E+00  9.000E+00
      21    -1     0     0   501   511  0.000000000E+00  0.000000000E+00 -7.130963481E+02  7.130963481E+02  0.000000000E+00  0.00000E+00  9.000E+00
      25     1     1     2     0     0 -5.020168264E+01 -9.409221947E+01 -7.318133559E+01  1.798723508E+02  1.250000000E+02  0.00000E+00  9.000E+00
      25     1     1     2     0     0  5.207786542E+01  8.693516731E+01 -5.469682956E+02  5.701483524E+02  1.250000000E+02  0.00000E+00  9.000E+00
      21     1     1     2   502   511 -1.876182778E+00  7.157052151E+00 -2.752259507E+01  2.849976661E+01  3.371747881E-07  0.00000E+00  9.000E+00
#rwgt            1           1   3.0631826236777956E-002          10      210587           0
</event>
<event>
      5   9999  3.19816E-02  1.00765E+02 -1.00000E+00  1.23679E-01
      21    -1     0     0   502   501  0.000000000E+00  0.000000000E+00  2.956573698E+02  2.956573698E+02  0.000000000E+00  0.00000E+00  9.000E+00
      21    -1     0     0   501   512  0.000000000E+00  0.000000000E+00 -7.645200461E+02  7.645200461E+02  0.000000000E+00  0.00000E+00  9.000E+00
      25     1     1     2     0     0  1.700779027E+02 -9.443083779E+01  1.850682952E+02  2.961738510E+02  1.250000000E+02  0.00000E+00  9.000E+00
      25     1     1     2     0     0 -1.801641598E+02  1.946898384E+02 -4.613930595E+02  5.466916983E+02  1.250000000E+02  0.00000E+00  9.000E+00
      21     1     1     2   502   512  1.008625710E+01 -1.002590006E+02 -1.925379120E+02  2.173118666E+02  3.814697266E-06  0.00000E+00  9.000E+00
#rwgt            1           1   2.8164497331301296E-002          10      210895           0
</event>
<event>
      5   9999  3.19816E-02  1.92929E+02 -1.00000E+00  1.12220E-01
      21    -1     0     0   502   511  0.000000000E+00  0.000000000E+00  1.273443871E+02  1.273443871E+02  0.000000000E+00  0.00000E+00  9.000E+00
      21    -1     0     0   501   502  0.000000000E+00  0.000000000E+00 -2.056428513E+03  2.056428513E+03  0.000000000E+00  0.00000E+00  9.000E+00
      25     1     1     2     0     0  3.349635369E+02 -1.452521251E+02 -4.020081598E+02  5.572560556E+02  1.250000000E+02  0.00000E+00  9.000E+00
      25     1     1     2     0     0 -1.486472601E+02  1.953305589E+02 -1.298541744E+03  1.327435760E+03  1.250000000E+02  0.00000E+00  9.000E+00
      21     1     1     2   501   511 -1.863162768E+02 -5.007843380E+01 -2.285342217E+02  2.990810844E+02  2.697398305E-06  0.00000E+00  9.000E+00
#rwgt            1           1   2.5255645296448876E-002          10      210990           0
</event>
<event>
      5   9999  3.19816E-02  1.42834E+02 -1.00000E+00  1.17242E-01
      21    -1     0     0   502   501  0.000000000E+00  0.000000000E+00  1.018630376E+03  1.018630376E+03  0.000000000E+00  0.00000E+00  9.000E+00
      21    -1     0     0   512   502  0.000000000E+00  0.000000000E+00 -4.107581433E+02  4.107581433E+02  0.000000000E+00  0.00000E+00  9.000E+00
      25     1     1     2     0     0 -2.640445407E+02  6.582451896E+01  1.448403029E+02  3.326501167E+02  1.250000000E+02  0.00000E+00  9.000E+00
      25     1     1     2     0     0  3.644086943E+02  3.580531777E+01  7.116399515E+02  8.100198379E+02  1.250000000E+02  0.00000E+00  9.000E+00
      21     1     1     2   512   501 -1.003641536E+02 -1.016298367E+02 -2.486080215E+02  2.867185648E+02  0.000000000E+00  0.00000E+00  9.000E+00
#rwgt            1           1   2.7845156001559599E-002          10      211032           0
</event>
<event>
      5   9999  3.19816E-02  7.11122E+01 -1.00000E+00  1.30875E-01
      21    -1     0     0   511   501  0.000000000E+00  0.000000000E+00  4.564068225E+02  4.564068225E+02  0.000000000E+00  0.00000E+00  9.000E+00
      21    -1     0     0   501   502  0.000000000E+00  0.000000000E+00 -9.369361928E+02  9.369361928E+02  0.000000000E+00  0.00000E+00  9.000E+00
      25     1     1     2     0     0 -1.922246078E+02  5.606433523E+02 -1.623633018E+02  6.271029502E+02  1.250000000E+02  0.00000E+00  9.000E+00
      25     1     1     2     0     0  1.253923232E+02 -5.849412063E+02 -3.293642776E+02  6.942515948E+02  1.250000000E+02  0.00000E+00  9.000E+00
      21     1     1     2   511   502  6.683228456E+01  2.429785405E+01  1.119820918E+01  7.198847032E+01  1.294944345E-06  0.00000E+00  9.000E+00
#rwgt            1           1   3.1591645423157656E-002          10      211076           0
</event>
<event>
      5   9999  3.19816E-02  1.19153E+02 -1.00000E+00  1.20499E-01
       2    -1     0     0   502     0  0.000000000E+00  0.000000000E+00  1.918845489E+03  1.918845489E+03  0.000000000E+00  0.00000E+00  9.000E+00
      21    -1     0     0   501   502  0.000000000E+00  0.000000000E+00 -7.415445830E+02  7.415445830E+02  0.000000000E+00  0.00000E+00  9.000E+00
      25     1     1     2     0     0 -3.222126279E+02 -7.062600595E+00 -2.114396126E+02  4.052191601E+02  1.250000000E+02  0.00000E+00  9.000E+00
      25     1     1     2     0     0  2.368006834E+02 -7.601697778E+01 -3.862996385E+02  4.761360680E+02  1.250000000E+02  0.00000E+00  9.000E+00
       2     1     1     2   501     0  8.541194451E+01  8.307957838E+01  1.775040157E+03  1.779034844E+03  2.157918644E-05  0.00000E+00  9.000E+00
#rwgt            1           1   2.8120849124461382E-002          10      211179           0
</event>
<event>
      5   9999  3.19816E-02  1.02900E+02 -1.00000E+00  1.23272E-01
      21    -1     0     0   502   501  0.000000000E+00  0.000000000E+00  8.703525268E+02  8.703525268E+02  0.000000000E+00  0.00000E+00  9.000E+00
      21    -1     0     0   501   511  0.000000000E+00  0.000000000E+00 -2.148105489E+02  2.148105489E+02  0.000000000E+00  0.00000E+00  9.000E+00
      25     1     1     2     0     0 -1.630150011E+02 -2.030466147E+02  5.809163585E+02  6.487608449E+02  1.250000000E+02  0.00000E+00  9.000E+00
      25     1     1     2     0     0  9.827280480E+01  1.230665872E+02  1.935866804E+02  2.791124001E+02  1.250000000E+02  0.00000E+00  9.000E+00
      21     1     1     2   502   511  6.474219635E+01  7.998002754E+01 -1.189610611E+02  1.572898307E+02  4.672030912E-06  0.00000E+00  9.000E+00
#rwgt            2          11   4.3874517190752530E-003          10      211252           0
</event>
<event>
      5   9999  3.19816E-02  7.08875E+02 -1.00000E+00  9.47279E-02
      21    -1     0     0   502   501  0.000000000E+00  0.000000000E+00  2.488347348E+03  2.488347348E+03  0.000000000E+00  0.00000E+00  9.000E+00
      -4    -1     0     0     0   502  0.000000000E+00  0.000000000E+00 -3.391630959E+02  3.391630959E+02  0.000000000E+00  0.00000E+00  9.000E+00
      25     1     1     2     0     0 -5.435304684E+01 -4.753696699E+02  4.775717924E+02  6.874811951E+02  1.250000000E+02  0.00000E+00  9.000E+00
      25     1     1     2     0     0  5.557008551E+02 -2.578312594E+01  1.060691525E+03  1.204225777E+03  1.250000000E+02  0.00000E+00  9.000E+00
      -4     1     1     2     0   501 -5.013478083E+02  5.011527958E+02  6.109209339E+02  9.358034714E+02  1.321449896E-05  0.00000E+00  9.000E+00
#rwgt            1           1   2.9351234696874541E-002          10      211287           0
</event>
<event>
      5   9999  3.19816E-02  1.35516E+01 -1.00000E+00  1.81641E-01
      21    -1     0     0   502   501  0.000000000E+00  0.000000000E+00  3.621926781E+02  3.621926781E+02  0.000000000E+00  0.00000E+00  9.000E+00
      21    -1     0     0   501   511  0.000000000E+00  0.000000000E+00 -8.849203343E+02  8.849203343E+02  0.000000000E+00  0.00000E+00  9.000E+00
      25     1     1     2     0     0  9.555293278E+01  4.752517408E+02 -1.579546967E+01  5.008683229E+02  1.250000000E+02  0.00000E+00  9.000E+00
      25     1     1     2     0     0 -1.082793379E+02 -4.799084619E+02 -4.216329096E+02  6.598756377E+02  1.250000000E+02  0.00000E+00  9.000E+00
      21     1     1     2   502   511  1.272640517E+01  4.656721131E+00 -8.529927700E+01  8.636905173E+01  9.536743164E-07  0.00000E+00  9.000E+00
#rwgt            1           1   2.9492720844408824E-002          10      211314           0
</event>
<event>
      5   9999  3.19816E-02  1.13538E+02 -1.00000E+00  1.21398E-01
      21    -1     0     0   512   501  0.000000000E+00  0.000000000E+00  2.082027362E+03  2.082027362E+03  0.000000000E+00  0.00000E+00  9.000E+00
      21    -1     0     0   501   502  0.000000000E+00  0.000000000E+00 -1.615485233E+03  1.615485233E+03  0.000000000E+00  0.00000E+00  9.000E+00
      25     1     1     2     0     0 -1.130125450E+02 -1.083835873E+01 -1.540415025E+03  1.549642783E+03  1.250000000E+02  0.00000E+00  9.000E+00
      25     1     1     2     0     0  1.550821939E+02  1.162946157E+02  1.247206407E+02  2.622120568E+02  1.250000000E+02  0.00000E+00  9.000E+00
      21     1     1     2   512   502 -4.206964892E+01 -1.054562570E+02  1.882236514E+03  1.885657755E+03  3.051757812E-05  0.00000E+00  9.000E+00
#rwgt            1           1   2.8916439378731628E-002          10      211673           0
</event>
<event>
      5   9999  3.19816E-02  1.38729E+01 -1.00000E+00  1.80640E-01
      21    -1     0     0   511   501  0.000000000E+00  0.000000000E+00  1.327306513E+02  1.327306513E+02  0.000000000E+00  0.00000E+00  9.000E+00
      21    -1     0     0   501   502  0.000000000E+00  0.000000000E+00 -2.035245130E+03  2.035245130E+03  0.000000000E+00  0.00000E+00  9.000E+00
      25     1     1     2     0     0 -2.937299726E+02 -3.337538159E+02 -1.409940100E+03  1.483652584E+03  1.250000000E+02  0.00000E+00  9.000E+00
      25     1     1     2     0     0  3.011978178E+02  3.220623659E+02 -4.885277304E+02  6.698721045E+02  1.250000000E+02  0.00000E+00  9.000E+00
      21     1     1     2   511   502 -7.467845183E+00  1.169145003E+01 -4.046649155E+00  1.445109286E+01  8.429369702E-08  0.00000E+00  9.000E+00
#rwgt            1           1   1.5389834915952316E-002          10      211794           0
</event>
<event>
      5   9999  3.19816E-02  4.39266E+01 -1.00000E+00  1.42362E-01
      -2    -1     0     0     0   501  0.000000000E+00  0.000000000E+00  2.133895894E+03  2.133895894E+03  0.000000000E+00  0.00000E+00  9.000E+00
      21    -1     0     0   501   502  0.000000000E+00  0.000000000E+00 -3.538860688E+02  3.538860688E+02  0.000000000E+00  0.00000E+00  9.000E+00
      25     1     1     2     0     0  2.496096158E+02 -2.664462825E+02 -9.773078765E+01  3.980890461E+02  1.250000000E+02  0.00000E+00  9.000E+00
      25     1     1     2     0     0 -2.114072297E+02  2.447638604E+02  1.786883727E+02  3.900729402E+02  1.250000000E+02  0.00000E+00  9.000E+00
      -2     1     1     2     0   502 -3.820238604E+01  2.168242215E+01  1.699052241E+03  1.699619977E+03  2.157918644E-05  0.00000E+00  9.000E+00
#rwgt            1           1   2.7984661539648587E-002          10      212076           0
</event>
<event>
      5   9999  3.19816E-02  1.59651E+01 -1.00000E+00  1.74870E-01
      21    -1     0     0   502   501  0.000000000E+00  0.000000000E+00  1.538091048E+02  1.538091048E+02  0.000000000E+00  0.00000E+00  9.000E+00
      21    -1     0     0   511   502  0.000000000E+00  0.000000000E+00 -5.466358847E+02  5.466358847E+02  0.000000000E+00  0.00000E+00  9.000E+00
      25     1     1     2     0     0  3.193820122E+01  3.204984566E+01  1.127695093E+02  1.743249940E+02  1.250000000E+02  0.00000E+00  9.000E+00
      25     1     1     2     0     0 -1.613545415E+01 -2.977903624E+01 -4.539791249E+02  4.720902347E+02  1.250000000E+02  0.00000E+00  9.000E+00
      21     1     1     2   511   501 -1.580274707E+01 -2.270809425E+00 -5.161716441E+01  5.402976080E+01  6.743495762E-07  0.00000E+00  9.000E+00
#rwgt            1           1   3.2605618741128106E-002          10      212168           0
</event>
<event>
      5   9999  3.19816E-02  1.24995E+02 -1.00000E+00  1.19621E-01
      21    -1     0     0   502   501  0.000000000E+00  0.000000000E+00  6.694907274E+02  6.694907274E+02  0.000000000E+00  0.00000E+00  9.000E+00
      21    -1     0     0   512   502  0.000000000E+00  0.000000000E+00 -2.067188254E+02  2.067188254E+02  0.000000000E+00  0.00000E+00  9.000E+00
      25     1     1     2     0     0  6.321612412E+01 -1.008332087E+02  4.078135362E+02  4.428323550E+02  1.250000000E+02  0.00000E+00  9.000E+00
      25     1     1     2     0     0 -1.817429436E+02  6.114480069E+01  1.523125133E+02  2.749423320E+02  1.250000000E+02  0.00000E+00  9.000E+00
      21     1     1     2   512   501  1.185268195E+02  3.968840798E+01 -9.735414752E+01  1.584348658E+02  1.348699152E-06  0.00000E+00  9.000E+00
#rwgt            1           1   2.9854366381969377E-002          10      212370           0
</event>
<event>
      5   9999  3.19816E-02  3.46295E+02 -1.00000E+00  1.03606E-01
      21    -1     0     0   502   501  0.000000000E+00  0.000000000E+00  6.465486214E+02  6.465486214E+02  0.000000000E+00  0.00000E+00  9.000E+00
      -3    -1     0     0     0   502  0.000000000E+00  0.000000000E+00 -3.792648707E+02  3.792648707E+02  0.000000000E+00  0.00000E+00  9.000E+00
      25     1     1     2     0     0 -1.034091562E+02  3.651680940E+01 -1.215480925E+02  2.059754105E+02  1.250000000E+02  0.00000E+00  9.000E+00
      25     1     1     2     0     0 -3.228670114E+01  2.820844544E+02  3.556782088E+02  4.719598062E+02  1.250000000E+02  0.00000E+00  9.000E+00
      -3     1     1     2     0   501  1.356958574E+02 -3.186012638E+02  3.315363436E+01  3.478782753E+02  6.893554828E-06  0.00000E+00  9.000E+00
#rwgt            2           8   4.5500016431962448E-005          10      212713           0
</event>
<event>
      5   9999  3.19816E-02  1.27503E+01 -1.00000E+00  1.84301E-01
      21    -1     0     0   502   501  0.000000000E+00  0.000000000E+00  5.323990806E+02  5.323990806E+02  0.000000000E+00  0.00000E+00  9.000E+00
      21    -1     0     0   511   502  0.000000000E+00  0.000000000E+00 -3.189505215E+02  3.189505215E+02  0.000000000E+00  0.00000E+00  9.000E+00
      25     1     1     2     0     0 -4.980092788E+01 -1.259614967E+02 -4.160558988E+01  1.889509359E+02  1.250000000E+02  0.00000E+00  9.000E+00
      25     1     1     2     0     0  3.729454904E+01  1.284437499E+02  4.402339319E+02  4.767804475E+02  1.250000000E+02  0.00000E+00  9.000E+00
      21     1     1     2   511   501  1.250637884E+01 -2.482253156E+00 -1.851797829E+02  1.856182187E+02  0.000000000E+00  0.00000E+00  9.000E+00
#rwgt            1           1   2.7220104292141948E-002          10      212732           0
</event>
<event>
      5   9999  3.19816E-02  1.06319E+02 -1.00000E+00  1.22643E-01
      21    -1     0     0   502   501  0.000000000E+00  0.000000000E+00  7.786817578E+02  7.786817578E+02  0.000000000E+00  0.00000E+00  9.000E+00
      21    -1     0     0   501   512  0.000000000E+00  0.000000000E+00 -5.119258746E+02  5.119258746E+02  0.000000000E+00  0.00000E+00  9.000E+00
      25     1     1     2     0     0  2.106022878E+02  4.274334238E+02  4.176614171E+02  6.458472844E+02  1.250000000E+02  0.00000E+00  9.000E+00
      25     1     1     2     0     0 -1.045044149E+02 -4.342886276E+02 -4.555671416E+00  4.638680189E+02  1.250000000E+02  0.00000E+00  9.000E+00
      21     1     1     2   502   512 -1.060978729E+02  6.855203770E+00 -1.463498625E+02  1.808923291E+02  1.907348633E-06  0.00000E+00  9.000E+00
#rwgt            1           1   2.9449052548725457E-002          10      212909           0
</event>
<event>
      5   9999  3.19816E-02  1.62026E+02 -1.00000E+00  1.15081E-01
      21    -1     0     0   502   501  0.000000000E+00  0.000000000E+00  8.738816731E+02  8.738816731E+02  0.000000000E+00  0.00000E+00  9.000E+00
      21    -1     0     0   511   502  0.000000000E+00  0.000000000E+00 -1.807186261E+03  1.807186261E+03  0.000000000E+00  0.00000E+00  9.000E+00
      25     1     1     2     0     0  8.473130641E+01  9.346802835E+02  2.118412465E+02  9.702104619E+02  1.250000000E+02  0.00000E+00  9.000E+00
      25     1     1     2     0     0 -1.000178104E+02 -1.095983888E+03 -9.707246402E+02  1.472791761E+03  1.250000000E+02  0.00000E+00  9.000E+00
      21     1     1     2   511   501  1.528650394E+01  1.613036041E+02 -1.744211948E+02  2.380657117E+02  1.907348633E-06  0.00000E+00  9.000E+00
#rwgt            1           1   5.9009538181067515E-002          10      213003           0
</event>
<event>
      5   9999  3.19816E-02  9.07771E+01 -1.00000E+00  1.25748E-01
       2    -1     0     0   502     0  0.000000000E+00  0.000000000E+00  1.282548937E+03  1.282548937E+03  0.000000000E+00  0.00000E+00  9.000E+00
      21    -1     0     0   501   502  0.000000000E+00  0.000000000E+00 -5.749802291E+02  5.749802291E+02  0.000000000E+00  0.00000E+00  9.000E+00
      25     1     1     2     0     0 -1.718362872E+02  2.233749156E+01 -1.937528456E+02  2.884299539E+02  1.250000000E+02  0.00000E+00  9.000E+00
      25     1     1     2     0     0  8.142219890E+01 -1.422765237E+01 -3.152975450E+02  3.490981845E+02  1.250000000E+02  0.00000E+00  9.000E+00
       2     1     1     2   501     0  9.041408833E+01 -8.109839190E+00  1.216619099E+03  1.220001028E+03  0.000000000E+00  0.00000E+00  9.000E+00
#rwgt            1           1   3.5430230690266663E-002          10      213071           0
</event>
<event>
      5   9999  3.19816E-02  4.29910E+01 -1.00000E+00  1.42924E-01
      21    -1     0     0   502   501  0.000000000E+00  0.000000000E+00  3.409247287E+02  3.409247287E+02  0.000000000E+00  0.00000E+00  9.000E+00
       3    -1     0     0   501     0  0.000000000E+00  0.000000000E+00 -2.871369913E+03  2.871369913E+03  0.000000000E+00  0.00000E+00  9.000E+00
      25     1     1     2     0     0 -2.021803217E+02 -1.319888464E+02  1.112724239E+02  2.937762590E+02  1.250000000E+02  0.00000E+00  9.000E+00
      25     1     1     2     0     0  2.279642580E+02  9.758800377E+01 -1.249892527E+00  2.777007087E+02  1.250000000E+02  0.00000E+00  9.000E+00
       3     1     1     2   502     0 -2.578393630E+01  3.440084259E+01 -2.640467716E+03  2.640817674E+03  4.315837288E-05  0.00000E+00  9.000E+00
#rwgt            1           1   2.9152171065781593E-002          10      213139           0
</event>
<event>
      5   9999  3.19816E-02  5.01155E+02 -1.00000E+00  9.88235E-02
      21    -1     0     0   502   501  0.000000000E+00  0.000000000E+00  1.836061358E+02  1.836061358E+02  0.000000000E+00  0.00000E+00  9.000E+00
      -1    -1     0     0     0   502  0.000000000E+00  0.000000000E+00 -1.776439903E+03  1.776439903E+03  0.000000000E+00  0.00000E+00  9.000E+00
      25     1     1     2     0     0 -9.124179619E-01 -1.651957889E+02 -1.547520647E+02  2.585801282E+02  1.250000000E+02  0.00000E+00  9.000E+00
      25     1     1     2     0     0  2.431604667E+02 -2.735205773E+02 -4.484630930E+02  5.921863427E+02  1.250000000E+02  0.00000E+00  9.000E+00
      -1     1     1     2     0   501 -2.422480487E+02  4.387163662E+02 -9.896186092E+02  1.109279567E+03  1.078959322E-05  0.00000E+00  9.000E+00
#rwgt            2          10   3.1589674768959397E-004          10      213215           0
</event>
<event>
      5   9999  3.19816E-02  3.55192E+01 -1.00000E+00  1.48114E-01
      21    -1     0     0   502   501  0.000000000E+00  0.000000000E+00  1.071418587E+03  1.071418587E+03  0.000000000E+00  0.00000E+00  9.000E+00
      21    -1     0     0   511   502  0.000000000E+00  0.000000000E+00 -2.170790916E+02  2.170790916E+02  0.000000000E+00  0.00000E+00  9.000E+00
      25     1     1     2     0     0 -4.022173022E+01 -1.081403973E+02  4.255843645E+02  4.583221405E+02  1.250000000E+02  0.00000E+00  9.000E+00
      25     1     1     2     0     0  7.354085363E+01  1.204468930E+02  6.136212271E+02  6.419281280E+02  1.250000000E+02  0.00000E+00  9.000E+00
      21     1     1     2   511   501 -3.331912341E+01 -1.230649569E+01 -1.848660964E+02  1.882474101E+02  2.697398305E-06  0.00000E+00  9.000E+00
#rwgt            1           1   4.1221606264141904E-002          10      213234           0
</event>
<event>
      5   9999  3.19816E-02  1.78896E+01 -1.00000E+00  1.70467E-01
      21    -1     0     0   502   501  0.000000000E+00  0.000000000E+00  3.070976463E+02  3.070976463E+02  0.000000000E+00  0.00000E+00  9.000E+00
      21    -1     0     0   512   502  0.000000000E+00  0.000000000E+00 -1.963432095E+02  1.963432095E+02  0.000000000E+00  0.00000E+00  9.000E+00
      25     1     1     2     0     0 -1.197644858E+02 -1.029586483E+02 -3.120075285E+01  2.038197790E+02  1.250000000E+02  0.00000E+00  9.000E+00
      25     1     1     2     0     0  1.373280236E+02  9.955854596E+01  1.669893019E+02  2.688518497E+02  1.250000000E+02  0.00000E+00  9.000E+00
      21     1     1     2   512   501 -1.756353776E+01  3.400102307E+00 -2.503411231E+01  3.076922705E+01  0.000000000E+00  0.00000E+00  9.000E+00
#rwgt            1           1   2.6366965227394037E-002          10      213320           0
</event>
<event>
      5   9999  3.19816E-02  1.18329E+02 -1.00000E+00  1.20627E-01
      21    -1     0     0   502   501  0.000000000E+00  0.000000000E+00  9.971844405E+01  9.971844405E+01  0.000000000E+00  0.00000E+00  9.000E+00
      21    -1     0     0   511   502  0.000000000E+00  0.000000000E+00 -6.370273547E+02  6.370273547E+02  0.000000000E+00  0.00000E+00  9.000E+00
      25     1     1     2     0     0 -5.620540810E+01 -6.432240061E+01 -6.754855278E+01  1.657836726E+02  1.250000000E+02  0.00000E+00  9.000E+00
      25     1     1     2     0     0  1.454448975E+02 -1.338221847E+01 -2.054212140E+02  2.813470760E+02  1.250000000E+02  0.00000E+00  9.000E+00
      21     1     1     2   511   501 -8.923948944E+01  7.770461907E+01 -2.643391438E+02  2.896150501E+02  5.394796609E-06  0.00000E+00  9.000E+00
#rwgt            1           1   2.6180351946046902E-002          10      213438           0
</event>
<event>
      5   9999  3.19816E-02  9.74255E+00 -1.00000E+00  1.97076E-01
      21    -1     0     0   502   501  0.000000000E+00  0.000000000E+00  9.244833348E+02  9.244833348E+02  0.000000000E+00  0.00000E+00  9.000E+00
      21    -1     0     0   512   502  0.000000000E+00  0.000000000E+00 -2.873012632E+02  2.873012632E+02  0.000000000E+00  0.00000E+00  9.000E+00
      25     1     1     2     0     0  4.062438735E+02 -2.401398572E+02  3.503336968E+02  6.008826298E+02  1.250000000E+02  0.00000E+00  9.000E+00
      25     1     1     2     0     0 -4.040502639E+02  2.496322444E+02  3.134162027E+02  5.826041446E+02  1.250000000E+02  0.00000E+00  9.000E+00
      21     1     1     2   512   501 -2.193609642E+00 -9.492387286E+00 -2.656782788E+01  2.829782355E+01  5.840038640E-07  0.00000E+00  9.000E+00
#rwgt            1           1   3.1805555389337589E-002          10      213498           0
</event>
<event>
      5   9999  3.19816E-02  3.89890E+01 -1.00000E+00  1.45533E-01
      21    -1     0     0   502   501  0.000000000E+00  0.000000000E+00  6.510509014E+02  6.510509014E+02  0.000000000E+00  0.00000E+00  9.000E+00
      21    -1     0     0   511   502  0.000000000E+00  0.000000000E+00 -6.980181737E+02  6.980181737E+02  0.000000000E+00  0.00000E+00  9.000E+00
      25     1     1     2     0     0  2.994623976E+02  1.777258920E+02 -6.492733301E+01  3.756391604E+02  1.250000000E+02  0.00000E+00  9.000E+00
      25     1     1     2     0     0 -2.638466291E+02 -1.618621667E+02  4.384871601E+02  5.510992599E+02  1.250000000E+02  0.00000E+00  9.000E+00
      21     1     1     2   511   501 -3.561576848E+01 -1.586372539E+01 -4.205270993E+02  4.223306548E+02  5.394796609E-06  0.00000E+00  9.000E+00
#rwgt            1           1   2.8609754381832605E-002          10      213714           0
</event>
<event>
      5   9999  3.19816E-02  1.32906E+02 -1.00000E+00  1.18515E-01
      -3    -1     0     0     0   501  0.000000000E+00  0.000000000E+00  2.479025400E+02  2.479025400E+02  0.000000000E+00  0.00000E+00  9.000E+00
      21    -1     0     0   501   502  0.000000000E+00  0.000000000E+00 -7.943703963E+02  7.943703963E+02  0.000000000E+00  0.00000E+00  9.000E+00
      25     1     1     2     0     0  2.099033495E+02  7.089681654E+01 -6.412474618E+02  6.898616397E+02  1.250000000E+02  0.00000E+00  9.000E+00
      25     1     1     2     0     0 -8.592709542E+01 -1.187900562E+02  1.044471824E+02  2.191546419E+02  1.250000000E+02  0.00000E+00  9.000E+00
      -3     1     1     2     0   502 -1.239762540E+02  4.789323961E+01 -9.667576944E+00  1.332566547E+02  1.811824340E-06  0.00000E+00  9.000E+00
#rwgt            1           1   2.6057939388769158E-002          10      213823           0
</event>
<event>
      5   9999  3.19816E-02  3.35237E+02 -1.00000E+00  1.04048E-01
      21    -1     0     0   502   511  0.000000000E+00  0.000000000E+00  1.381701264E+03  1.381701264E+03  0.000000000E+00  0.00000E+00  9.000E+00
      21    -1     0     0   501   502  0.000000000E+00  0.000000000E+00 -6.686069181E+02  6.686069181E+02  0.000000000E+00  0.00000E+00  9.000E+00
      25     1     1     2     0     0  7.188688229E+02 -5.646488745E+02  2.289236536E+02  9.505954845E+02  1.250000000E+02  0.00000E+00  9.000E+00
      25     1     1     2     0     0 -5.660560189E+02  2.662667933E+02  2.266684908E+02  6.769941111E+02  1.250000000E+02  0.00000E+00  9.000E+00
      21     1     1     2   501   511 -1.528128040E+02  2.983820812E+02  2.575022015E+02  4.227185863E+02  0.000000000E+00  0.00000E+00  9.000E+00
#rwgt            1           1   2.0375832467543036E-002          10      213925           0
</event>
<event>
      5   9999  3.19816E-02  1.44754E+02 -1.00000E+00  1.17010E-01
      21    -1     0     0   512   501  0.000000000E+00  0.000000000E+00  7.924636817E+02  7.924636817E+02  0.000000000E+00  0.00000E+00  9.000E+00
      21    -1     0     0   501   502  0.000000000E+00  0.000000000E+00 -9.776158853E+02  9.776158853E+02  0.000000000E+00  0.00000E+00  9.000E+00
      25     1     1     2     0     0  6.149658937E+02  3.171870537E+02 -3.674640817E+02  7.933760324E+02  1.250000000E+02  0.00000E+00  9.000E+00
      25     1     1     2     0     0 -7.247320016E+02 -2.228205997E+02  3.361166586E+01  7.691815377E+02  1.250000000E+02  0.00000E+00  9.000E+00
      21     1     1     2   512   502  1.097661079E+02 -9.436645401E+01  1.487002122E+02  2.075219969E+02  3.303624740E-06  0.00000E+00  9.000E+00
#rwgt            1           1   2.5057639424333370E-002          10      213994           0
</event>
<event>
      5   9999  3.19816E-02  1.96371E+01 -1.00000E+00  1.67028E-01
      21    -1     0     0   511   501  0.000000000E+00  0.000000000E+00  1.386910903E+02  1.386910903E+02  0.000000000E+00  0.00000E+00  9.000E+00
      21    -1     0     0   501   502  0.000000000E+00  0.000000000E+00 -2.089225723E+02  2.089225723E+02  0.000000000E+00  0.00000E+00  9.000E+00
      25     1     1     2     0     0  1.378477593E+01  6.283093500E+01  4.928122092E+01  1.489677320E+02  1.250000000E+02  0.00000E+00  9.000E+00
      25     1     1     2     0     0 -1.889596613E+01 -4.387067335E+01 -1.188860301E+02  1.789988315E+02  1.250000000E+02  0.00000E+00  9.000E+00
      21     1     1     2   511   502  5.111190195E+00 -1.896026164E+01 -6.266728047E-01  1.964709917E+01  7.814234854E-08  0.00000E+00  9.000E+00
#rwgt            1           1   2.3232105324684796E-002          10      214097           0
</event>
<event>
      5   9999  3.81005E-02  2.69127E+01 -1.00000E+00  1.56389E-01
      21    -1     0     0   502   512  0.000000000E+00  0.000000000E+00  7.383075757E+01  7.383075757E+01  0.000000000E+00  0.00000E+00  9.000E+00
      21    -1     0     0   501   502  0.000000000E+00  0.000000000E+00 -5.895440840E+02  5.895440840E+02  0.000000000E+00  0.00000E+00  9.000E+00
      25     1     1     2     0     0  9.707379096E+01  4.830227661E+01 -3.718873681E+02  4.070401029E+02  1.250000000E+02  0.00000E+00  9.000E+00
      25     1     1     2     0     0 -1.142507252E+02 -6.902057541E+01 -1.372026714E+02  2.286189867E+02  1.250000000E+02  0.00000E+00  9.000E+00
      21     1     1     2   501   512  1.717693429E+01  2.071829880E+01 -6.623286931E+00  2.771575195E+01  5.196212463E-07  0.00000E+00  9.000E+00
#rwgt            1           1   3.4507890029881937E-002          10      214222           0
</event>
<event>
      5   9999  3.19816E-02  2.05773E+01 -1.00000E+00  1.65356E-01
      21    -1     0     0   502   511  0.000000000E+00  0.000000000E+00  2.752875870E+03  2.752875870E+03  0.000000000E+00  0.00000E+00  9.000E+00
      21    -1     0     0   501   502  0.000000000E+00  0.000000000E+00 -4.221036719E+01  4.221036719E+01  0.000000000E+00  0.00000E+00  9.000E+00
      25     1     1     2     0     0  4.678775456E+01 -3.475173906E+01  8.208044534E+01  1.604960338E+02  1.250000000E+02  0.00000E+00  9.000E+00
      25     1     1     2     0     0 -6.456575243E+01  4.511361012E+01  2.500650830E+03  2.505011686E+03  1.250000000E+02  0.00000E+00  9.000E+00
      21     1     1     2   501   511  1.777799787E+01 -1.036187106E+01  1.279342280E+02  1.295785178E+02  3.015782986E-06  0.00000E+00  9.000E+00
#rwgt            1           1   5.3337053617856366E-002          10      214302           0
</event>
<event>
      5   9999  3.19816E-02  1.31832E+02 -1.00000E+00  1.18660E-01
      21    -1     0     0   502   501  0.000000000E+00  0.000000000E+00  6.115332225E+02  6.115332225E+02  0.000000000E+00  0.00000E+00  9.000E+00
      21    -1     0     0   512   502  0.000000000E+00  0.000000000E+00 -1.587153039E+02  1.587153039E+02  0.000000000E+00  0.00000E+00  9.000E+00
      25     1     1     2     0     0  8.694816569E+01 -9.309202133E+01  2.370144421E+02  2.966933665E+02  1.250000000E+02  0.00000E+00  9.000E+00
      25     1     1     2     0     0 -2.036878876E+02  3.184206895E+01  2.392445788E+02  3.396551801E+02  1.250000000E+02  0.00000E+00  9.000E+00
      21     1     1     2   512   501  1.167397219E+02  6.124995237E+01 -2.344110232E+01  1.338999799E+02  1.118282261E-06  0.00000E+00  9.000E+00
#rwgt            1           1   2.6897373368837504E-002          10      214417           0
</event>
<event>
      5   9999  3.19816E-02  5.94478E+01 -1.00000E+00  1.34918E-01
      21    -1     0     0   502   501  0.000000000E+00  0.000000000E+00  2.725990113E+02  2.725990113E+02  0.000000000E+00  0.00000E+00  9.000E+00
      21    -1     0     0   501   511  0.000000000E+00  0.000000000E+00 -4.665935530E+02  4.665935530E+02  0.000000000E+00  0.00000E+00  9.000E+00
      25     1     1     2     0     0 -1.607306273E+02 -1.857135695E+02  1.291120972E+02  3.043333667E+02  1.250000000E+02  0.00000E+00  9.000E+00
      25     1     1     2     0     0  1.399496910E+02  1.300161998E+02 -2.275942016E+02  3.223573310E+02  1.250000000E+02  0.00000E+00  9.000E+00
      21     1     1     2   502   511  2.078093625E+01  5.569736970E+01 -9.551243736E+01  1.125018666E+02  1.907348633E-06  0.00000E+00  9.000E+00
#rwgt            1           1   2.4091196621599902E-002          10      214453           0
</event>
<event>
      5   9999  3.19816E-02  5.99281E+01 -1.00000E+00  1.34731E-01
       2    -1     0     0   502     0  0.000000000E+00  0.000000000E+00  7.801811609E+02  7.801811609E+02  0.000000000E+00  0.00000E+00  9.000E+00
      21    -1     0     0   501   502  0.000000000E+00  0.000000000E+00 -7.922765561E+01  7.922765561E+01  0.000000000E+00  0.00000E+00  9.000E+00
      25     1     1     2     0     0  1.144949079E+02 -1.605956274E+01  2.794577378E+02  3.272439773E+02  1.250000000E+02  0.00000E+00  9.000E+00
      25     1     1     2     0     0 -1.083514374E+02 -4.355282938E+01  4.378215520E+02  4.700527569E+02  1.250000000E+02  0.00000E+00  9.000E+00
       2     1     1     2   501     0 -6.143470560E+00  5.961239211E+01 -1.632578444E+01  6.211208225E+01  1.617033478E-06  0.00000E+00  9.000E+00
#rwgt            1           1   2.6006296842062508E-002          10      214533           0
</event>
<event>
      5   9999  3.19816E-02  1.14565E+02 -1.00000E+00  1.21229E-01
      21    -1     0     0   502   501  0.000000000E+00  0.000000000E+00  9.091403361E+02  9.091403361E+02  0.000000000E+00  0.00000E+00  9.000E+00
       2    -1     0     0   501     0  0.000000000E+00  0.000000000E+00 -1.820982375E+02  1.820982375E+02  0.000000000E+00  0.00000E+00  9.000E+00
      25     1     1     2     0     0 -1.759354887E+02  7.981326926E+01  2.132947201E+02  3.137564211E+02  1.250000000E+02  0.00000E+00  9.000E+00
      25     1     1     2     0     0  1.080061493E+02 -1.720666327E+02  5.923312898E+02  6.385558795E+02  1.250000000E+02  0.00000E+00  9.000E+00
       2     1     1     2   502     0  6.792933943E+01  9.225336344E+01 -7.858391125E+01  1.389262730E+02  2.336015456E-06  0.00000E+00  9.000E+00
#rwgt            1           1   3.1095106336895766E-002          10      214626           0
</event>
<event>
      5   9999  3.19816E-02  5.04685E+00 -1.00000E+00  2.37811E-01
      21    -1     0     0   502   511  0.000000000E+00  0.000000000E+00  2.050503661E+03  2.050503661E+03  0.000000000E+00  0.00000E+00  9.000E+00
      21    -1     0     0   501   502  0.000000000E+00  0.000000000E+00 -1.775406570E+02  1.775406570E+02  0.000000000E+00  0.00000E+00  9.000E+00
      25     1     1     2     0     0  2.177013602E+00  1.181848989E+02  5.568302116E+02  5.828012477E+02  1.250000000E+02  0.00000E+00  9.000E+00
      25     1     1     2     0     0  6.274710049E-01 -1.223807919E+02 -1.180567430E+02  2.110446552E+02  1.250000000E+02  0.00000E+00  9.000E+00
      21     1     1     2   501   511 -2.804484607E+00  4.195892947E+00  1.434189535E+03  1.434198415E+03  2.642899792E-05  0.00000E+00  9.000E+00
#rwgt            1           1   2.8554760153068480E-002          10      214711           0
</event>
<event>
      5   9999  3.36454E-02  2.62811E+02 -1.00000E+00  1.07494E-01
      21    -1     0     0   512   501  0.000000000E+00  0.000000000E+00  1.087798282E+03  1.087798282E+03  0.000000000E+00  0.00000E+00  9.000E+00
      21    -1     0     0   501   502  0.000000000E+00  0.000000000E+00 -3.327792113E+02  3.327792113E+02  0.000000000E+00  0.00000E+00  9.000E+00
      25     1     1     2     0     0  2.981462383E+02  3.379277163E+02  8.655267213E+01  4.756077017E+02  1.250000000E+02  0.00000E+00  9.000E+00
      25     1     1     2     0     0 -3.347156675E+02 -7.767342164E+01  2.245387319E+02  4.290808556E+02  1.250000000E+02  0.00000E+00  9.000E+00
      21     1     1     2   512   502  3.656942924E+01 -2.602542947E+02  4.439276669E+02  5.158889362E+02  0.000000000E+00  0.00000E+00  9.000E+00
#rwgt            1           1   3.3972143443474941E-002          10      215064           0
</event>
<event>
      5   9999  3.19816E-02  2.90990E+02 -1.00000E+00  1.06024E-01
      21    -1     0     0   502   501  0.000000000E+00  0.000000000E+00  1.150330093E+03  1.150330093E+03  0.000000000E+00  0.00000E+00  9.000E+00
       2    -1     0     0   501     0  0.000000000E+00  0.000000000E+00 -1.618491732E+03  1.618491732E+03  0.000000000E+00  0.00000E+00  9.000E+00
      25     1     1     2     0     0  2.334211003E+02 -2.719133574E+02 -1.727102467E+02  4.169845480E+02  1.250000000E+02  0.00000E+00  9.000E+00
      25     1     1     2     0     0 -5.238110703E+02  2.905904044E+02  9.184040524E+02  1.103590424E+03  1.250000000E+02  0.00000E+00  9.000E+00
       2     1     1     2   502     0  2.903899701E+02 -1.867704708E+01 -1.213855444E+03  1.248246853E+03  1.525878906E-05  0.00000E+00  9.000E+00
#rwgt            2          13   3.0675775092745125E-003          10      215206           0
</event>
<event>
      5   9999  3.19816E-02  2.55259E+01 -1.00000E+00  1.58077E-01
      21    -1     0     0   502   511  0.000000000E+00  0.000000000E+00  1.197398612E+02  1.197398612E+02  0.000000000E+00  0.00000E+00  9.000E+00
      21    -1     0     0   501   502  0.000000000E+00  0.000000000E+00 -3.496565359E+02  3.496565359E+02  0.000000000E+00  0.00000E+00  9.000E+00
      25     1     1     2     0     0 -1.111752504E+02  3.582420013E+01 -1.954572078E+02  2.597534017E+02  1.250000000E+02  0.00000E+00  9.000E+00
      25     1     1     2     0     0  1.289472780E+02 -1.750139141E+01 -2.388808421E+01  1.820146691E+02  1.250000000E+02  0.00000E+00  9.000E+00
      21     1     1     2   501   511 -1.777202760E+01 -1.832280872E+01 -1.057138272E+01  2.762832635E+01  1.685873940E-07  0.00000E+00  9.000E+00
#rwgt            1           1   2.7071267220918925E-002          10      215240           0
</event>
<event>
      5   9999  3.19816E-02  4.02887E+02 -1.00000E+00  1.01592E-01
       2    -1     0     0   502     0  0.000000000E+00  0.000000000E+00  3.712153113E+03  3.712153113E+03  0.000000000E+00  0.00000E+00  9.000E+00
      21    -1     0     0   501   502  0.000000000E+00  0.000000000E+00 -6.243301316E+02  6.243301316E+02  0.000000000E+00  0.00000E+00  9.000E+00
      25     1     1     2     0     0  3.994216206E+02 -2.797274984E+02 -3.844804173E+02  6.334313662E+02  1.250000000E+02  0.00000E+00  9.000E+00
      25     1     1     2     0     0 -1.914450574E+02 -6.532885419E+01  3.281023252E+01  2.400428723E+02  1.250000000E+02  0.00000E+00  9.000E+00
       2     1     1     2   501     0 -2.079765632E+02  3.450563526E+02  3.439493166E+03  3.463009006E+03  0.000000000E+00  0.00000E+00  9.000E+00
#rwgt            1           1   2.8760128901915163E-002          10      215366           0
</event>
<event>
      5   9999  3.19816E-02  2.54572E+02 -1.00000E+00  1.07962E-01
       1    -1     0     0   502     0  0.000000000E+00  0.000000000E+00  2.043173733E+03  2.043173733E+03  0.000000000E+00  0.00000E+00  9.000E+00
      21    -1     0     0   501   502  0.000000000E+00  0.000000000E+00 -9.463608907E+02  9.463608907E+02  0.000000000E+00  0.00000E+00  9.000E+00
      25     1     1     2     0     0 -7.190043093E+02  4.925209807E+02  2.788396578E+02  9.235370420E+02  1.250000000E+02  0.00000E+00  9.000E+00
      25     1     1     2     0     0  5.961897497E+02 -2.695335490E+02 -4.296527008E+02  7.926644908E+02  1.250000000E+02  0.00000E+00  9.000E+00
       1     1     1     2   501     0  1.228145596E+02 -2.229874317E+02  1.247625886E+03  1.273333091E+03  1.525878906E-05  0.00000E+00  9.000E+00
#rwgt            1           1   2.1532137756097587E-002          10      215457           0
</event>
<event>
      5   9999  3.19816E-02  2.47489E+01 -1.00000E+00  1.59080E-01
      21    -1     0     0   502   501  0.000000000E+00  0.000000000E+00  1.101931971E+02  1.101931971E+02  0.000000000E+00  0.00000E+00  9.000E+00
      21    -1     0     0   511   502  0.000000000E+00  0.000000000E+00 -8.225853418E+02  8.225853418E+02  0.000000000E+00  0.00000E+00  9.000E+00
      25     1     1     2     0     0  6.156868143E+01 -2.142454341E+02 -5.748584377E+02  6.291097138E+02  1.250000000E+02  0.00000E+00  9.000E+00
      25     1     1     2     0     0 -4.194056512E+01  1.991707041E+02 -1.005287718E+02  2.591505631E+02  1.250000000E+02  0.00000E+00  9.000E+00
      21     1     1     2   511   501 -1.962811631E+01  1.507473004E+01 -3.700493515E+01  4.451826211E+01  6.743495762E-07  0.00000E+00  9.000E+00
#rwgt            1           1   2.7524289946596427E-002          10      215506           0
</event>
<event>
      5   9999  3.19816E-02  1.90943E+01 -1.00000E+00  1.68047E-01
      21    -1     0     0   502   512  0.000000000E+00  0.000000000E+00  1.131671751E+02  1.131671751E+02  0.000000000E+00  0.00000E+00  9.000E+00
      21    -1     0     0   501   502  0.000000000E+00  0.000000000E+00 -3.468225497E+03  3.468225497E+03  0.000000000E+00  0.00000E+00  9.000E+00
      25     1     1     2     0     0 -1.306065238E+02 -1.081199833E+02 -3.311906440E+03  3.318598690E+03  1.250000000E+02  0.00000E+00  9.000E+00
      25     1     1     2     0     0  1.483409128E+02  1.151968488E+02 -1.159349044E+01  2.259087192E+02  1.250000000E+02  0.00000E+00  9.000E+00
      21     1     1     2   501   512 -1.773438896E+01 -7.076865568E+00 -3.155839078E+01  3.688526273E+01  8.259061849E-07  0.00000E+00  9.000E+00
#rwgt            2          11   7.6783396442983874E-003          10      215650           0
</event>
<event>
      5   9999  3.19816E-02  2.20093E+02 -1.00000E+00  1.10155E-01
      -3    -1     0     0     0   501  0.000000000E+00  0.000000000E+00  8.791593852E+02  8.791593852E+02  0.000000000E+00  0.00000E+00  9.000E+00
      21    -1     0     0   501   502  0.000000000E+00  0.000000000E+00 -1.013722977E+03  1.013722977E+03  0.000000000E+00  0.00000E+00  9.000E+00
      25     1     1     2     0     0 -4.041649750E+02  6.538095517E+00 -8.123443517E+02  9.159259902E+02  1.250000000E+02  0.00000E+00  9.000E+00
      25     1     1     2     0     0  2.488125953E+02 -1.624443534E+02  6.907886687E+01  3.296858586E+02  1.250000000E+02  0.00000E+00  9.000E+00
      -3     1     1     2     0   502  1.553523798E+02  1.559062579E+02  6.087018930E+02  6.472705135E+02  7.629394531E-06  0.00000E+00  9.000E+00
#rwgt            1           1   2.7911736158412373E-002          10      215760           0
</event>
<event>
      5   9999  3.19816E-02  1.24658E+02 -1.00000E+00  1.19670E-01
      21    -1     0     0   511   501  0.000000000E+00  0.000000000E+00  2.714643148E+02  2.714643148E+02  0.000000000E+00  0.00000E+00  9.000E+00
      21    -1     0     0   501   502  0.000000000E+00  0.000000000E+00 -6.721853666E+02  6.721853666E+02  0.000000000E+00  0.00000E+00  9.000E+00
      25     1     1     2     0     0 -4.303999244E+01  1.797741564E+01 -5.265613007E+02  5.432010970E+02  1.250000000E+02  0.00000E+00  9.000E+00
      25     1     1     2     0     0 -6.345807923E+01 -8.276797459E+01 -6.267598516E+01  1.744441015E+02  1.250000000E+02  0.00000E+00  9.000E+00
      21     1     1     2   511   502  1.064980717E+02  6.479055895E+01  1.885162341E+02  2.260044829E+02  2.697398305E-06  0.00000E+00  9.000E+00
#rwgt            1           1   3.6350513215534209E-002          10      215799           0
</event>
<event>
      5   9999  3.19816E-02  9.36075E+01 -1.00000E+00  1.25132E-01
      21    -1     0     0   512   501  0.000000000E+00  0.000000000E+00  9.973887710E+02  9.973887710E+02  0.000000000E+00  0.00000E+00  9.000E+00
      21    -1     0     0   501   502  0.000000000E+00  0.000000000E+00 -1.783636751E+02  1.783636751E+02  0.000000000E+00  0.00000E+00  9.000E+00
      25     1     1     2     0     0  2.929110139E+01  4.077072755E+01  1.589192855E+02  2.083280109E+02  1.250000000E+02  0.00000E+00  9.000E+00
      25     1     1     2     0     0  3.003326084E+01  3.163772171E+01 -1.218225452E+02  1.799129642E+02  1.250000000E+02  0.00000E+00  9.000E+00
      21     1     1     2   512   502 -5.932436223E+01 -7.240844926E+01  7.819283557E+02  7.875114710E+02  0.000000000E+00  0.00000E+00  9.000E+00
#rwgt            1           1   3.1545507712722708E-002          10      215880           0
</event>
<event>
      5   9999  3.19816E-02  7.88136E+01 -1.00000E+00  1.28664E-01
       1    -1     0     0   502     0  0.000000000E+00  0.000000000E+00  4.808882139E+02  4.808882139E+02  0.000000000E+00  0.00000E+00  9.000E+00
      21    -1     0     0   501   502  0.000000000E+00  0.000000000E+00 -7.378346193E+02  7.378346193E+02  0.000000000E+00  0.00000E+00  9.000E+00
      25     1     1     2     0     0 -7.310120650E+01 -8.038838900E+01 -1.490374007E+02  2.228075993E+02  1.250000000E+02  0.00000E+00  9.000E+00
      25     1     1     2     0     0  1.514965032E+02  8.849791158E+01 -5.270772736E+02  5.694018995E+02  1.250000000E+02  0.00000E+00  9.000E+00
       1     1     1     2   501     0 -7.839529667E+01 -8.109522580E+00  4.191682688E+02  4.265133345E+02  0.000000000E+00  0.00000E+00  9.000E+00
#rwgt            1           1   2.6162181814434762E-002          10      215943           0
</event>
<event>
      5   9999  3.19816E-02  8.81793E+01 -1.00000E+00  1.26336E-01
      21    -1     0     0   502   511  0.000000000E+00  0.000000000E+00  1.125979232E+03  1.125979232E+03  0.000000000E+00  0.00000E+00  9.000E+00
      21    -1     0     0   501   502  0.000000000E+00  0.000000000E+00 -8.484169069E+01  8.484169069E+01  0.000000000E+00  0.00000E+00  9.000E+00
      25     1     1     2     0     0  6.140699570E+01  8.701678302E+01  5.168779540E+01  1.721608778E+02  1.250000000E+02  0.00000E+00  9.000E+00
      25     1     1     2     0     0 -7.433034554E+01 -1.742439480E+02  6.787985564E+02  7.157362879E+02  1.250000000E+02  0.00000E+00  9.000E+00
      21     1     1     2   501   511  1.292334985E+01  8.722716496E+01  3.106511898E+02  3.229237572E+02  3.814697266E-06  0.00000E+00  9.000E+00
#rwgt            1           1   2.7723206865754076E-002          10      216021           0
</event>
<event>
      5   9999  3.19816E-02  4.84478E+02 -1.00000E+00  9.92427E-02
      21    -1     0     0   512   501  0.000000000E+00  0.000000000E+00  1.578531783E+03  1.578531783E+03  0.000000000E+00  0.00000E+00  9.000E+00
      21    -1     0     0   501   502  0.000000000E+00  0.000000000E+00 -1.404540186E+03  1.404540186E+03  0.000000000E+00  0.00000E+00  9.000E+00
      25     1     1     2     0     0  1.298784788E+03  1.124861747E+02 -3.620163856E+02  1.358740567E+03  1.250000000E+02  0.00000E+00  9.000E+00
      25     1     1     2     0     0 -9.365010478E+02 -4.341526031E+02  2.822007786E+02  1.077397315E+03  1.250000000E+02  0.00000E+00  9.000E+00
      21     1     1     2   512   502 -3.622837399E+02  3.216664284E+02  2.538072044E+02  5.469340877E+02  7.629394531E-06  0.00000E+00  9.000E+00
#rwgt            2          11   3.7890242028159730E-003          10      216228           0
</event>
<event>
      5   9999  3.19816E-02  7.78209E+01 -1.00000E+00  1.28933E-01
      21    -1     0     0   511   501  0.000000000E+00  0.000000000E+00  7.097849561E+02  7.097849561E+02  0.000000000E+00  0.00000E+00  9.000E+00
      21    -1     0     0   501   502  0.000000000E+00  0.000000000E+00 -2.255273692E+03  2.255273692E+03  0.000000000E+00  0.00000E+00  9.000E+00
      25     1     1     2     0     0  6.972390888E+02 -5.341818819E+02  1.433742880E+02  8.987067465E+02  1.250000000E+02  0.00000E+00  9.000E+00
      25     1     1     2     0     0 -6.632511593E+02  6.041884438E+02 -1.747890171E+03  1.968677431E+03  1.250000000E+02  0.00000E+00  9.000E+00
      21     1     1     2   511   502 -3.398792950E+01 -7.000656194E+01  5.902714755E+01  9.767447063E+01  1.507891493E-06  0.00000E+00  9.000E+00
#rwgt            1           1   5.9598576978265969E-002          10      216248           0
</event>
<event>
      5   9999  3.19816E-02  4.23244E+01 -1.00000E+00  1.43335E-01
      21    -1     0     0   502   501  0.000000000E+00  0.000000000E+00  4.410193972E+02  4.410193972E+02  0.000000000E+00  0.00000E+00  9.000E+00
      21    -1     0     0   501   512  0.000000000E+00  0.000000000E+00 -4.389139611E+02  4.389139611E+02  0.000000000E+00  0.00000E+00  9.000E+00
      25     1     1     2     0     0 -2.183172195E+02  9.706134238E+01  2.191436244E+02  3.474654524E+02  1.250000000E+02  0.00000E+00  9.000E+00
      25     1     1     2     0     0  2.285583551E+02 -1.381279990E+02  1.631022636E+01  2.953121896E+02  1.250000000E+02  0.00000E+00  9.000E+00
      21     1     1     2   502   512 -1.024113560E+01  4.106665664E+01 -2.333484147E+02  2.371557163E+02  2.697398305E-06  0.00000E+00  9.000E+00
#rwgt            1           1   2.7002107571780076E-002          10      216387           0
</event>
<event>
      5   9999  3.19816E-02  1.70090E+01 -1.00000E+00  1.72391E-01
      21    -1     0     0   502   501  0.000000000E+00  0.000000000E+00  2.507954764E+02  2.507954764E+02  0.000000000E+00  0.00000E+00  9.000E+00
      21    -1     0     0   511   502  0.000000000E+00  0.000000000E+00 -5.561718719E+02  5.561718719E+02  0.000000000E+00  0.00000E+00  9.000E+00
      25     1     1     2     0     0 -9.367404861E+01 -1.192828096E+02  1.851741557E+02  2.700327461E+02  1.250000000E+02  0.00000E+00  9.000E+00
      25     1     1     2     0     0  8.317615063E+01  1.326656968E+02 -4.368615911E+02  4.806157602E+02  1.250000000E+02  0.00000E+00  9.000E+00
      21     1     1     2   511   501  1.049789798E+01 -1.338288720E+01 -5.368896002E+01  5.631884196E+01  6.743495762E-07  0.00000E+00  9.000E+00
#rwgt            1           1   2.8916533800859803E-002          10      216457           0
</event>
<event>
      5   9999  3.19816E-02  2.10318E+01 -1.00000E+00  1.64587E-01
      21    -1     0     0   502   512  0.000000000E+00  0.000000000E+00  1.821753066E+03  1.821753066E+03  0.000000000E+00  0.00000E+00  9.000E+00
      21    -1     0     0   501   502  0.000000000E+00  0.000000000E+00 -6.248149676E+02  6.248149676E+02  0.000000000E+00  0.00000E+00  9.000E+00
      25     1     1     2     0     0 -2.950023854E+02  7.876902989E+02 -1.202271690E+02  8.588142911E+02  1.250000000E+02  0.00000E+00  9.000E+00
      25     1     1     2     0     0  3.145005105E+02 -7.955743300E+02  1.296030122E+03  1.557937150E+03  1.250000000E+02  0.00000E+00  9.000E+00
      21     1     1     2   501   512 -1.949812509E+01  7.884031091E+00  2.113514536E+01  2.981659266E+01  4.129530925E-07  0.00000E+00  9.000E+00
#rwgt            1           1   3.0326488845116177E-002          10      216690           0
</event>
<event>
      5   9999  3.19816E-02  2.35254E+01 -1.00000E+00  1.60754E-01
      21    -1     0     0   511   501  0.000000000E+00  0.000000000E+00  7.941384237E+02  7.941384237E+02  0.000000000E+00  0.00000E+00  9.000E+00
      21    -1     0     0   501   502  0.000000000E+00  0.000000000E+00 -1.670359205E+02  1.670359205E+02  0.000000000E+00  0.00000E+00  9.000E+00
      25     1     1     2     0     0  3.088166252E+01 -1.171433271E+01  7.369620970E+01  1.488187958E+02  1.250000000E+02  0.00000E+00  9.000E+00
      25     1     1     2     0     0 -7.608465137E+00  8.279000166E+00 -9.879852831E+01  1.597265782E+02  1.250000000E+02  0.00000E+00  9.000E+00
      21     1     1     2   511   502 -2.327319739E+01  3.435332547E+00  6.522048217E+02  6.526289702E+02  0.000000000E+00  0.00000E+00  9.000E+00
#rwgt            1           1   5.0528175148187512E-002          10      216970           0
</event>
<event>
      5   9999  3.19816E-02  5.13403E+02 -1.00000E+00  9.85267E-02
      21    -1     0     0   502   501  0.000000000E+00  0.000000000E+00  2.847771658E+02  2.847771658E+02  0.000000000E+00  0.00000E+00  9.000E+00
       2    -1     0     0   501     0  0.000000000E+00  0.000000000E+00 -1.607100628E+03  1.607100628E+03  0.000000000E+00  0.00000E+00  9.000E+00
      25     1     1     2     0     0 -1.197400295E+02 -1.735515509E+02 -1.533890145E+01  2.455974295E+02  1.250000000E+02  0.00000E+00  9.000E+00
      25     1     1     2     0     0 -3.848615541E+02  2.682085368E+02 -5.814756041E+02  7.574913288E+02  1.250000000E+02  0.00000E+00  9.000E+00
       2     1     1     2   502     0  5.046015836E+02 -9.465698591E+01 -7.255089563E+02  8.887890350E+02  1.525878906E-05  0.00000E+00  9.000E+00
#rwgt            2          13   1.1325540805647387E-003          10      217254           0
</event>
<event>
      5   9999  3.19816E-02  3.48013E+01 -1.00000E+00  1.48693E-01
      21    -1     0     0   502   501  0.000000000E+00  0.000000000E+00  2.474002392E+03  2.474002392E+03  0.000000000E+00  0.00000E+00  9.000E+00
      21    -1     0     0   511   502  0.000000000E+00  0.000000000E+00 -2.690591064E+01  2.690591064E+01  0.000000000E+00  0.00000E+00  9.000E+00
      25     1     1     2     0     0 -1.417395580E+01  1.154815308E+02  4.433424884E+02  4.750941454E+02  1.250000000E+02  0.00000E+00  9.000E+00
      25     1     1     2     0     0 -1.746314636E+01 -1.299806462E+02  1.966520628E+03  1.974848933E+03  1.250000000E+02  0.00000E+00  9.000E+00
      21     1     1     2   511   501  3.163710216E+01  1.449911539E+01  3.723336569E+01  5.096522443E+01  8.259061849E-07  0.00000E+00  9.000E+00
#rwgt            1           1   4.8474693726834280E-002          10      217288           0
</event>
<event>
      5   9999  3.19816E-02  5.62250E+01 -1.00000E+00  1.36229E-01
      21    -1     0     0   502   501  0.000000000E+00  0.000000000E+00  2.865444929E+01  2.865444929E+01  0.000000000E+00  0.00000E+00  9.000E+00
      -1    -1     0     0     0   502  0.000000000E+00  0.000000000E+00 -1.748004016E+03  1.748004016E+03  0.000000000E+00  0.00000E+00  9.000E+00
      25     1     1     2     0     0 -3.254683171E+01  6.100033771E+01 -6.825600559E+02  6.973475227E+02  1.250000000E+02  0.00000E+00  9.000E+00
      25     1     1     2     0     0  1.211050043E+01 -1.133797414E+02 -3.352813445E+02  3.755532053E+02  1.250000000E+02  0.00000E+00  9.000E+00
      -1     1     1     2     0   501  2.043633129E+01  5.237940371E+01 -7.015081666E+02  7.037577377E+02  0.000000000E+00  0.00000E+00  9.000E+00
#rwgt            1           1   3.2553446841049702E-002          10      217411           0
</event>
<event>
      5   9999  3.19816E-02  1.79246E+02 -1.00000E+00  1.13408E-01
      21    -1     0     0   502   511  0.000000000E+00  0.000000000E+00  8.186176590E+02  8.186176590E+02  0.000000000E+00  0.00000E+00  9.000E+00
      21    -1     0     0   501   502  0.000000000E+00  0.000000000E+00 -1.012916440E+03  1.012916440E+03  0.000000000E+00  0.00000E+00  9.000E+00
      25     1     1     2     0     0 -4.618810883E+02  4.578468935E+02 -1.449591795E+02  6.779351601E+02  1.250000000E+02  0.00000E+00  9.000E+00
      25     1     1     2     0     0  3.070804686E+02 -3.674813133E+02 -4.785528348E+02  6.884611431E+02  1.250000000E+02  0.00000E+00  9.000E+00
      21     1     1     2   501   511  1.548006197E+02 -9.036558016E+01  4.292132330E+02  4.651377961E+02  0.000000000E+00  0.00000E+00  9.000E+00
#rwgt            2          11   3.7590370644188190E-003          10      217495           0
</event>
<event>
      5   9999  3.19816E-02  1.11761E+02 -1.00000E+00  1.21694E-01
      21    -1     0     0   502   501  0.000000000E+00  0.000000000E+00  1.549944343E+03  1.549944343E+03  0.000000000E+00  0.00000E+00  9.000E+00
      21    -1     0     0   512   502  0.000000000E+00  0.000000000E+00 -1.019704478E+02  1.019704478E+02  0.000000000E+00  0.00000E+00  9.000E+00
      25     1     1     2     0     0  1.453375154E+02 -6.041563334E+01  6.477387088E+02  6.782060727E+02  1.250000000E+02  0.00000E+00  9.000E+00
      25     1     1     2     0     0 -2.007702834E+02 -3.662955710E+01  8.251913540E+02  8.591950895E+02  1.250000000E+02  0.00000E+00  9.000E+00
      21     1     1     2   512   501  5.543276805E+01  9.704519044E+01 -2.495616787E+01  1.145136283E+02  2.920019320E-06  0.00000E+00  9.000E+00
#rwgt            1           1   3.3367041986443274E-002          10      217530           0
</event>
<event>
      5   9999  3.19816E-02  1.52594E+01 -1.00000E+00  1.76685E-01
      21    -1     0     0   502   501  0.000000000E+00  0.000000000E+00  8.529954945E+02  8.529954945E+02  0.000000000E+00  0.00000E+00  9.000E+00
      21    -1     0     0   501   511  0.000000000E+00  0.000000000E+00 -4.598235261E+02  4.598235261E+02  0.000000000E+00  0.00000E+00  9.000E+00
      25     1     1     2     0     0  5.755169124E+02  1.055880776E+02  7.267896296E+01  6.027236433E+02  1.250000000E+02  0.00000E+00  9.000E+00
      25     1     1     2     0     0 -5.870184631E+02 -9.555996849E+01  3.305529079E+02  6.918183349E+02  1.250000000E+02  0.00000E+00  9.000E+00
      21     1     1     2   502   511  1.150155076E+01 -1.002810907E+01 -1.005990236E+01  1.827704234E+01  3.769728732E-07  0.00000E+00  9.000E+00
#rwgt            1           1   3.1066843556212025E-002          10      217612           0
</event>
<event>
      5   9999  3.19816E-02  3.61919E+01 -1.00000E+00  1.47587E-01
      21    -1     0     0   502   501  0.000000000E+00  0.000000000E+00  4.403102431E+02  4.403102431E+02  0.000000000E+00  0.00000E+00  9.000E+00
       2    -1     0     0   501     0  0.000000000E+00  0.000000000E+00 -1.154860894E+03  1.154860894E+03  0.000000000E+00  0.00000E+00  9.000E+00
      25     1     1     2     0     0 -1.322534585E+02  2.001665798E+02  1.956358089E+02  3.338502758E+02  1.250000000E+02  0.00000E+00  9.000E+00
      25     1     1     2     0     0  9.634940338E+01 -1.956112550E+02  8.511535041E+01  2.653612509E+02  1.250000000E+02  0.00000E+00  9.000E+00
       2     1     1     2   502     0  3.590405513E+01 -4.555324858E+00 -9.953018102E+02  9.959596104E+02  0.000000000E+00  0.00000E+00  9.000E+00
#rwgt            1           1   2.9132746336958573E-002          10      217907           0
</event>
<event>
      5   9999  3.19816E-02  8.47784E+01 -1.00000E+00  1.27142E-01
      21    -1     0     0   502   501  0.000000000E+00  0.000000000E+00  1.041576498E+03  1.041576498E+03  0.000000000E+00  0.00000E+00  9.000E+00
      21    -1     0     0   501   511  0.000000000E+00  0.000000000E+00 -6.892629782E+02  6.892629782E+02  0.000000000E+00  0.00000E+00  9.000E+00
      25     1     1     2     0     0 -3.265412381E+02 -9.646895009E+01  7.729951421E+02  8.538629446E+02  1.250000000E+02  0.00000E+00  9.000E+00
      25     1     1     2     0     0  3.299787612E+02  1.811776565E+02  4.903016078E+01  3.996752215E+02  1.250000000E+02  0.00000E+00  9.000E+00
      21     1     1     2   502   511 -3.437523072E+00 -8.470870637E+01 -4.697117830E+02  4.773013101E+02  9.344061824E-06  0.00000E+00  9.000E+00
#rwgt            1           1   2.8528906084306502E-002          10      218040           0
</event>
<event>
      5   9999  3.19816E-02  1.69648E+01 -1.00000E+00  1.72491E-01
      21    -1     0     0   502   501  0.000000000E+00  0.000000000E+00  4.595954616E+01  4.595954616E+01  0.000000000E+00  0.00000E+00  9.000E+00
       1    -1     0     0   501     0  0.000000000E+00  0.000000000E+00 -2.494443246E+03  2.494443246E+03  0.000000000E+00  0.00000E+00  9.000E+00
      25     1     1     2     0     0 -7.750066916E+01  3.537282678E+01 -7.094289857E+02  7.253771959E+02  1.250000000E+02  0.00000E+00  9.000E+00
      25     1     1     2     0     0  8.366663041E+01 -1.956819083E+01 -1.136620569E+02  1.895444072E+02  1.250000000E+02  0.00000E+00  9.000E+00
       1     1     1     2   502     0 -6.165961241E+00 -1.580463596E+01 -1.625392658E+03  1.625481189E+03  2.157918644E-05  0.00000E+00  9.000E+00
#rwgt            1           1   3.0798600376479007E-002          10      218096           0
</event>
<event>
      5   9999  3.19816E-02  5.87804E+01 -1.00000E+00  1.35182E-01
      21    -1     0     0   502   501  0.000000000E+00  0.000000000E+00  8.666038491E+01  8.666038491E+01  0.000000000E+00  0.00000E+00  9.000E+00
      21    -1     0     0   501   511  0.000000000E+00  0.000000000E+00 -1.518819476E+03  1.518819476E+03  0.000000000E+00  0.00000E+00  9.000E+00
      25     1     1     2     0     0 -1.377743368E+02 -1.902698862E+02 -8.069182645E+02  8.496625701E+02  1.250000000E+02  0.00000E+00  9.000E+00
      25     1     1     2     0     0  1.940165948E+02  2.073562191E+02 -3.228560288E+02  4.477723261E+02  1.250000000E+02  0.00000E+00  9.000E+00
      21     1     1     2   502   511 -5.624225801E+01 -1.708633295E+01 -3.023847981E+02  3.080449651E+02  8.529922400E-06  0.00000E+00  9.000E+00
#rwgt            1           1   2.7522857538440991E-002          10      218204           0
</event>
<event>
      5   9999  3.19816E-02  1.51428E+02 -1.00000E+00  1.16231E-01
      21    -1     0     0   502   501  0.000000000E+00  0.000000000E+00  2.207372916E+02  2.207372916E+02  0.000000000E+00  0.00000E+00  9.000E+00
       2    -1     0     0   501     0  0.000000000E+00  0.000000000E+00 -7.536217819E+02  7.536217819E+02  0.000000000E+00  0.00000E+00  9.000E+00
      25     1     1     2     0     0 -1.251493718E+00  1.546028139E+00 -5.033992955E+01  1.347704157E+02  1.250000000E+02  0.00000E+00  9.000E+00
      25     1     1     2     0     0 -1.445752249E+02  3.925800604E+01  1.127434744E+02  2.253425786E+02  1.250000000E+02  0.00000E+00  9.000E+00
       2     1     1     2   502     0  1.458267186E+02 -4.080403418E+01 -5.952880351E+02  6.142460792E+02  1.078959322E-05  0.00000E+00  9.000E+00
#rwgt            1           1   2.0857453967387800E-002          10      218330           0
</event>
<event>
      5   9999  3.19816E-02  9.29205E+01 -1.00000E+00  1.25279E-01
      21    -1     0     0   502   501  0.000000000E+00  0.000000000E+00  8.276614276E+02  8.276614276E+02  0.000000000E+00  0.00000E+00  9.000E+00
       1    -1     0     0   501     0  0.000000000E+00  0.000000000E+00 -1.922336901E+03  1.922336901E+03  0.000000000E+00  0.00000E+00  9.000E+00
      25     1     1     2     0     0 -1.655910529E+02 -4.409714149E+01  7.814631942E+02  8.097374134E+02  1.250000000E+02  0.00000E+00  9.000E+00
      25     1     1     2     0     0  1.507024651E+02  1.358170684E+02 -4.338586448E+02  4.949907400E+02  1.250000000E+02  0.00000E+00  9.000E+00
       1     1     1     2   502     0  1.488858775E+01 -9.171992690E+01 -1.442280023E+03  1.445270175E+03  1.525878906E-05  0.00000E+00  9.000E+00
#rwgt            1           1   2.7805021008358823E-002          10      218387           0
</event>
<event>
      5   9999  3.19816E-02  3.30174E+01 -1.00000E+00  1.50204E-01
      21    -1     0     0   502   501  0.000000000E+00  0.000000000E+00  7.991325224E+02  7.991325224E+02  0.000000000E+00  0.00000E+00  9.000E+00
      21    -1     0     0   511   502  0.000000000E+00  0.000000000E+00 -7.200127604E+02  7.200127604E+02  0.000000000E+00  0.00000E+00  9.000E+00
      25     1     1     2     0     0  1.711812271E+02 -5.114396770E+02  1.359287870E+02  5.700659531E+02  1.250000000E+02  0.00000E+00  9.000E+00
      25     1     1     2     0     0 -1.745294892E+02  5.442869032E+02  2.530471977E+02  6.374689482E+02  1.250000000E+02  0.00000E+00  9.000E+00
      21     1     1     2   511   501  3.348262146E+00 -3.284722615E+01 -3.098562227E+02  3.116103815E+02  3.814697266E-06  0.00000E+00  9.000E+00
#rwgt            1           1   2.6697237291593630E-002          10      218500           0
</event>
<event>
      5   9999  3.19816E-02  1.71606E+01 -1.00000E+00  1.72049E-01
      21    -1     0     0   502   501  0.000000000E+00  0.000000000E+00  1.549156312E+03  1.549156312E+03  0.000000000E+00  0.00000E+00  9.000E+00
      21    -1     0     0   512   502  0.000000000E+00  0.000000000E+00 -9.021794856E+01  9.021794856E+01  0.000000000E+00  0.00000E+00  9.000E+00
      25     1     1     2     0     0 -4.081215902E+01 -1.828369984E+02  1.225569883E+02  2.563985485E+02  1.250000000E+02  0.00000E+00  9.000E+00
      25     1     1     2     0     0  5.531475206E+01  1.736631428E+02  1.345508910E+03  1.363538718E+03  1.250000000E+02  0.00000E+00  9.000E+00
      21     1     1     2   512   501 -1.450259303E+01  9.173855560E+00 -9.127535008E+00  1.943699374E+01  5.462855929E-07  0.00000E+00  9.000E+00
#rwgt            1           1   3.3138480218667651E-002          10      218680           0
</event>
<event>
      5   9999  3.19816E-02  2.21611E+01 -1.00000E+00  1.62774E-01
      21    -1     0     0   502   501  0.000000000E+00  0.000000000E+00  7.671096427E+02  7.671096427E+02  0.000000000E+00  0.00000E+00  9.000E+00
      21    -1     0     0   501   511  0.000000000E+00  0.000000000E+00 -3.752299361E+02  3.752299361E+02  0.000000000E+00  0.00000E+00  9.000E+00
      25     1     1     2     0     0  4.180964872E+02  2.675177289E+02  4.417050702E+01  5.137571815E+02  1.250000000E+02  0.00000E+00  9.000E+00
      25     1     1     2     0     0 -3.985298277E+02 -2.571128189E+02  3.547671161E+02  6.053244848E+02  1.250000000E+02  0.00000E+00  9.000E+00
      21     1     1     2   502   511 -1.956665944E+01 -1.040491001E+01 -7.057916492E+00  2.325791262E+01  3.862822472E-07  0.00000E+00  9.000E+00
#rwgt            1           1   2.2648773605463846E-002          10      218867           0
</event>
<event>
      5   9999  3.19816E-02  5.19098E+01 -1.00000E+00  1.38153E-01
      21    -1     0     0   502   501  0.000000000E+00  0.000000000E+00  1.551555276E+03  1.551555276E+03  0.000000000E+00  0.00000E+00  9.000E+00
      21    -1     0     0   501   512  0.000000000E+00  0.000000000E+00 -1.016918819E+02  1.016918819E+02  0.000000000E+00  0.00000E+00  9.000E+00
      25     1     1     2     0     0  2.173003111E+02  2.988993436E+00  3.069680790E+02  3.963366761E+02  1.250000000E+02  0.00000E+00  9.000E+00
      25     1     1     2     0     0 -1.834254079E+02  3.634444149E+01  1.174695031E+03  1.196034788E+03  1.250000000E+02  0.00000E+00  9.000E+00
      21     1     1     2   502   512 -3.387490322E+01 -3.933343493E+01 -3.179971576E+01  6.087569379E+01  1.215700987E-06  0.00000E+00  9.000E+00
#rwgt            1           1   3.3483961004644666E-002          10      219098           0
</event>
<event>
      5   9999  3.19816E-02  7.22370E+02 -1.00000E+00  9.45150E-02
       2    -1     0     0   502     0  0.000000000E+00  0.000000000E+00  1.085124702E+03  1.085124702E+03  0.000000000E+00  0.00000E+00  9.000E+00
      21    -1     0     0   501   502  0.000000000E+00  0.000000000E+00 -1.730199977E+03  1.730199977E+03  0.000000000E+00  0.00000E+00  9.000E+00
      25     1     1     2     0     0  3.428316330E+02  4.767452592E+02 -9.989783275E+02  1.165505156E+03  1.250000000E+02  0.00000E+00  9.000E+00
      25     1     1     2     0     0  2.988542066E+02 -1.449950992E+02 -4.473330401E+02  5.710247493E+02  1.250000000E+02  0.00000E+00  9.000E+00
       2     1     1     2   501     0 -6.416858397E+02 -3.317501600E+02  8.012360934E+02  1.078794773E+03  0.000000000E+00  0.00000E+00  9.000E+00
#rwgt            2          18   2.5251878417590361E-003          10      219231           0
</event>
<event>
      5   9999  3.19816E-02  2.28573E+01 -1.00000E+00  1.61722E-01
      21    -1     0     0   502   501  0.000000000E+00  0.000000000E+00  2.028775760E+02  2.028775760E+02  0.000000000E+00  0.00000E+00  9.000E+00
      21    -1     0     0   501   511  0.000000000E+00  0.000000000E+00 -4.809055623E+02  4.809055623E+02  0.000000000E+00  0.00000E+00  9.000E+00
      25     1     1     2     0     0 -9.096545728E+01  1.961224852E+02 -3.020612105E+02  3.919243785E+02  1.250000000E+02  0.00000E+00  9.000E+00
      25     1     1     2     0     0  1.134902100E+02 -2.000075711E+02  3.886620639E+01  2.646103517E+02  1.250000000E+02  0.00000E+00  9.000E+00
      21     1     1     2   502   511 -2.252475269E+01  3.885085908E+00 -1.483298221E+01  2.724840798E+01  1.685873940E-07  0.00000E+00  9.000E+00
#rwgt            1           1   2.7824448432571626E-002          10      219250           0
</event>
<event>
      5   9999  3.19816E-02  5.73526E+01 -1.00000E+00  1.35759E-01
      21    -1     0     0   502   512  0.000000000E+00  0.000000000E+00  1.273056106E+03  1.273056106E+03  0.000000000E+00  0.00000E+00  9.000E+00
      21    -1     0     0   501   502  0.000000000E+00  0.000000000E+00 -1.252736721E+02  1.252736721E+02  0.000000000E+00  0.00000E+00  9.000E+00
      25     1     1     2     0     0  1.509702408E+02 -1.091433552E+02  9.022772242E+00  2.245232638E+02  1.250000000E+02  0.00000E+00  9.000E+00
      25     1     1     2     0     0 -9.455022849E+01  1.194439148E+02  1.048569833E+03  1.066925625E+03  1.250000000E+02  0.00000E+00  9.000E+00
      21     1     1     2   501   512 -5.642001231E+01 -1.030055960E+01  9.018982864E+01  1.068808893E+02  0.000000000E+00  0.00000E+00  9.000E+00
#rwgt            1           1   2.8338111733136873E-002          10      219390           0
</event>
<event>
      5   9999  3.19816E-02  2.73584E+02 -1.00000E+00  1.06909E-01
      21    -1     0     0   502   501  0.000000000E+00  0.000000000E+00  3.838395357E+02  3.838395357E+02  0.000000000E+00  0.00000E+00  9.000E+00
       2    -1     0     0   501     0  0.000000000E+00  0.000000000E+00 -6.301051069E+02  6.301051069E+02  0.000000000E+00  0.00000E+00  9.000E+00
      25     1     1     2     0     0 -1.258978719E+02 -1.188420654E+02 -1.951751015E+02  2.892957498E+02  1.250000000E+02  0.00000E+00  9.000E+00
      25     1     1     2     0     0 -4.633137410E+01 -9.372656903E+01  2.622011543E+02  3.087162310E+02  1.250000000E+02  0.00000E+00  9.000E+00
       2     1     1     2   502     0  1.722292460E+02  2.125686344E+02 -3.132916239E+02  4.159326618E+02  7.629394531E-06  0.00000E+00  9.000E+00
#rwgt            1           1   2.6905106526544337E-002          10      219462           0
</event>
<event>
      5   9999  3.19816E-02  3.20991E+01 -1.00000E+00  1.51027E-01
      21    -1     0     0   502   511  0.000000000E+00  0.000000000E+00  4.900443700E+02  4.900443700E+02  0.000000000E+00  0.00000E+00  9.000E+00
      21    -1     0     0   501   502  0.000000000E+00  0.000000000E+00 -2.181854778E+02  2.181854778E+02  0.000000000E+00  0.00000E+00  9.000E+00
      25     1     1     2     0     0  1.573059864E+02  2.186352209E+02  2.582139580E+02  3.935047411E+02  1.250000000E+02  0.00000E+00  9.000E+00
      25     1     1     2     0     0 -1.262215993E+02 -2.106281192E+02 -8.599030502E+00  2.756719791E+02  1.250000000E+02  0.00000E+00  9.000E+00
      21     1     1     2   501   511 -3.108438717E+01 -8.007101712E+00  2.224396472E+01  3.905312753E+01  2.384185791E-07  0.00000E+00  9.000E+00
#rwgt            1           1   2.5414892273145744E-002          10      219493           0
</event>
<event>
      5   9999  3.19816E-02  9.12523E+01 -1.00000E+00  1.25643E-01
      -2    -1     0     0     0   501  0.000000000E+00  0.000000000E+00  2.340812594E+02  2.340812594E+02  0.000000000E+00  0.00000E+00  9.000E+00
      21    -1     0     0   501   502  0.000000000E+00  0.000000000E+00 -2.080120042E+02  2.080120042E+02  0.000000000E+00  0.00000E+00  9.000E+00
      25     1     1     2     0     0 -7.528482475E+01  4.193819050E+01 -4.043733934E+01  1.571203204E+02  1.250000000E+02  0.00000E+00  9.000E+00
      25     1     1     2     0     0  4.331733376E+01 -1.274078507E+02  2.742899830E+01  1.857054167E+02  1.250000000E+02  0.00000E+00  9.000E+00
      -2     1     1     2     0   502  3.196749099E+01  8.546966024E+01  3.907759628E+01  9.926752658E+01  2.477718555E-06  0.00000E+00  9.000E+00
#rwgt            1           1   3.0604267076481086E-002          10      219613           0
</event>
<event>
      5   9999  3.19816E-02  2.68137E+01 -1.00000E+00  1.56506E-01
      21    -1     0     0   511   501  0.000000000E+00  0.000000000E+00  5.098298068E+02  5.098298068E+02  0.000000000E+00  0.00000E+00  9.000E+00
      21    -1     0     0   501   502  0.000000000E+00  0.000000000E+00 -2.765543505E+02  2.765543505E+02  0.000000000E+00  0.00000E+00  9.000E+00
      25     1     1     2     0     0  1.007524231E+02 -2.348076890E+02 -1.102556375E+02  3.050688565E+02  1.250000000E+02  0.00000E+00  9.000E+00
      25     1     1     2     0     0 -1.078975994E+02  2.606518813E+02  3.280260341E+02  4.503413974E+02  1.250000000E+02  0.00000E+00  9.000E+00
      21     1     1     2   511   502  7.145176327E+00 -2.584419222E+01  1.550505978E+01  3.097390345E+01  3.371747881E-07  0.00000E+00  9.000E+00
#rwgt            1           1   2.8050843048582731E-002          10      219689           0
</event>
<event>
      5   9999  3.19816E-02  1.08965E+02 -1.00000E+00  1.22174E-01
       1    -1     0     0   502     0  0.000000000E+00  0.000000000E+00  2.888925713E+02  2.888925713E+02  0.000000000E+00  0.00000E+00  9.000E+00
      21    -1     0     0   501   502  0.000000000E+00  0.000000000E+00 -1.936937290E+03  1.936937290E+03  0.000000000E+00  0.00000E+00  9.000E+00
      25     1     1     2     0     0 -1.573478328E+02 -5.387851966E+02 -1.013936353E+03  1.165649929E+03  1.250000000E+02  0.00000E+00  9.000E+00
      25     1     1     2     0     0  8.737844308E+01  4.552534686E+02 -7.566983267E+02  8.961629710E+02  1.250000000E+02  0.00000E+00  9.000E+00
       1     1     1     2   501     0  6.996938976E+01  8.353172793E+01  1.225899611E+02  1.640169615E+02  3.015782986E-06  0.00000E+00  9.000E+00
#rwgt            1           1   3.3334891933510351E-002          10      219847           0
</event>
<event>
      5   9999  3.19816E-02  3.58574E+02 -1.00000E+00  1.03135E-01
      21    -1     0     0   502   501  0.000000000E+00  0.000000000E+00  1.015602103E+02  1.015602103E+02  0.000000000E+00  0.00000E+00  9.000E+00
      21    -1     0     0   511   502  0.000000000E+00  0.000000000E+00 -2.037750602E+03  2.037750602E+03  0.000000000E+00  0.00000E+00  9.000E+00
      25     1     1     2     0     0 -1.848863141E+02 -4.606637725E+01 -1.751134996E+02  2.873931070E+02  1.250000000E+02  0.00000E+00  9.000E+00
      25     1     1     2     0     0 -1.427437845E+02 -9.965156835E+01 -6.553429447E+02  6.894966267E+02  1.250000000E+02  0.00000E+00  9.000E+00
      21     1     1     2   511   501  3.276300986E+02  1.457179456E+02 -1.105733948E+03  1.162421079E+03  0.000000000E+00  0.00000E+00  9.000E+00
#rwgt            2          11   1.5319086308353122E-003          10      219994           0
</event>
<event>
      5   9999  3.19816E-02  3.10875E+01 -1.00000E+00  1.51973E-01
      21    -1     0     0   502   501  0.000000000E+00  0.000000000E+00  9.421535460E+02  9.421535460E+02  0.000000000E+00  0.00000E+00  9.000E+00
      21    -1     0     0   512   502  0.000000000E+00  0.000000000E+00 -4.793415792E+02  4.793415792E+02  0.000000000E+00  0.00000E+00  9.000E+00
      25     1     1     2     0     0 -9.816207748E+01 -7.490893758E+01  9.052389282E+02  9.221332114E+02  1.250000000E+02  0.00000E+00  9.000E+00
      25     1     1     2     0     0  1.104762954E+02  4.636438150E+01 -2.479842871E+02  3.024497881E+02  1.250000000E+02  0.00000E+00  9.000E+00
      21     1     1     2   512   501 -1.231421789E+01  2.854455608E+01 -1.944426744E+02  1.969121257E+02  0.000000000E+00  0.00000E+00  9.000E+00
#rwgt            1           1   2.5240385872620744E-002          10      220029           0
</event>
<event>
      5   9999  3.19816E-02  2.54240E+02 -1.00000E+00  1.07981E-01
      21    -1     0     0   502   501  0.000000000E+00  0.000000000E+00  1.599443955E+02  1.599443955E+02  0.000000000E+00  0.00000E+00  9.000E+00
      21    -1     0     0   501   511  0.000000000E+00  0.000000000E+00 -1.880463603E+03  1.880463603E+03  0.000000000E+00  0.00000E+00  9.000E+00
      25     1     1     2     0     0 -8.241839146E+01 -1.128754484E+02  4.358679011E+01  1.925057567E+02  1.250000000E+02  0.00000E+00  9.000E+00
      25     1     1     2     0     0  2.393686968E+02 -8.713628268E+01 -1.121268017E+03  1.156614487E+03  1.250000000E+02  0.00000E+00  9.000E+00
      21     1     1     2   502   511 -1.569503053E+02  2.000117311E+02 -6.428379799E+02  6.912877543E+02  0.000000000E+00  0.00000E+00  9.000E+00
#rwgt            1           1   2.9783429375359442E-002          10      220207           0
</event>
<event>
      5   9999  3.19816E-02  1.40737E+02 -1.00000E+00  1.17501E-01
      21    -1     0     0   502   501  0.000000000E+00  0.000000000E+00  6.460211621E+01  6.460211621E+01  0.000000000E+00  0.00000E+00  9.000E+00
       2    -1     0     0   501     0  0.000000000E+00  0.000000000E+00 -1.737974371E+03  1.737974371E+03  0.000000000E+00  0.00000E+00  9.000E+00
      25     1     1     2     0     0 -2.085071884E+01 -7.702217054E+01 -1.006381115E+02  1.792210834E+02  1.250000000E+02  0.00000E+00  9.000E+00
      25     1     1     2     0     0  8.942783764E+01  1.999213494E+02 -8.322448971E+02  8.696105179E+02  1.250000000E+02  0.00000E+00  9.000E+00
       2     1     1     2   502     0 -6.857711880E+01 -1.228991789E+02 -7.404892464E+02  7.537448861E+02  1.078959322E-05  0.00000E+00  9.000E+00
#rwgt            1           1   3.5372404995354517E-002          10      220263           0
</event>
<event>
      5   9999  3.19816E-02  3.45519E+01 -1.00000E+00  1.48897E-01
      21    -1     0     0   502   501  0.000000000E+00  0.000000000E+00  1.235689188E+03  1.235689188E+03  0.000000000E+00  0.00000E+00  9.000E+00
      21    -1     0     0   511   502  0.000000000E+00  0.000000000E+00 -2.974342566E+02  2.974342566E+02  0.000000000E+00  0.00000E+00  9.000E+00
      25     1     1     2     0     0 -5.315267192E+02  1.379570454E+02  2.963180884E+02  6.363821251E+02  1.250000000E+02  0.00000E+00  9.000E+00
      25     1     1     2     0     0  5.532206262E+02 -1.648495484E+02  6.169852455E+02  8.541219046E+02  1.250000000E+02  0.00000E+00  9.000E+00
      21     1     1     2   511   501 -2.169390698E+01  2.689250300E+01  2.495159750E+01  4.261941501E+01  3.371747881E-07  0.00000E+00  9.000E+00
#rwgt            2          11   1.4754009538190850E-002          10      220320           0
</event>
<event>
      5   9999  3.19816E-02  5.52576E+01 -1.00000E+00  1.36643E-01
       1    -1     0     0   502     0  0.000000000E+00  0.000000000E+00  1.250046347E+03  1.250046347E+03  0.000000000E+00  0.00000E+00  9.000E+00
      21    -1     0     0   501   502  0.000000000E+00  0.000000000E+00 -1.048009112E+02  1.048009112E+02  0.000000000E+00  0.00000E+00  9.000E+00
      25     1     1     2     0     0 -1.013526202E+02 -9.076308376E+01  1.178166372E+02  2.191256511E+02  1.250000000E+02  0.00000E+00  9.000E+00
      25     1     1     2     0     0  1.554183824E+02  7.934853239E+01  1.629974797E+02  2.695259571E+02  1.250000000E+02  0.00000E+00  9.000E+00
       1     1     1     2   501     0 -5.406576215E+01  1.141455137E+01  8.644313188E+02  8.661956497E+02  1.078959322E-05  0.00000E+00  9.000E+00
#rwgt            1           1   3.0598354216221355E-002          10      220340           0
</event>
<event>
      5   9999  3.19816E-02  2.30177E+01 -1.00000E+00  1.61486E-01
      21    -1     0     0   502   511  0.000000000E+00  0.000000000E+00  1.125552740E+02  1.125552740E+02  0.000000000E+00  0.00000E+00  9.000E+00
      21    -1     0     0   501   502  0.000000000E+00  0.000000000E+00 -1.452471339E+03  1.452471339E+03  0.000000000E+00  0.00000E+00  9.000E+00
      25     1     1     2     0     0  1.243797477E+02 -1.318730420E+02 -1.259067938E+03  1.278177568E+03  1.250000000E+02  0.00000E+00  9.000E+00
      25     1     1     2     0     0 -1.353557860E+02  1.521052691E+02 -4.330526201E+01  2.428117530E+02  1.250000000E+02  0.00000E+00  9.000E+00
      21     1     1     2   501   511  1.097603830E+01 -2.023222704E+01 -3.754286442E+01  4.403729211E+01  0.000000000E+00  0.00000E+00  9.000E+00
#rwgt            1           1   2.7480574552845419E-002          10      220438           0
</event>
<event>
      5   9999  3.19816E-02  1.82220E+02 -1.00000E+00  1.13140E-01
      21    -1     0     0   502   512  0.000000000E+00  0.000000000E+00  2.362565877E+03  2.362565877E+03  0.000000000E+00  0.00000E+00  9.000E+00
      21    -1     0     0   501   502  0.000000000E+00  0.000000000E+00 -2.276735567E+02  2.276735567E+02  0.000000000E+00  0.00000E+00  9.000E+00
      25     1     1     2     0     0 -9.167958185E+00 -5.263057081E+02  3.498927465E+02  6.443071348E+02  1.250000000E+02  0.00000E+00  9.000E+00
      25     1     1     2     0     0  4.269781898E+01  3.471974965E+02  3.882181369E+02  5.373151097E+02  1.250000000E+02  0.00000E+00  9.000E+00
      21     1     1     2   501   512 -3.352986079E+01  1.791082116E+02  1.396781437E+03  1.408617190E+03  1.525878906E-05  0.00000E+00  9.000E+00
#rwgt            1           1   2.2890246988665201E-002          10      220612           0
</event>
<event>
      5   9999  3.19816E-02  5.67996E+01 -1.00000E+00  1.35988E-01
      21    -1     0     0   502   511  0.000000000E+00  0.000000000E+00  5.171253887E+02  5.171253887E+02  0.000000000E+00  0.00000E+00  9.000E+00
      21    -1     0     0   501   502  0.000000000E+00  0.000000000E+00 -1.154530551E+02  1.154530551E+02  0.000000000E+00  0.00000E+00  9.000E+00
      25     1     1     2     0     0  1.144957431E+02  9.456583790E+01  2.748401610E+02  3.364730108E+02  1.250000000E+02  0.00000E+00  9.000E+00
      25     1     1     2     0     0 -7.193585686E+01 -1.321804122E+02  5.249397368E+01  2.025513420E+02  1.250000000E+02  0.00000E+00  9.000E+00
      21     1     1     2   501   511 -4.255988628E+01  3.761457425E+01  7.433819897E+01  9.355409100E+01  9.536743164E-07  0.00000E+00  9.000E+00
#rwgt            1           1   2.4988372291812156E-002          10      220652           0
</event>
<event>
      5   9999  3.19816E-02  6.22994E+01 -1.00000E+00  1.33836E-01
      21    -1     0     0   502   501  0.000000000E+00  0.000000000E+00  2.847828356E+02  2.847828356E+02  0.000000000E+00  0.00000E+00  9.000E+00
      21    -1     0     0   501   512  0.000000000E+00  0.000000000E+00 -2.689786229E+02  2.689786229E+02  0.000000000E+00  0.00000E+00  9.000E+00
      25     1     1     2     0     0 -1.226228466E+02  7.546943492E+00  1.763039569E+02  2.485988819E+02  1.250000000E+02  0.00000E+00  9.000E+00
      25     1     1     2     0     0  1.076634721E+02 -6.802363270E+01 -6.257691579E+01  1.891018461E+02  1.250000000E+02  0.00000E+00  9.000E+00
      21     1     1     2   502   512  1.495937450E+01  6.047668921E+01 -9.792282847E+01  1.160607305E+02  1.348699152E-06  0.00000E+00  9.000E+00
#rwgt            1           1   2.8459903688116562E-002          10      220735           0
</event>
<event>
      5   9999  3.19816E-02  7.40301E+01 -1.00000E+00  1.30001E-01
      21    -1     0     0   511   501  0.000000000E+00  0.000000000E+00  8.870514023E+01  8.870514023E+01  0.000000000E+00  0.00000E+00  9.000E+00
      21    -1     0     0   501   502  0.000000000E+00  0.000000000E+00 -6.806222919E+02  6.806222919E+02  0.000000000E+00  0.00000E+00  9.000E+00
      25     1     1     2     0     0  6.031595133E+01  9.212623120E+00 -5.440009222E+02  5.615023507E+02  1.250000000E+02  0.00000E+00  9.000E+00
      25     1     1     2     0     0  1.171628916E+01  7.869903560E+00 -4.545242312E+01  1.337539890E+02  1.250000000E+02  0.00000E+00  9.000E+00
      21     1     1     2   511   502 -7.203224049E+01 -1.708252668E+01 -2.463806289E+00  7.407109240E+01  8.565251746E-07  0.00000E+00  9.000E+00
#rwgt            1           1   2.5051286649824273E-002          10      220807           0
</event>
<event>
      5   9999  3.19816E-02  2.83703E+01 -1.00000E+00  1.54744E-01
      21    -1     0     0   502   512  0.000000000E+00  0.000000000E+00  2.622926797E+03  2.622926797E+03  0.000000000E+00  0.00000E+00  9.000E+00
      21    -1     0     0   501   502  0.000000000E+00  0.000000000E+00 -1.071207306E+02  1.071207306E+02  0.000000000E+00  0.00000E+00  9.000E+00
      25     1     1     2     0     0  4.257429240E+02  3.073198109E+01  5.447194991E+02  7.032395216E+02  1.250000000E+02  0.00000E+00  9.000E+00
      25     1     1     2     0     0 -3.993694198E+02 -4.118721733E+01  1.589882276E+03  1.644549474E+03  1.250000000E+02  0.00000E+00  9.000E+00
      21     1     1     2   501   512 -2.637350413E+01  1.045523624E+01  3.812042915E+02  3.822585323E+02  5.394796609E-06  0.00000E+00  9.000E+00
#rwgt            1           1   3.0674873123853134E-002          10      220875           0
</event>
<event>
      5   9999  3.19816E-02  1.10381E+02 -1.00000E+00  1.21929E-01
      21    -1     0     0   502   501  0.000000000E+00  0.000000000E+00  1.131549172E+03  1.131549172E+03  0.000000000E+00  0.00000E+00  9.000E+00
      21    -1     0     0   501   511  0.000000000E+00  0.000000000E+00 -2.398155594E+02  2.398155594E+02  0.000000000E+00  0.00000E+00  9.000E+00
      25     1     1     2     0     0  1.623782489E+02  7.770228955E+01  9.444593047E+02  9.695528452E+02  1.250000000E+02  0.00000E+00  9.000E+00
      25     1     1     2     0     0 -2.269420836E+02  1.182710911E+01  3.380872811E+01  2.615542389E+02  1.250000000E+02  0.00000E+00  9.000E+00
      21     1     1     2   502   511  6.456383465E+01 -8.952939866E+01 -8.653441965E+01  1.402576478E+02  1.907348633E-06  0.00000E+00  9.000E+00
#rwgt            1           1   2.8916216309951889E-002          10      221045           0
</event>
<event>
      5   9999  3.19816E-02  1.82401E+02 -1.00000E+00  1.13124E-01
      21    -1     0     0   502   512  0.000000000E+00  0.000000000E+00  7.528763278E+02  7.528763278E+02  0.000000000E+00  0.00000E+00  9.000E+00
      21    -1     0     0   501   502  0.000000000E+00  0.000000000E+00 -1.353748926E+03  1.353748926E+03  0.000000000E+00  0.00000E+00  9.000E+00
      25     1     1     2     0     0  3.395675930E+02  7.059611257E+02  2.765063225E+02  8.400999986E+02  1.250000000E+02  0.00000E+00  9.000E+00
      25     1     1     2     0     0 -2.443604847E+02 -5.503788447E+02 -8.920707859E+02  1.083533205E+03  1.250000000E+02  0.00000E+00  9.000E+00
      21     1     1     2   501   512 -9.520710835E+01 -1.555822810E+02  1.469186505E+01  1.829920505E+02  3.588179813E-06  0.00000E+00  9.000E+00
#rwgt            2          11   9.7399198590669214E-003          10      221230           0
</event>
<event>
      5   9999  3.19816E-02  6.05006E+01 -1.00000E+00  1.34511E-01
      21    -1     0     0   511   501  0.000000000E+00  0.000000000E+00  3.867049595E+02  3.867049595E+02  0.000000000E+00  0.00000E+00  9.000E+00
      21    -1     0     0   501   502  0.000000000E+00  0.000000000E+00 -7.152137175E+02  7.152137175E+02  0.000000000E+00  0.00000E+00  9.000E+00
      25     1     1     2     0     0  1.722983257E+02 -4.015935105E+02 -2.656484296E+02  5.264581169E+02  1.250000000E+02  0.00000E+00  9.000E+00
      25     1     1     2     0     0 -1.773522880E+02  4.618826954E+02 -4.454650053E+01  5.122488156E+02  1.250000000E+02  0.00000E+00  9.000E+00
      21     1     1     2   511   502  5.053962274E+00 -6.028918486E+01 -1.831382787E+01  6.321174446E+01  1.450243599E-06  0.00000E+00  9.000E+00
#rwgt            1           1   2.9622767601547681E-002          10      221250           0
</event>
<event>
      5   9999  3.19816E-02  3.23275E+00 -1.00000E+00  2.87356E-01
      21    -1     0     0   502   512  0.000000000E+00  0.000000000E+00  4.141886244E+03  4.141886244E+03  0.000000000E+00  0.00000E+00  9.000E+00
      21    -1     0     0   501   502  0.000000000E+00  0.000000000E+00 -1.602669753E+01  1.602669753E+01  0.000000000E+00  0.00000E+00  9.000E+00
      25     1     1     2     0     0  1.561191738E+02  5.277472355E+01  8.501729462E+02  8.749728032E+02  1.250000000E+02  0.00000E+00  9.000E+00
      25     1     1     2     0     0 -1.543832608E+02 -5.004758100E+01  2.894511168E+03  2.901750998E+03  1.250000000E+02  0.00000E+00  9.000E+00
      21     1     1     2   501   512 -1.735913016E+00 -2.727142549E+00  3.811754325E+02  3.811891407E+02  0.000000000E+00  0.00000E+00  9.000E+00
#rwgt            1           1   8.0482636826207012E-003          10      221324           0
</event>
<event>
      5   9999  3.19816E-02  6.05017E+01 -1.00000E+00  1.34510E-01
      21    -1     0     0   502   501  0.000000000E+00  0.000000000E+00  2.585529138E+02  2.585529138E+02  0.000000000E+00  0.00000E+00  9.000E+00
      21    -1     0     0   511   502  0.000000000E+00  0.000000000E+00 -1.072379347E+03  1.072379347E+03  0.000000000E+00  0.00000E+00  9.000E+00
      25     1     1     2     0     0 -3.605219044E+02 -1.054017856E+02 -7.610757763E+02  8.578734856E+02  1.250000000E+02  0.00000E+00  9.000E+00
      25     1     1     2     0     0  3.025219833E+02  1.226200158E+02  5.071437962E+01  3.532027279E+02  1.250000000E+02  0.00000E+00  9.000E+00
      21     1     1     2   511   501  5.799992108E+01 -1.721823022E+01 -1.034650363E+02  1.198560471E+02  1.348699152E-06  0.00000E+00  9.000E+00
#rwgt            1           1   2.6389395600264445E-002          10      221715           0
</event>
<event>
      5   9999  3.19816E-02  1.39456E+02 -1.00000E+00  1.17662E-01
       2    -1     0     0   502     0  0.000000000E+00  0.000000000E+00  4.747894978E+03  4.747894978E+03  0.000000000E+00  0.00000E+00  9.000E+00
      21    -1     0     0   501   502  0.000000000E+00  0.000000000E+00 -1.147407953E+03  1.147407953E+03  0.000000000E+00  0.00000E+00  9.000E+00
      25     1     1     2     0     0 -2.689209237E+02  5.191647699E+02 -4.565125911E+02  7.522494714E+02  1.250000000E+02  0.00000E+00  9.000E+00
      25     1     1     2     0     0  4.037962038E+02 -4.837155589E+02 -3.515577724E+02  7.322909145E+02  1.250000000E+02  0.00000E+00  9.000E+00
       2     1     1     2   501     0 -1.348752802E+02 -3.544921099E+01  4.408557388E+03  4.410762545E+03  6.103515625E-05  0.00000E+00  9.000E+00
#rwgt            1           1   3.0065593166145311E-002          10      221876           0
</event>
<event>
      5   9999  3.19816E-02  7.07888E+02 -1.00000E+00  9.47437E-02
      21    -1     0     0   502   511  0.000000000E+00  0.000000000E+00  8.805380387E+02  8.805380387E+02  0.000000000E+00  0.00000E+00  9.000E+00
      21    -1     0     0   501   502  0.000000000E+00  0.000000000E+00 -2.521733433E+03  2.521733433E+03  0.000000000E+00  0.00000E+00  9.000E+00
      25     1     1     2     0     0 -8.174548006E+02 -3.484282991E+02 -5.450248250E+02  1.049910325E+03  1.250000000E+02  0.00000E+00  9.000E+00
      25     1     1     2     0     0  8.954534823E+02 -3.551491744E+02 -1.293361191E+03  1.617521575E+03  1.250000000E+02  0.00000E+00  9.000E+00
      21     1     1     2   501   511 -7.799868176E+01  7.035774734E+02  1.971906213E+02  7.348395720E+02  2.256805337E-05  0.00000E+00  9.000E+00
#rwgt            2          11   1.7385644542047235E-003          10      221988           0
</event>
<event>
      5   9999  3.19816E-02  4.45985E+02 -1.00000E+00  1.00283E-01
      21    -1     0     0   502   501  0.000000000E+00  0.000000000E+00  9.255551743E+02  9.255551743E+02  0.000000000E+00  0.00000E+00  9.000E+00
      -2    -1     0     0     0   502  0.000000000E+00  0.000000000E+00 -1.021643456E+03  1.021643456E+03  0.000000000E+00  0.00000E+00  9.000E+00
      25     1     1     2     0     0  3.154208019E+02 -5.923331404E+02 -4.504729507E+02  8.178628924E+02  1.250000000E+02  0.00000E+00  9.000E+00
      25     1     1     2     0     0 -1.189249103E+02  1.919678855E+02  5.761011533E+02  6.312783397E+02  1.250000000E+02  0.00000E+00  9.000E+00
      -2     1     1     2     0   501 -1.964958916E+02  4.003652549E+02 -2.217164848E+02  4.980573987E+02  7.136645101E-06  0.00000E+00  9.000E+00
#rwgt            2           9   5.0697922423839859E-005          10      222023           0
</event>
<event>
      5   9999  3.19816E-02  1.88090E+01 -1.00000E+00  1.68600E-01
      21    -1     0     0   502   501  0.000000000E+00  0.000000000E+00  2.333034930E+02  2.333034930E+02  0.000000000E+00  0.00000E+00  9.000E+00
      21    -1     0     0   501   511  0.000000000E+00  0.000000000E+00 -4.953911874E+02  4.953911874E+02  0.000000000E+00  0.00000E+00  9.000E+00
      25     1     1     2     0     0 -1.654652417E+02 -2.530310444E+02 -6.204307756E+01  3.329831814E+02  1.250000000E+02  0.00000E+00  9.000E+00
      25     1     1     2     0     0  1.493885289E+02  2.432679651E+02 -1.574710427E+02  3.491681038E+02  1.250000000E+02  0.00000E+00  9.000E+00
      21     1     1     2   502   511  1.607671282E+01  9.763079235E+00 -4.257357422E+01  4.654339516E+01  4.768371582E-07  0.00000E+00  9.000E+00
#rwgt            1           1   2.9223392503766259E-002          10      222057           0
</event>
<event>
      5   9999  3.19816E-02  1.29024E+01 -1.00000E+00  1.83777E-01
      21    -1     0     0   512   501  0.000000000E+00  0.000000000E+00  1.653641179E+02  1.653641179E+02  0.000000000E+00  0.00000E+00  9.000E+00
      21    -1     0     0   501   502  0.000000000E+00  0.000000000E+00 -3.218957307E+02  3.218957307E+02  0.000000000E+00  0.00000E+00  9.000E+00
      25     1     1     2     0     0  1.323038792E+02 -1.305195317E+02 -7.999937643E+01  2.378330608E+02  1.250000000E+02  0.00000E+00  9.000E+00
      25     1     1     2     0     0 -1.221633639E+02  1.384970553E+02 -7.841477048E+01  2.363878128E+02  1.250000000E+02  0.00000E+00  9.000E+00
      21     1     1     2   512   502 -1.014051525E+01 -7.977523654E+00  1.882534171E+00  1.303897496E+01  2.200130084E-07  0.00000E+00  9.000E+00
#rwgt            1           1   2.9494843035996171E-002          10      222258           0
</event>
<event>
      5   9999  3.19816E-02  9.59991E+01 -1.00000E+00  1.24631E-01
      21    -1     0     0   502   501  0.000000000E+00  0.000000000E+00  5.518956663E+02  5.518956663E+02  0.000000000E+00  0.00000E+00  9.000E+00
      -2    -1     0     0     0   502  0.000000000E+00  0.000000000E+00 -6.568325254E+02  6.568325254E+02  0.000000000E+00  0.00000E+00  9.000E+00
      25     1     1     2     0     0  1.280338115E+02 -2.009473727E+02  3.208374862E+02  4.187292634E+02  1.250000000E+02  0.00000E+00  9.000E+00
      25     1     1     2     0     0 -4.273468706E+01  2.449915127E+02  6.837304449E+01  2.866129236E+02  1.250000000E+02  0.00000E+00  9.000E+00
      -2     1     1     2     0   501 -8.529912443E+01 -4.404414002E+01 -4.941473897E+02  5.033860047E+02  5.394796609E-06  0.00000E+00  9.000E+00
#rwgt            1           1   2.8020400740174947E-002          10      222414           0
</event>
<event>
      5   9999  3.19816E-02  6.44073E+01 -1.00000E+00  1.33079E-01
      21    -1     0     0   502   501  0.000000000E+00  0.000000000E+00  8.234816571E+02  8.234816571E+02  0.000000000E+00  0.00000E+00  9.000E+00
      21    -1     0     0   501   511  0.000000000E+00  0.000000000E+00 -3.483079242E+02  3.483079242E+02  0.000000000E+00  0.00000E+00  9.000E+00
      25     1     1     2     0     0 -1.352913081E+02 -2.354768092E+02 -2.076437579E+02  3.639972472E+02  1.250000000E+02  0.00000E+00  9.000E+00
      25     1     1     2     0     0  1.927636230E+02  2.064038072E+02  6.757694944E+02  7.430005084E+02  1.250000000E+02  0.00000E+00  9.000E+00
      21     1     1     2   502   511 -5.747231485E+01  2.907300203E+01  7.047996473E+00  6.479182568E+01  1.008006008E-06  0.00000E+00  9.000E+00
#rwgt            1           1   2.9368062729524975E-002          10      222486           0
</event>
<event>
      5   9999  3.19816E-02  3.35675E+01 -1.00000E+00  1.49726E-01
      21    -1     0     0   502   512  0.000000000E+00  0.000000000E+00  2.045301732E+02  2.045301732E+02  0.000000000E+00  0.00000E+00  9.000E+00
      21    -1     0     0   501   502  0.000000000E+00  0.000000000E+00 -1.477636372E+03  1.477636372E+03  0.000000000E+00  0.00000E+00  9.000E+00
      25     1     1     2     0     0 -1.517053949E+02 -9.841450116E+00 -1.335806589E+03  1.350227990E+03  1.250000000E+02  0.00000E+00  9.000E+00
      25     1     1     2     0     0  1.757131091E+02  3.330220539E+01 -4.181428398E+01  2.221656318E+02  1.250000000E+02  0.00000E+00  9.000E+00
      21     1     1     2   501   512 -2.400771421E+01 -2.346075527E+01  1.045146748E+02  1.097729231E+02  0.000000000E+00  0.00000E+00  9.000E+00
#rwgt            1           1   2.7514030801388960E-002          10      222582           0
</event>
<event>
      5   9999  3.19816E-02  1.37191E+02 -1.00000E+00  1.17951E-01
      21    -1     0     0   502   501  0.000000000E+00  0.000000000E+00  4.542614352E+02  4.542614352E+02  0.000000000E+00  0.00000E+00  9.000E+00
      -3    -1     0     0     0   502  0.000000000E+00  0.000000000E+00 -1.612345348E+03  1.612345348E+03  0.000000000E+00  0.00000E+00  9.000E+00
      25     1     1     2     0     0 -1.485694216E+02  4.463788483E+02  3.242698744E+01  4.878559816E+02  1.250000000E+02  0.00000E+00  9.000E+00
      25     1     1     2     0     0  4.113623541E+01 -5.316983102E+02 -2.067376160E+02  5.854577054E+02  1.250000000E+02  0.00000E+00  9.000E+00
      -3     1     1     2     0   501  1.074331862E+02  8.531946193E+01 -9.837732840E+02  9.932930960E+02  0.000000000E+00  0.00000E+00  9.000E+00
#rwgt            1           1   2.4786605837647701E-002          10      222686           0
</event>
<event>
      5   9999  3.19816E-02  5.48065E+01 -1.00000E+00  1.36839E-01
      21    -1     0     0   502   501  0.000000000E+00  0.000000000E+00  4.782563448E+02  4.782563448E+02  0.000000000E+00  0.00000E+00  9.000E+00
      21    -1     0     0   501   511  0.000000000E+00  0.000000000E+00 -4.136611365E+02  4.136611365E+02  0.000000000E+00  0.00000E+00  9.000E+00
      25     1     1     2     0     0  1.191411489E+01  2.034437324E+02 -2.280383206E+02  3.303903359E+02  1.250000000E+02  0.00000E+00  9.000E+00
      25     1     1     2     0     0 -4.811045086E-01 -2.570444685E+02  3.694841553E+02  4.671355598E+02  1.250000000E+02  0.00000E+00  9.000E+00
      21     1     1     2   502   511 -1.143301038E+01  5.360073604E+01 -7.685062638E+01  9.439158546E+01  9.536743164E-07  0.00000E+00  9.000E+00
#rwgt            1           1   2.8116179951711964E-002          10      222784           0
</event>
<event>
      5   9999  3.19816E-02  1.47236E+02 -1.00000E+00  1.16715E-01
      -5    -1     0     0     0   501  0.000000000E+00  0.000000000E+00  1.281263260E+02  1.281263260E+02  0.000000000E+00  0.00000E+00  9.000E+00
      21    -1     0     0   501   502  0.000000000E+00  0.000000000E+00 -8.494388098E+02  8.494388098E+02  0.000000000E+00  0.00000E+00  9.000E+00
      25     1     1     2     0     0 -2.063356422E+02 -1.232598833E+02 -4.170455223E+02  4.973121392E+02  1.250000000E+02  0.00000E+00  9.000E+00
      25     1     1     2     0     0  9.489679141E+01  2.703121035E+01 -2.918777925E+02  3.324962152E+02  1.250000000E+02  0.00000E+00  9.000E+00
      -5     1     1     2     0   502  1.114388508E+02  9.622867292E+01 -1.238916896E+01  1.477567815E+02  2.939421655E-06  0.00000E+00  9.000E+00
#rwgt            1           1   2.8415706262985146E-002          10      222902           0
</event>
<event>
      5   9999  3.19816E-02  4.45714E+01 -1.00000E+00  1.41985E-01
      21    -1     0     0   511   501  0.000000000E+00  0.000000000E+00  2.009106937E+02  2.009106937E+02  0.000000000E+00  0.00000E+00  9.000E+00
      21    -1     0     0   501   502  0.000000000E+00  0.000000000E+00 -4.330267457E+02  4.330267457E+02  0.000000000E+00  0.00000E+00  9.000E+00
      25     1     1     2     0     0  2.340565869E+02 -1.051676761E+02 -1.327213865E+02  3.147740338E+02  1.250000000E+02  0.00000E+00  9.000E+00
      25     1     1     2     0     0 -2.013411507E+02  7.489703908E+01 -1.123387473E+02  2.727504713E+02  1.250000000E+02  0.00000E+00  9.000E+00
      21     1     1     2   511   502 -3.271543617E+01  3.027063699E+01  1.294408179E+01  4.641293442E+01  1.192092896E-06  0.00000E+00  9.000E+00
#rwgt            1           1   2.6979428374963581E-002          10      222933           0
</event>
<event>
      5   9999  3.19816E-02  1.82185E+02 -1.00000E+00  1.13143E-01
      21    -1     0     0   502   501  0.000000000E+00  0.000000000E+00  3.622566191E+02  3.622566191E+02  0.000000000E+00  0.00000E+00  9.000E+00
      21    -1     0     0   512   502  0.000000000E+00  0.000000000E+00 -6.119811220E+02  6.119811220E+02  0.000000000E+00  0.00000E+00  9.000E+00
      25     1     1     2     0     0 -2.426938674E+02 -2.632045512E+02  1.201173410E+02  3.977815037E+02  1.250000000E+02  0.00000E+00  9.000E+00
      25     1     1     2     0     0  9.507871396E+01  1.564277666E+02 -3.169079476E+02  3.867366743E+02  1.250000000E+02  0.00000E+00  9.000E+00
      21     1     1     2   512   501  1.476151534E+02  1.067767846E+02 -5.293389634E+01  1.897195631E+02  1.907348633E-06  0.00000E+00  9.000E+00
#rwgt            1           1   2.5563342153246217E-002          10      222991           0
</event>
<event>
      5   9999  3.19816E-02  3.99664E+02 -1.00000E+00  1.01696E-01
      21    -1     0     0   502   501  0.000000000E+00  0.000000000E+00  1.459037296E+03  1.459037296E+03  0.000000000E+00  0.00000E+00  9.000E+00
      -2    -1     0     0     0   502  0.000000000E+00  0.000000000E+00 -4.857842733E+02  4.857842733E+02  0.000000000E+00  0.00000E+00  9.000E+00
      25     1     1     2     0     0 -2.844274362E+02  3.263830536E+02  8.648292883E+02  9.751818097E+02  1.250000000E+02  0.00000E+00  9.000E+00
      25     1     1     2     0     0 -6.616317166E+01 -1.345035331E+02  4.198288078E+02  4.629794742E+02  1.250000000E+02  0.00000E+00  9.000E+00
      -2     1     1     2     0   501  3.505906078E+02 -1.918795205E+02 -3.114050736E+02  5.066602851E+02  6.607249480E-06  0.00000E+00  9.000E+00
#rwgt            2           9   3.7102196087003048E-004          10      223208           0
</event>
<event>
      5   9999  3.19816E-02  4.19141E+01 -1.00000E+00  1.43592E-01
      21    -1     0     0   502   501  0.000000000E+00  0.000000000E+00  1.714114908E+03  1.714114908E+03  0.000000000E+00  0.00000E+00  9.000E+00
      21    -1     0     0   511   502  0.000000000E+00  0.000000000E+00 -6.239776852E+01  6.239776852E+01  0.000000000E+00  0.00000E+00  9.000E+00
      25     1     1     2     0     0 -1.519321917E+02 -1.380405820E+01  1.370574745E+03  1.384692773E+03  1.250000000E+02  0.00000E+00  9.000E+00
      25     1     1     2     0     0  1.930932725E+02  5.894967271E+00  2.256519263E+02  3.222786906E+02  1.250000000E+02  0.00000E+00  9.000E+00
      21     1     1     2   511   501 -4.116108085E+01  7.909090927E+00  5.549046810E+01  6.954121329E+01  6.743495762E-07  0.00000E+00  9.000E+00
#rwgt            1           1   3.5187990870158128E-002          10      223227           0
</event>
<event>
      5   9999  3.19816E-02  1.26107E+02 -1.00000E+00  1.19460E-01
      21    -1     0     0   512   501  0.000000000E+00  0.000000000E+00  5.184835810E+02  5.184835810E+02  0.000000000E+00  0.00000E+00  9.000E+00
      21    -1     0     0   501   502  0.000000000E+00  0.000000000E+00 -4.022381736E+02  4.022381736E+02  0.000000000E+00  0.00000E+00  9.000E+00
      25     1     1     2     0     0  2.029626006E+02  2.972969404E+02 -1.049816865E+02  3.952536432E+02  1.250000000E+02  0.00000E+00  9.000E+00
      25     1     1     2     0     0 -7.743880384E+01 -3.094075479E+02  1.174330023E+02  3.621399026E+02  1.250000000E+02  0.00000E+00  9.000E+00
      21     1     1     2   512   502 -1.255237967E+02  1.211060752E+01  1.037940916E+02  1.633282088E+02  2.697398305E-06  0.00000E+00  9.000E+00
#rwgt            1           1   3.0121974754716768E-002          10      223304           0
</event>
<event>
      5   9999  3.31098E-02  1.00631E+02 -1.00000E+00  1.23705E-01
      21    -1     0     0   511   501  0.000000000E+00  0.000000000E+00  1.168407558E+02  1.168407558E+02  0.000000000E+00  0.00000E+00  9.000E+00
      21    -1     0     0   501   502  0.000000000E+00  0.000000000E+00 -2.446615425E+03  2.446615425E+03  0.000000000E+00  0.00000E+00  9.000E+00
      25     1     1     2     0     0  2.851352644E+02  3.084809807E+02 -1.001513902E+03  1.093214403E+03  1.250000000E+02  0.00000E+00  9.000E+00
      25     1     1     2     0     0 -1.861904659E+02 -3.268283176E+02 -1.309115125E+03  1.367805194E+03  1.250000000E+02  0.00000E+00  9.000E+00
      21     1     1     2   511   502 -9.894479845E+01  1.834733691E+01 -1.914564092E+01  1.024365827E+02  2.064765462E-06  0.00000E+00  9.000E+00
#rwgt            1           1  0.10038105038773031               10      223370           0
</event>
<event>
      5   9999  3.19816E-02  2.44026E+01 -1.00000E+00  1.59542E-01
      21    -1     0     0   502   512  0.000000000E+00  0.000000000E+00  1.058907876E+03  1.058907876E+03  0.000000000E+00  0.00000E+00  9.000E+00
      21    -1     0     0   501   502  0.000000000E+00  0.000000000E+00 -7.555280872E+02  7.555280872E+02  0.000000000E+00  0.00000E+00  9.000E+00
      25     1     1     2     0     0  1.409994312E+02  3.289488513E+02  7.256712785E+02  8.187258337E+02  1.250000000E+02  0.00000E+00  9.000E+00
      25     1     1     2     0     0 -1.409326779E+02 -3.533513216E+02 -6.517634568E+02  7.649442985E+02  1.250000000E+02  0.00000E+00  9.000E+00
      21     1     1     2   501   512 -6.675324254E-02  2.440247031E+01  2.294719670E+02  2.307658308E+02  0.000000000E+00  0.00000E+00  9.000E+00
#rwgt            1           1   3.0946788868210527E-002          10      223513           0
</event>
<event>
      5   9999  3.19816E-02  3.10847E+01 -1.00000E+00  1.51976E-01
      21    -1     0     0   502   501  0.000000000E+00  0.000000000E+00  3.014858609E+02  3.014858609E+02  0.000000000E+00  0.00000E+00  9.000E+00
      21    -1     0     0   511   502  0.000000000E+00  0.000000000E+00 -2.232977217E+03  2.232977217E+03  0.000000000E+00  0.00000E+00  9.000E+00
      25     1     1     2     0     0 -3.079113485E+01 -3.673760181E+02  5.612911271E+01  3.933048562E+02  1.250000000E+02  0.00000E+00  9.000E+00
      25     1     1     2     0     0  4.077331840E-01  3.739416764E+02 -4.306632296E+02  5.838907097E+02  1.250000000E+02  0.00000E+00  9.000E+00
      21     1     1     2   511   501  3.038340167E+01 -6.565658333E+00 -1.556957239E+03  1.557267512E+03  2.157918644E-05  0.00000E+00  9.000E+00
#rwgt            1           1   2.7414933733554213E-002          10      223741           0
</event>
<event>
      5   9999  3.19816E-02  1.17934E+02 -1.00000E+00  1.20689E-01
      21    -1     0     0   502   501  0.000000000E+00  0.000000000E+00  2.227593054E+02  2.227593054E+02  0.000000000E+00  0.00000E+00  9.000E+00
      21    -1     0     0   501   512  0.000000000E+00  0.000000000E+00 -9.595989711E+02  9.595989711E+02  0.000000000E+00  0.00000E+00  9.000E+00
      25     1     1     2     0     0 -1.805952518E+02  3.454389332E+02 -2.590986188E+02  4.844582499E+02  1.250000000E+02  0.00000E+00  9.000E+00
      25     1     1     2     0     0  6.704810680E+01 -3.135711677E+02 -2.045983480E+02  4.003845774E+02  1.250000000E+02  0.00000E+00  9.000E+00
      21     1     1     2   502   512  1.135471450E+02 -3.186776556E+01 -2.731426989E+02  2.975154493E+02  3.814697266E-06  0.00000E+00  9.000E+00
#rwgt            1           1   2.7520243453407544E-002          10      223826           0
</event>
<event>
      5   9999  3.19816E-02  3.53436E+01 -1.00000E+00  1.48254E-01
      21    -1     0     0   511   501  0.000000000E+00  0.000000000E+00  1.387700516E+03  1.387700516E+03  0.000000000E+00  0.00000E+00  9.000E+00
      21    -1     0     0   501   502  0.000000000E+00  0.000000000E+00 -3.912021147E+01  3.912021147E+01  0.000000000E+00  0.00000E+00  9.000E+00
      25     1     1     2     0     0  6.741547089E+01 -1.351664816E+02  7.874230846E+02  8.114646866E+02  1.250000000E+02  0.00000E+00  9.000E+00
      25     1     1     2     0     0 -5.280666675E+01  1.673495642E+02  4.541827148E+02  5.026941009E+02  1.250000000E+02  0.00000E+00  9.000E+00
      21     1     1     2   511   502 -1.460880414E+01 -3.218308253E+01  1.069745050E+02  1.126619398E+02  0.000000000E+00  0.00000E+00  9.000E+00
#rwgt            1           1   3.1908525154084023E-002          10      223873           0
</event>
<event>
      5   9999  3.19816E-02  8.79352E+01 -1.00000E+00  1.26393E-01
      21    -1     0     0   502   501  0.000000000E+00  0.000000000E+00  8.353445542E+02  8.353445542E+02  0.000000000E+00  0.00000E+00  9.000E+00
      21    -1     0     0   501   512  0.000000000E+00  0.000000000E+00 -7.895146546E+02  7.895146546E+02  0.000000000E+00  0.00000E+00  9.000E+00
      25     1     1     2     0     0  4.651629057E+02 -2.554812149E+02  2.513103964E+02  6.003574730E+02  1.250000000E+02  0.00000E+00  9.000E+00
      25     1     1     2     0     0 -4.629545402E+02  1.675737058E+02  2.460959561E+02  5.644431528E+02  1.250000000E+02  0.00000E+00  9.000E+00
      21     1     1     2   502   512 -2.208365567E+00  8.790750911E+01 -4.515764529E+02  4.600585830E+02  5.394796609E-06  0.00000E+00  9.000E+00
#rwgt            1           1   2.6506547633170268E-002          10      223937           0
</event>
<event>
      5   9999  3.19816E-02  1.75990E+02 -1.00000E+00  1.13708E-01
      21    -1     0     0   502   511  0.000000000E+00  0.000000000E+00  7.811594397E+02  7.811594397E+02  0.000000000E+00  0.00000E+00  9.000E+00
      21    -1     0     0   501   502  0.000000000E+00  0.000000000E+00 -9.744583996E+02  9.744583996E+02  0.000000000E+00  0.00000E+00  9.000E+00
      25     1     1     2     0     0  6.310353554E+01  6.276259882E+02  2.957706885E+02  7.078147621E+02  1.250000000E+02  0.00000E+00  9.000E+00
      25     1     1     2     0     0 -2.309863138E+02 -6.804261389E+02 -4.768188641E+02  8.713871911E+02  1.250000000E+02  0.00000E+00  9.000E+00
      21     1     1     2   501   511  1.678827783E+02  5.280015072E+01 -1.225078438E+01  1.764158862E+02  2.826039694E-06  0.00000E+00  9.000E+00
#rwgt            1           1   3.1732256813849349E-002          10      224023           0
</event>
<event>
      5   9999  3.19816E-02  2.69665E+01 -1.00000E+00  1.56327E-01
      21    -1     0     0   502   501  0.000000000E+00  0.000000000E+00  4.025561889E+02  4.025561889E+02  0.000000000E+00  0.00000E+00  9.000E+00
      21    -1     0     0   512   502  0.000000000E+00  0.000000000E+00 -1.201948882E+02  1.201948882E+02  0.000000000E+00  0.00000E+00  9.000E+00
      25     1     1     2     0     0 -3.688061679E+01 -3.950905474E+01 -5.233009912E+01  1.458923733E+02  1.250000000E+02  0.00000E+00  9.000E+00
      25     1     1     2     0     0  1.010370285E+01  4.270104155E+01  3.195711670E+02  3.459424729E+02  1.250000000E+02  0.00000E+00  9.000E+00
      21     1     1     2   512   501  2.677691394E+01 -3.191986807E+00  1.512023287E+01  3.091623105E+01  5.591411304E-07  0.00000E+00  9.000E+00
#rwgt            1           1   2.5970273434928710E-002          10      224119           0
</event>
<event>
      5   9999  3.19816E-02  4.20313E+01 -1.00000E+00  1.43518E-01
      21    -1     0     0   511   501  0.000000000E+00  0.000000000E+00  1.482272549E+02  1.482272549E+02  0.000000000E+00  0.00000E+00  9.000E+00
      21    -1     0     0   501   502  0.000000000E+00  0.000000000E+00 -1.517999446E+03  1.517999446E+03  0.000000000E+00  0.00000E+00  9.000E+00
      25     1     1     2     0     0  2.663557694E+01  4.649379714E+01 -1.447547224E+03  1.453921969E+03  1.250000000E+02  0.00000E+00  9.000E+00
      25     1     1     2     0     0 -6.645222827E+01 -3.303036993E+01  2.956335691E+01  1.483438440E+02  1.250000000E+02  0.00000E+00  9.000E+00
      21     1     1     2   511   502  3.981665133E+01 -1.346342721E+01  4.821167531E+01  6.396088830E+01  1.507891493E-06  0.00000E+00  9.000E+00
#rwgt            1           1   2.6116604244088393E-002          10      224243           0
</event>
<event>
      5   9999  3.19816E-02  8.01122E+01 -1.00000E+00  1.28320E-01
      21    -1     0     0   512   501  0.000000000E+00  0.000000000E+00  1.056573022E+02  1.056573022E+02  0.000000000E+00  0.00000E+00  9.000E+00
      21    -1     0     0   501   502  0.000000000E+00  0.000000000E+00 -3.401817055E+03  3.401817055E+03  0.000000000E+00  0.00000E+00  9.000E+00
      25     1     1     2     0     0 -4.547880388E+02 -8.414327619E+01 -1.673059119E+03  1.740305740E+03  1.250000000E+02  0.00000E+00  9.000E+00
      25     1     1     2     0     0  4.628437594E+02  1.638494257E+02 -1.607628946E+03  1.685576105E+03  1.250000000E+02  0.00000E+00  9.000E+00
      21     1     1     2   512   502 -8.055720590E+00 -7.970614953E+01 -1.547168774E+01  8.159251209E+01  1.643186659E-06  0.00000E+00  9.000E+00
#rwgt            1           1   3.2303479233459526E-002          10      224335           0
</event>
<event>
      5   9999  3.19816E-02  5.35812E+02 -1.00000E+00  9.80060E-02
      21    -1     0     0   502   501  0.000000000E+00  0.000000000E+00  9.599160246E+02  9.599160246E+02  0.000000000E+00  0.00000E+00  9.000E+00
      21    -1     0     0   501   511  0.000000000E+00  0.000000000E+00 -1.295006072E+03  1.295006072E+03  0.000000000E+00  0.00000E+00  9.000E+00
      25     1     1     2     0     0 -3.070356493E+01 -5.806915351E+02  6.272004853E+02  8.643788617E+02  1.250000000E+02  0.00000E+00  9.000E+00
      25     1     1     2     0     0 -2.448434570E+02  1.211612821E+02 -7.610278711E+02  8.181789507E+02  1.250000000E+02  0.00000E+00  9.000E+00
      21     1     1     2   502   511  2.755470220E+02  4.595302530E+02 -2.012626614E+02  5.723642840E+02  1.009274029E-05  0.00000E+00  9.000E+00
#rwgt            2          11   2.6112774298765397E-003          10      224500           0
</event>
<event>
      5   9999  3.19816E-02  5.35111E+02 -1.00000E+00  9.80218E-02
       2    -1     0     0   502     0  0.000000000E+00  0.000000000E+00  2.440960510E+03  2.440960510E+03  0.000000000E+00  0.00000E+00  9.000E+00
      21    -1     0     0   501   502  0.000000000E+00  0.000000000E+00 -2.935136789E+02  2.935136789E+02  0.000000000E+00  0.00000E+00  9.000E+00
      25     1     1     2     0     0 -3.410463907E+02  1.324878454E+02  1.439285034E+03  1.490312746E+03  1.250000000E+02  0.00000E+00  9.000E+00
      25     1     1     2     0     0 -1.128744682E+02 -4.158596676E+02  4.952081410E+02  6.682335008E+02  1.250000000E+02  0.00000E+00  9.000E+00
       2     1     1     2   501     0  4.539208589E+02  2.833718222E+02  2.129536562E+02  5.759279429E+02  1.175768662E-05  0.00000E+00  9.000E+00
#rwgt            1           1   2.3819754188900824E-002          10      224535           0
</event>
<event>
      5   9999  3.19816E-02  2.42992E+02 -1.00000E+00  1.08654E-01
      21    -1     0     0   502   501  0.000000000E+00  0.000000000E+00  7.843113793E+02  7.843113793E+02  0.000000000E+00  0.00000E+00  9.000E+00
      21    -1     0     0   511   502  0.000000000E+00  0.000000000E+00 -1.029469583E+03  1.029469583E+03  0.000000000E+00  0.00000E+00  9.000E+00
      25     1     1     2     0     0  8.578166080E+01 -1.130098647E+02  6.535307770E+02  6.803360930E+02  1.250000000E+02  0.00000E+00  9.000E+00
      25     1     1     2     0     0 -2.573579192E+01  3.484657814E+02 -2.685474553E+02  4.580758317E+02  1.250000000E+02  0.00000E+00  9.000E+00
      21     1     1     2   511   501 -6.004586888E+01 -2.354559167E+02 -6.301415257E+02  6.753690380E+02  7.629394531E-06  0.00000E+00  9.000E+00
#rwgt            2          11   3.1214959493451521E-003          10      224619           0
</event>
<event>
      5   9999  3.19816E-02  2.18868E+02 -1.00000E+00  1.10241E-01
      21    -1     0     0   512   501  0.000000000E+00  0.000000000E+00  6.373953601E+02  6.373953601E+02  0.000000000E+00  0.00000E+00  9.000E+00
      21    -1     0     0   501   502  0.000000000E+00  0.000000000E+00 -1.088301205E+03  1.088301205E+03  0.000000000E+00  0.00000E+00  9.000E+00
      25     1     1     2     0     0  2.238412255E+02  4.836075583E+02  1.000726441E+02  5.564357095E+02  1.250000000E+02  0.00000E+00  9.000E+00
      25     1     1     2     0     0 -3.120805785E+01 -5.875102319E+02 -6.858087970E+02  9.121956596E+02  1.250000000E+02  0.00000E+00  9.000E+00
      21     1     1     2   512   502 -1.926331676E+02  1.039026736E+02  1.348303083E+02  2.570651958E+02  4.264961200E-06  0.00000E+00  9.000E+00
#rwgt            1           1   2.7794774268413178E-002          10      224639           0
</event>
<event>
      5   9999  3.19816E-02  1.86195E+01 -1.00000E+00  1.68973E-01
      21    -1     0     0   502   511  0.000000000E+00  0.000000000E+00  2.702533954E+02  2.702533954E+02  0.000000000E+00  0.00000E+00  9.000E+00
      21    -1     0     0   501   502  0.000000000E+00  0.000000000E+00 -1.141947139E+03  1.141947139E+03  0.000000000E+00  0.00000E+00  9.000E+00
      25     1     1     2     0     0  2.496411574E+02  4.540531354E+02 -5.232831463E+02  7.469506064E+02  1.250000000E+02  0.00000E+00  9.000E+00
      25     1     1     2     0     0 -2.679781887E+02 -4.508223462E+02 -3.549698834E+02  6.455088811E+02  1.250000000E+02  0.00000E+00  9.000E+00
      21     1     1     2   501   511  1.833703133E+01 -3.230789185E+00  6.559285729E+00  1.974104723E+01  2.384185791E-07  0.00000E+00  9.000E+00
#rwgt            1           1   2.4439633157701274E-002          10      224710           0
</event>
<event>
      5   9999  3.19816E-02  3.33458E+01 -1.00000E+00  1.49917E-01
      21    -1     0     0   502   501  0.000000000E+00  0.000000000E+00  5.977649806E+01  5.977649806E+01  0.000000000E+00  0.00000E+00  9.000E+00
       2    -1     0     0   501     0  0.000000000E+00  0.000000000E+00 -2.561335869E+03  2.561335869E+03  0.000000000E+00  0.00000E+00  9.000E+00
      25     1     1     2     0     0 -2.464240058E+02  6.005373275E+01 -5.032961419E+02  5.772895702E+02  1.250000000E+02  0.00000E+00  9.000E+00
      25     1     1     2     0     0  2.243114390E+02 -8.501322628E+01 -7.886230206E+02  8.337230589E+02  1.250000000E+02  0.00000E+00  9.000E+00
       2     1     1     2   502     0  2.211256678E+01  2.495949353E+01 -1.209640208E+03  1.210099738E+03  0.000000000E+00  0.00000E+00  9.000E+00
#rwgt            1           1   1.1930614753695884E-002          10      224925           0
</event>
<event>
      5   9999  3.19816E-02  5.00323E+01 -1.00000E+00  1.39060E-01
      21    -1     0     0   502   511  0.000000000E+00  0.000000000E+00  7.702189475E+02  7.702189475E+02  0.000000000E+00  0.00000E+00  9.000E+00
      21    -1     0     0   501   502  0.000000000E+00  0.000000000E+00 -2.272846510E+02  2.272846510E+02  0.000000000E+00  0.00000E+00  9.000E+00
      25     1     1     2     0     0 -1.668865084E+02  1.365745070E+02  4.809509511E+02  5.417033505E+02  1.250000000E+02  0.00000E+00  9.000E+00
      25     1     1     2     0     0  1.293921625E+02 -1.034473917E+02 -1.382815154E+02  2.493801758E+02  1.250000000E+02  0.00000E+00  9.000E+00
      21     1     1     2   501   511  3.749434587E+01 -3.312711530E+01  2.002648608E+02  2.064200722E+02  0.000000000E+00  0.00000E+00  9.000E+00
#rwgt            1           1   2.8782457322002748E-002          10      225031           0
</event>
<event>
      5   9999  3.19816E-02  2.77946E+01 -1.00000E+00  1.55379E-01
       2    -1     0     0   502     0  0.000000000E+00  0.000000000E+00  3.043571458E+03  3.043571458E+03  0.000000000E+00  0.00000E+00  9.000E+00
      21    -1     0     0   501   502  0.000000000E+00  0.000000000E+00 -1.154032606E+02  1.154032606E+02  0.000000000E+00  0.00000E+00  9.000E+00
      25     1     1     2     0     0 -1.919305768E+02  2.230906165E+02  1.783366639E+02  3.661089116E+02  1.250000000E+02  0.00000E+00  9.000E+00
      25     1     1     2     0     0  1.829781779E+02 -1.967772467E+02  1.004301870E+03  1.047114867E+03  1.250000000E+02  0.00000E+00  9.000E+00
       2     1     1     2   501     0  8.952398935E+00 -2.631336979E+01  1.745529664E+03  1.745750941E+03  3.051757812E-05  0.00000E+00  9.000E+00
#rwgt            1           1   2.9785405576793780E-002          10      225127           0
</event>
<event>
      5   9999  3.19816E-02  6.33591E+01 -1.00000E+00  1.33451E-01
      21    -1     0     0   502   501  0.000000000E+00  0.000000000E+00  1.959430744E+03  1.959430744E+03  0.000000000E+00  0.00000E+00  9.000E+00
      21    -1     0     0   511   502  0.000000000E+00  0.000000000E+00 -1.031903873E+02  1.031903873E+02  0.000000000E+00  0.00000E+00  9.000E+00
      25     1     1     2     0     0 -1.294861884E+02  1.382737742E+02  1.767826055E+03  1.782335622E+03  1.250000000E+02  0.00000E+00  9.000E+00
      25     1     1     2     0     0  8.484776954E+01 -9.330952735E+01  1.150204526E+02  2.115668131E+02  1.250000000E+02  0.00000E+00  9.000E+00
      21     1     1     2   511   501  4.463841891E+01 -4.496424682E+01 -2.660615076E+01  6.871869610E+01  2.078484985E-06  0.00000E+00  9.000E+00
#rwgt            1           1   2.6486065666193992E-002          10      225291           0
</event>
<event>
      5   9999  3.19816E-02  2.74724E+01 -1.00000E+00  1.55743E-01
      21    -1     0     0   502   501  0.000000000E+00  0.000000000E+00  3.949808285E+01  3.949808285E+01  0.000000000E+00  0.00000E+00  9.000E+00
      21    -1     0     0   512   502  0.000000000E+00  0.000000000E+00 -3.061860173E+03  3.061860173E+03  0.000000000E+00  0.00000E+00  9.000E+00
      25     1     1     2     0     0 -1.668176818E+02  7.947972711E+01 -1.327588408E+03  1.346202491E+03  1.250000000E+02  0.00000E+00  9.000E+00
      25     1     1     2     0     0  1.699334594E+02 -1.067748935E+02 -4.351793606E+02  4.952618847E+02  1.250000000E+02  0.00000E+00  9.000E+00
      21     1     1     2   512   501 -3.115777572E+00  2.729516643E+01 -1.259594321E+03  1.259893880E+03  2.157918644E-05  0.00000E+00  9.000E+00
#rwgt            1           1   2.8905685727233083E-002          10      225359           0
</event>
<event>
      5   9999  3.19816E-02  6.86550E+01 -1.00000E+00  1.31649E-01
      21    -1     0     0   502   501  0.000000000E+00  0.000000000E+00  1.009880011E+03  1.009880011E+03  0.000000000E+00  0.00000E+00  9.000E+00
      21    -1     0     0   501   511  0.000000000E+00  0.000000000E+00 -8.495778798E+02  8.495778798E+02  0.000000000E+00  0.00000E+00  9.000E+00
      25     1     1     2     0     0  1.699546078E+02 -6.327965797E+01 -1.734061374E+02  2.803276160E+02  1.250000000E+02  0.00000E+00  9.000E+00
      25     1     1     2     0     0 -2.295845595E+02  2.925358323E+01  9.363476394E+02  9.725927945E+02  1.250000000E+02  0.00000E+00  9.000E+00
      21     1     1     2   502   511  5.962995165E+01  3.402607474E+01 -6.026393703E+02  6.065374807E+02  7.629394531E-06  0.00000E+00  9.000E+00
#rwgt            2          11   5.7920516169309060E-003          10      225525           0
</event>
<event>
      5   9999  3.19816E-02  5.82229E+01 -1.00000E+00  1.35405E-01
      21    -1     0     0   502   501  0.000000000E+00  0.000000000E+00  5.036374742E+02  5.036374742E+02  0.000000000E+00  0.00000E+00  9.000E+00
       3    -1     0     0   501     0  0.000000000E+00  0.000000000E+00 -1.591327508E+03  1.591327508E+03  0.000000000E+00  0.00000E+00  9.000E+00
      25     1     1     2     0     0 -2.940506010E+02 -5.761173806E+02 -3.266784156E+02  7.353371876E+02  1.250000000E+02  0.00000E+00  9.000E+00
      25     1     1     2     0     0  3.487848200E+02  5.959687407E+02 -1.151363756E+02  7.111335849E+02  1.250000000E+02  0.00000E+00  9.000E+00
       3     1     1     2   502     0 -5.473421897E+01 -1.985136011E+01 -6.458752423E+02  6.484942096E+02  7.629394531E-06  0.00000E+00  9.000E+00
#rwgt            1           1   1.9030598572989773E-002          10      225545           0
</event>
<event>
      5   9999  3.19816E-02  2.58328E+01 -1.00000E+00  1.57692E-01
      21    -1     0     0   502   511  0.000000000E+00  0.000000000E+00  1.677183993E+02  1.677183993E+02  0.000000000E+00  0.00000E+00  9.000E+00
      21    -1     0     0   501   502  0.000000000E+00  0.000000000E+00 -4.484357657E+02  4.484357657E+02  0.000000000E+00  0.00000E+00  9.000E+00
      25     1     1     2     0     0 -2.177733755E+02 -9.269967813E+01 -1.219479567E+02  2.941339449E+02  1.250000000E+02  0.00000E+00  9.000E+00
      25     1     1     2     0     0  1.949273199E+02  1.047574146E+02 -1.472891562E+02  2.937513770E+02  1.250000000E+02  0.00000E+00  9.000E+00
      21     1     1     2   501   511  2.284605562E+01 -1.205773651E+01 -1.148025346E+01  2.826884304E+01  1.685873940E-07  0.00000E+00  9.000E+00
#rwgt            1           1   2.6280555305576332E-002          10      225717           0
</event>
<event>
      5   9999  3.19816E-02  4.69749E+02 -1.00000E+00  9.96282E-02
       2    -1     0     0   502     0  0.000000000E+00  0.000000000E+00  3.993583975E+03  3.993583975E+03  0.000000000E+00  0.00000E+00  9.000E+00
      21    -1     0     0   501   502  0.000000000E+00  0.000000000E+00 -4.686132504E+02  4.686132504E+02  0.000000000E+00  0.00000E+00  9.000E+00
      25     1     1     2     0     0 -6.034023996E+02  3.789863639E+02  1.009125360E+03  1.241645727E+03  1.250000000E+02  0.00000E+00  9.000E+00
      25     1     1     2     0     0  1.057508652E+03 -2.587730125E+02  6.028722373E+02  1.250746959E+03  1.250000000E+02  0.00000E+00  9.000E+00
       2     1     1     2   501     0 -4.541062519E+02 -1.202133514E+02  1.912973128E+03  1.969804540E+03  0.000000000E+00  0.00000E+00  9.000E+00
#rwgt            2          18   1.0193271697679493E-003          10      225837           0
</event>
<event>
      5   9999  3.19816E-02  9.84299E+01 -1.00000E+00  1.24138E-01
      21    -1     0     0   502   501  0.000000000E+00  0.000000000E+00  2.885801021E+02  2.885801021E+02  0.000000000E+00  0.00000E+00  9.000E+00
      21    -1     0     0   501   511  0.000000000E+00  0.000000000E+00 -2.306362598E+03  2.306362598E+03  0.000000000E+00  0.00000E+00  9.000E+00
      25     1     1     2     0     0 -6.196272254E+01  6.291135373E+02 -1.210343438E+03  1.371196361E+03  1.250000000E+02  0.00000E+00  9.000E+00
      25     1     1     2     0     0 -1.392131271E+01 -6.918037511E+02 -4.092465447E+02  8.135686617E+02  1.250000000E+02  0.00000E+00  9.000E+00
      21     1     1     2   502   511  7.588403524E+01  6.269021379E+01 -3.981925132E+02  4.101776777E+02  0.000000000E+00  0.00000E+00  9.000E+00
#rwgt            1           1   2.9116613181365780E-002          10      225901           0
</event>
<event>
      5   9999  3.19816E-02  4.43563E+01 -1.00000E+00  1.42110E-01
       1    -1     0     0   502     0  0.000000000E+00  0.000000000E+00  1.374566147E+02  1.374566147E+02  0.000000000E+00  0.00000E+00  9.000E+00
      21    -1     0     0   501   502  0.000000000E+00  0.000000000E+00 -3.738254439E+02  3.738254439E+02  0.000000000E+00  0.00000E+00  9.000E+00
      25     1     1     2     0     0 -1.134954269E+02  6.839258856E+00 -1.762824328E+02  2.441894419E+02  1.250000000E+02  0.00000E+00  9.000E+00
      25     1     1     2     0     0  1.570125400E+02  1.748148886E+00 -8.297737181E+01  2.171778948E+02  1.250000000E+02  0.00000E+00  9.000E+00
       1     1     1     2   501     0 -4.351711314E+01 -8.587407743E+00  2.289097544E+01  4.991472192E+01  8.259061849E-07  0.00000E+00  9.000E+00
#rwgt            1           1   2.6264217384038734E-002          10      225994           0
</event>
<event>
      5   9999  3.19816E-02  4.60760E+01 -1.00000E+00  1.41131E-01
      21    -1     0     0   502   501  0.000000000E+00  0.000000000E+00  3.081795892E+01  3.081795892E+01  0.000000000E+00  0.00000E+00  9.000E+00
      21    -1     0     0   501   511  0.000000000E+00  0.000000000E+00 -1.219545803E+03  1.219545803E+03  0.000000000E+00  0.00000E+00  9.000E+00
      25     1     1     2     0     0 -1.663103054E+01  4.678431771E+01 -7.424777339E+02  7.545618258E+02  1.250000000E+02  0.00000E+00  9.000E+00
      25     1     1     2     0     0  4.005554942E+01 -8.646169512E+01 -2.589649056E+02  3.029321609E+02  1.250000000E+02  0.00000E+00  9.000E+00
      21     1     1     2   502   511 -2.342451888E+01  3.967737741E+01 -1.872852049E+02  1.928697755E+02  2.697398305E-06  0.00000E+00  9.000E+00
#rwgt            1           1   3.3631716805503239E-002          10      226072           0
</event>
<event>
      5   9999  3.19816E-02  5.03751E+01 -1.00000E+00  1.38891E-01
      21    -1     0     0   502   501  0.000000000E+00  0.000000000E+00  2.715148116E+01  2.715148116E+01  0.000000000E+00  0.00000E+00  9.000E+00
      21    -1     0     0   512   502  0.000000000E+00  0.000000000E+00 -3.765649066E+03  3.765649066E+03  0.000000000E+00  0.00000E+00  9.000E+00
      25     1     1     2     0     0 -2.054513327E+02  1.664385408E+02 -1.960236489E+03  1.981934442E+03  1.250000000E+02  0.00000E+00  9.000E+00
      25     1     1     2     0     0  1.588450278E+02 -1.473203260E+02 -9.938953681E+02  1.024884395E+03  1.250000000E+02  0.00000E+00  9.000E+00
      21     1     1     2   512   501  4.660630483E+01 -1.911821476E+01 -7.843657278E+02  7.859817101E+02  1.078959322E-05  0.00000E+00  9.000E+00
#rwgt            1           1   2.9986112779117509E-002          10      226129           0
</event>
<event>
      5   9999  3.19816E-02  5.23248E+01 -1.00000E+00  1.37959E-01
      21    -1     0     0   502   511  0.000000000E+00  0.000000000E+00  1.515901813E+02  1.515901813E+02  0.000000000E+00  0.00000E+00  9.000E+00
      21    -1     0     0   501   502  0.000000000E+00  0.000000000E+00 -1.353145219E+03  1.353145219E+03  0.000000000E+00  0.00000E+00  9.000E+00
      25     1     1     2     0     0  2.257020187E+02  2.936420707E+02 -6.297581313E+02  7.412066992E+02  1.250000000E+02  0.00000E+00  9.000E+00
      25     1     1     2     0     0 -1.921989291E+02 -2.534496349E+02 -6.096755967E+02  6.989323851E+02  1.250000000E+02  0.00000E+00  9.000E+00
      21     1     1     2   501   511 -3.350308968E+01 -4.019243584E+01  3.787869009E+01  6.459631631E+01  1.581489940E-06  0.00000E+00  9.000E+00
#rwgt            1           1   3.1689212403692546E-002          10      226194           0
</event>
<event>
      5   9999  3.19816E-02  3.90819E+02 -1.00000E+00  1.01990E-01
      21    -1     0     0   502   501  0.000000000E+00  0.000000000E+00  4.913851454E+02  4.913851454E+02  0.000000000E+00  0.00000E+00  9.000E+00
       1    -1     0     0   501     0  0.000000000E+00  0.000000000E+00 -1.380594294E+03  1.380594294E+03  0.000000000E+00  0.00000E+00  9.000E+00
      25     1     1     2     0     0 -1.803873390E+02 -1.053458226E+01 -1.797494525E+02  2.838757389E+02  1.250000000E+02  0.00000E+00  9.000E+00
      25     1     1     2     0     0 -2.064742264E+02  6.601023016E+01  3.662673311E+02  4.435828158E+02  1.250000000E+02  0.00000E+00  9.000E+00
       1     1     1     2   502     0  3.868615653E+02 -5.547564790E+01 -1.075727028E+03  1.144520885E+03  1.525878906E-05  0.00000E+00  9.000E+00
#rwgt            2          12   1.0348008464687924E-003          10      227007           0
</event>
<event>
      5   9999  3.19816E-02  2.61726E+01 -1.00000E+00  1.57274E-01
      21    -1     0     0   502   511  0.000000000E+00  0.000000000E+00  2.515414040E+02  2.515414040E+02  0.000000000E+00  0.00000E+00  9.000E+00
      21    -1     0     0   501   502  0.000000000E+00  0.000000000E+00 -6.194173091E+02  6.194173091E+02  0.000000000E+00  0.00000E+00  9.000E+00
      25     1     1     2     0     0 -2.382556191E+02 -2.158996355E+02 -1.539296677E+02  3.777535377E+02  1.250000000E+02  0.00000E+00  9.000E+00
      25     1     1     2     0     0  2.554241586E+02  2.356543180E+02 -2.519380720E+02  4.470707444E+02  1.250000000E+02  0.00000E+00  9.000E+00
      21     1     1     2   501   511 -1.716853955E+01 -1.975468253E+01  3.799183456E+01  4.613443102E+01  0.000000000E+00  0.00000E+00  9.000E+00
#rwgt            1           1   2.5005188341047643E-002          10      227026           0
</event>
<event>
      5   9999  3.19816E-02  3.42198E+02 -1.00000E+00  1.03768E-01
      21    -1     0     0   512   501  0.000000000E+00  0.000000000E+00  6.816566986E+02  6.816566986E+02  0.000000000E+00  0.00000E+00  9.000E+00
      21    -1     0     0   501   502  0.000000000E+00  0.000000000E+00 -3.538884100E+02  3.538884100E+02  0.000000000E+00  0.00000E+00  9.000E+00
      25     1     1     2     0     0  2.111443120E+02  2.763908028E+02 -1.182518408E+01  3.697818699E+02  1.250000000E+02  0.00000E+00  9.000E+00
      25     1     1     2     0     0 -1.813065729E+02  6.450429581E+01  1.554057104E+02  2.771440282E+02  1.250000000E+02  0.00000E+00  9.000E+00
      21     1     1     2   512   502 -2.983773911E+01 -3.408950986E+02  1.841877623E+02  3.886192104E+02  4.672030912E-06  0.00000E+00  9.000E+00
#rwgt            1           1   2.9396755958901625E-002          10      227188           0
</event>
<event>
      5   9999  3.19816E-02  5.52788E+01 -1.00000E+00  1.36633E-01
      21    -1     0     0   511   501  0.000000000E+00  0.000000000E+00  3.252980807E+02  3.252980807E+02  0.000000000E+00  0.00000E+00  9.000E+00
      21    -1     0     0   501   502  0.000000000E+00  0.000000000E+00 -1.850056572E+03  1.850056572E+03  0.000000000E+00  0.00000E+00  9.000E+00
      25     1     1     2     0     0 -1.860150565E+02  6.308092236E+02 -1.068449385E+03  1.260845338E+03  1.250000000E+02  0.00000E+00  9.000E+00
      25     1     1     2     0     0  2.054292964E+02 -6.825666650E+02 -4.625480048E+02  8.588795636E+02  1.250000000E+02  0.00000E+00  9.000E+00
      21     1     1     2   511   502 -1.941423988E+01  5.175744137E+01  6.238897852E+00  5.562975187E+01  7.952251473E-07  0.00000E+00  9.000E+00
#rwgt            1           1   2.6950206052884486E-002          10      227258           0
</event>
<event>
      5   9999  3.19816E-02  3.20526E+02 -1.00000E+00  1.04666E-01
      21    -1     0     0   502   501  0.000000000E+00  0.000000000E+00  9.021796564E+02  9.021796564E+02  0.000000000E+00  0.00000E+00  9.000E+00
       3    -1     0     0   501     0  0.000000000E+00  0.000000000E+00 -3.208077872E+02  3.208077872E+02  0.000000000E+00  0.00000E+00  9.000E+00
      25     1     1     2     0     0 -5.657757309E+01 -1.129502679E+02  5.676621673E+02  5.948311701E+02  1.250000000E+02  0.00000E+00  9.000E+00
      25     1     1     2     0     0  1.244102929E+02 -2.003158270E+02 -1.043727683E+02  2.865711540E+02  1.250000000E+02  0.00000E+00  9.000E+00
       3     1     1     2   502     0 -6.783271986E+01  3.132660949E+02  1.180824702E+02  3.415851195E+02  4.046097457E-06  0.00000E+00  9.000E+00
#rwgt            2          14   3.5884736918170221E-005          10      227481           0
</event>
<event>
      5   9999  3.19816E-02  7.08559E+01 -1.00000E+00  1.30954E-01
      21    -1     0     0   511   501  0.000000000E+00  0.000000000E+00  6.228161624E+02  6.228161624E+02  0.000000000E+00  0.00000E+00  9.000E+00
      21    -1     0     0   501   502  0.000000000E+00  0.000000000E+00 -1.787542245E+02  1.787542245E+02  0.000000000E+00  0.00000E+00  9.000E+00
      25     1     1     2     0     0 -1.351632334E+02  7.237456456E+01  3.003857620E+02  3.596717716E+02  1.250000000E+02  0.00000E+00  9.000E+00
      25     1     1     2     0     0  9.672254914E+01 -1.285249142E+01 -1.004406500E+02  1.877065854E+02  1.250000000E+02  0.00000E+00  9.000E+00
      21     1     1     2   511   502  3.844068425E+01 -5.952207313E+01  2.441168259E+02  2.541920299E+02  3.814697266E-06  0.00000E+00  9.000E+00
#rwgt            1           1   2.9213090028961091E-002          10      227530           0
</event>
<event>
      5   9999  3.19816E-02  2.43053E+01 -1.00000E+00  1.59673E-01
       2    -1     0     0   502     0  0.000000000E+00  0.000000000E+00  1.518014980E+03  1.518014980E+03  0.000000000E+00  0.00000E+00  9.000E+00
      21    -1     0     0   501   502  0.000000000E+00  0.000000000E+00 -1.125037531E+02  1.125037531E+02  0.000000000E+00  0.00000E+00  9.000E+00
      25     1     1     2     0     0 -2.589286789E+01  1.794053504E+01  3.815584475E+02  4.027457663E+02  1.250000000E+02  0.00000E+00  9.000E+00
      25     1     1     2     0     0  2.147817295E+01 -4.184154851E+01 -5.795815064E+01  1.455890598E+02  1.250000000E+02  0.00000E+00  9.000E+00
       2     1     1     2   501     0  4.414694945E+00  2.390101348E+01  1.081910931E+03  1.082183908E+03  2.157918644E-05  0.00000E+00  9.000E+00
#rwgt            1           1   3.4924263147919091E-002          10      227621           0
</event>
<event>
      5   9999  3.19816E-02  2.89777E+01 -1.00000E+00  1.54093E-01
      21    -1     0     0   511   501  0.000000000E+00  0.000000000E+00  1.499533755E+02  1.499533755E+02  0.000000000E+00  0.00000E+00  9.000E+00
      21    -1     0     0   501   502  0.000000000E+00  0.000000000E+00 -2.867456784E+02  2.867456784E+02  0.000000000E+00  0.00000E+00  9.000E+00
      25     1     1     2     0     0  1.260470268E+02  5.832799290E+01 -5.131034563E+01  1.937724421E+02  1.250000000E+02  0.00000E+00  9.000E+00
      25     1     1     2     0     0 -9.821029108E+01 -6.637929409E+01 -1.104839684E+02  2.046538034E+02  1.250000000E+02  0.00000E+00  9.000E+00
      21     1     1     2   511   502 -2.783673577E+01  8.051301185E+00  2.500201111E+01  3.827280847E+01  5.840038640E-07  0.00000E+00  9.000E+00
#rwgt            1           1   2.6321791045010968E-002          10      227736           0
</event>
<event>
      5   9999  3.19816E-02  2.09455E+02 -1.00000E+00  1.10923E-01
      21    -1     0     0   502   501  0.000000000E+00  0.000000000E+00  1.980534682E+02  1.980534682E+02  0.000000000E+00  0.00000E+00  9.000E+00
      21    -1     0     0   512   502  0.000000000E+00  0.000000000E+00 -2.172485407E+03  2.172485407E+03  0.000000000E+00  0.00000E+00  9.000E+00
      25     1     1     2     0     0 -2.450436324E+02  1.994402992E+02 -8.594511310E+02  9.241775053E+02  1.250000000E+02  0.00000E+00  9.000E+00
      25     1     1     2     0     0  4.481726323E+02 -2.505298836E+02 -3.058672450E+02  6.105765328E+02  1.250000000E+02  0.00000E+00  9.000E+00
      21     1     1     2   512   501 -2.031289999E+02  5.108958440E+01 -8.091135630E+02  8.357848372E+02  1.078959322E-05  0.00000E+00  9.000E+00
#rwgt            1           1   2.9527666089792411E-002          10      227836           0
</event>
<event>
      5   9999  3.19816E-02  1.11861E+01 -1.00000E+00  1.90293E-01
      21    -1     0     0   502   501  0.000000000E+00  0.000000000E+00  4.913232074E+02  4.913232074E+02  0.000000000E+00  0.00000E+00  9.000E+00
      21    -1     0     0   511   502  0.000000000E+00  0.000000000E+00 -1.700253279E+03  1.700253279E+03  0.000000000E+00  0.00000E+00  9.000E+00
      25     1     1     2     0     0 -8.198262879E+02  3.598278786E+02 -5.265383632E+02  1.046163894E+03  1.250000000E+02  0.00000E+00  9.000E+00
      25     1     1     2     0     0  8.239501410E+02 -3.494296366E+02 -6.557714323E+02  1.116537540E+03  1.250000000E+02  0.00000E+00  9.000E+00
      21     1     1     2   511   501 -4.123853131E+00 -1.039824206E+01 -2.662027608E+01  2.887505327E+01  3.371747881E-07  0.00000E+00  9.000E+00
#rwgt            1           1   1.7006760347723960E-002          10      227912           0
</event>
<event>
      5   9999  3.19816E-02  2.71656E+01 -1.00000E+00  1.56095E-01
      21    -1     0     0   502   512  0.000000000E+00  0.000000000E+00  4.964900059E+01  4.964900059E+01  0.000000000E+00  0.00000E+00  9.000E+00
      21    -1     0     0   501   502  0.000000000E+00  0.000000000E+00 -1.534717193E+03  1.534717193E+03  0.000000000E+00  0.00000E+00  9.000E+00
      25     1     1     2     0     0  8.430872622E+01 -1.311745696E+02 -7.889461991E+02  8.138647517E+02  1.250000000E+02  0.00000E+00  9.000E+00
      25     1     1     2     0     0 -8.892244791E+01  1.044035971E+02 -7.141727266E+02  7.378854900E+02  1.250000000E+02  0.00000E+00  9.000E+00
      21     1     1     2   501   512  4.613721687E+00  2.677097251E+01  1.805073282E+01  3.261595242E+01  1.966049969E-06  0.00000E+00  9.000E+00
#rwgt            1           1   2.8675450350896785E-002          10      228203           0
</event>
<event>
      5   9999  3.19816E-02  6.77170E+01 -1.00000E+00  1.31954E-01
      21    -1     0     0   502   501  0.000000000E+00  0.000000000E+00  2.504356131E+02  2.504356131E+02  0.000000000E+00  0.00000E+00  9.000E+00
       2    -1     0     0   501     0  0.000000000E+00  0.000000000E+00 -1.290783241E+03  1.290783241E+03  0.000000000E+00  0.00000E+00  9.000E+00
      25     1     1     2     0     0  4.802411216E+01 -3.076803548E+02  7.754027093E+01  3.443994914E+02  1.250000000E+02  0.00000E+00  9.000E+00
      25     1     1     2     0     0  1.795484534E+01  3.229241351E+02 -8.018477237E+02  8.736058296E+02  1.250000000E+02  0.00000E+00  9.000E+00
       2     1     1     2   502     0 -6.597895750E+01 -1.524378033E+01 -3.160401756E+02  3.232135335E+02  3.814697266E-06  0.00000E+00  9.000E+00
#rwgt            1           1   3.0170016285431159E-002          10      228320           0
</event>
<event>
      5   9999  3.19816E-02  1.63962E+02 -1.00000E+00  1.14882E-01
      21    -1     0     0   502   501  0.000000000E+00  0.000000000E+00  2.570481037E+02  2.570481037E+02  0.000000000E+00  0.00000E+00  9.000E+00
      21    -1     0     0   511   502  0.000000000E+00  0.000000000E+00 -8.163942027E+02  8.163942027E+02  0.000000000E+00  0.00000E+00  9.000E+00
      25     1     1     2     0     0  5.653737348E+01  9.894409641E+01  1.119787711E+02  2.028562397E+02  1.250000000E+02  0.00000E+00  9.000E+00
      25     1     1     2     0     0 -9.560915833E+01  6.029467527E+01  1.095318106E+01  1.688831880E+02  1.250000000E+02  0.00000E+00  9.000E+00
      21     1     1     2   511   501  3.907178485E+01 -1.592387717E+02 -6.822780511E+02  7.017028786E+02  7.629394531E-06  0.00000E+00  9.000E+00
#rwgt            1           1   6.5267567333218549E-002          10      228441           0
</event>
<event>
      5   9999  3.19816E-02  7.79838E+01 -1.00000E+00  1.28888E-01
      21    -1     0     0   502   501  0.000000000E+00  0.000000000E+00  1.344188844E+03  1.344188844E+03  0.000000000E+00  0.00000E+00  9.000E+00
       2    -1     0     0   501     0  0.000000000E+00  0.000000000E+00 -2.440587581E+03  2.440587581E+03  0.000000000E+00  0.00000E+00  9.000E+00
      25     1     1     2     0     0 -3.485530129E+02  1.694182907E+02 -2.906696270E+02  5.003054987E+02  1.250000000E+02  0.00000E+00  9.000E+00
      25     1     1     2     0     0  3.263536777E+02 -9.466089246E+01  1.212158327E+03  1.265077159E+03  1.250000000E+02  0.00000E+00  9.000E+00
       2     1     1     2   502     0  2.219933513E+01 -7.475739821E+01 -2.017887437E+03  2.019393767E+03  2.157918644E-05  0.00000E+00  9.000E+00
#rwgt            1           1   3.0328095849017155E-002          10      228481           0
</event>
<event>
      5   9999  3.19816E-02  8.03480E+01 -1.00000E+00  1.28258E-01
      21    -1     0     0   502   501  0.000000000E+00  0.000000000E+00  5.276168951E+02  5.276168951E+02  0.000000000E+00  0.00000E+00  9.000E+00
      21    -1     0     0   511   502  0.000000000E+00  0.000000000E+00 -1.896025785E+02  1.896025785E+02  0.000000000E+00  0.00000E+00  9.000E+00
      25     1     1     2     0     0  1.494614219E+02 -2.549678290E+01  1.796014692E+02  2.662151204E+02  1.250000000E+02  0.00000E+00  9.000E+00
      25     1     1     2     0     0 -1.336953538E+02 -5.328917226E+01  2.594257338E+02  3.219330595E+02  1.250000000E+02  0.00000E+00  9.000E+00
      21     1     1     2   511   501 -1.576606816E+01  7.878595515E+01 -1.010128864E+02  1.290712937E+02  0.000000000E+00  0.00000E+00  9.000E+00
#rwgt            1           1   2.6755982148062029E-002          10      228589           0
</event>
<event>
      5   9999  3.19816E-02  4.34699E+01 -1.00000E+00  1.42635E-01
      21    -1     0     0   502   512  0.000000000E+00  0.000000000E+00  1.727991390E+02  1.727991390E+02  0.000000000E+00  0.00000E+00  9.000E+00
      21    -1     0     0   501   502  0.000000000E+00  0.000000000E+00 -2.291227962E+02  2.291227962E+02  0.000000000E+00  0.00000E+00  9.000E+00
      25     1     1     2     0     0  8.379040706E+01 -1.009918337E+02 -2.774844339E+01  1.833443724E+02  1.250000000E+02  0.00000E+00  9.000E+00
      25     1     1     2     0     0 -4.174223935E+01  1.120184964E+02 -2.719227308E+01  1.750856299E+02  1.250000000E+02  0.00000E+00  9.000E+00
      21     1     1     2   501   512 -4.204816771E+01 -1.102666273E+01 -1.382940790E+00  4.349193286E+01  6.142098858E-07  0.00000E+00  9.000E+00
#rwgt            1           1   2.6374991606246484E-002          10      228699           0
</event>
<event>
      5   9999  3.19816E-02  5.60933E+01 -1.00000E+00  1.36285E-01
      21    -1     0     0   502   501  0.000000000E+00  0.000000000E+00  2.083482483E+03  2.083482483E+03  0.000000000E+00  0.00000E+00  9.000E+00
      21    -1     0     0   511   502  0.000000000E+00  0.000000000E+00 -2.340057708E+02  2.340057708E+02  0.000000000E+00  0.00000E+00  9.000E+00
      25     1     1     2     0     0 -1.042765792E+02 -2.861633571E+02  1.318557247E+03  1.359036896E+03  1.250000000E+02  0.00000E+00  9.000E+00
      25     1     1     2     0     0  5.160429846E+01  3.054530545E+02  7.025299039E+02  7.779060599E+02  1.250000000E+02  0.00000E+00  9.000E+00
      21     1     1     2   511   501  5.267228070E+01 -1.928969746E+01 -1.716104391E+02  1.805452973E+02  9.147322699E-06  0.00000E+00  9.000E+00
#rwgt            2          11   3.8245724260412686E-002          10      228945           0
</event>
<event>
      5   9999  3.19816E-02  6.68217E+01 -1.00000E+00  1.32251E-01
       1    -1     0     0   502     0  0.000000000E+00  0.000000000E+00  1.391117950E+03  1.391117950E+03  0.000000000E+00  0.00000E+00  9.000E+00
      21    -1     0     0   501   502  0.000000000E+00  0.000000000E+00 -1.243877128E+02  1.243877128E+02  0.000000000E+00  0.00000E+00  9.000E+00
      25     1     1     2     0     0  1.323900380E+02 -6.287408216E+01  1.173509153E+02  2.255582180E+02  1.250000000E+02  0.00000E+00  9.000E+00
      25     1     1     2     0     0 -1.076557689E+02  1.249494451E+02  8.540606522E+01  2.238779230E+02  1.250000000E+02  0.00000E+00  9.000E+00
       1     1     1     2   501     0 -2.473426905E+01 -6.207536296E+01  1.063973257E+03  1.066069522E+03  1.525878906E-05  0.00000E+00  9.000E+00
#rwgt            1           1   2.6344112402550114E-002          10      228965           0
</event>
<event>
      5   9999  3.19816E-02  2.72941E+01 -1.00000E+00  1.55947E-01
      21    -1     0     0   502   501  0.000000000E+00  0.000000000E+00  1.016661925E+02  1.016661925E+02  0.000000000E+00  0.00000E+00  9.000E+00
       2    -1     0     0   501     0  0.000000000E+00  0.000000000E+00 -2.089096436E+03  2.089096436E+03  0.000000000E+00  0.00000E+00  9.000E+00
      25     1     1     2     0     0  1.381700324E+02  1.592945008E+02 -1.157291535E+03  1.182968466E+03  1.250000000E+02  0.00000E+00  9.000E+00
      25     1     1     2     0     0 -1.370404912E+02 -1.865651955E+02 -1.067875520E+02  2.839282474E+02  1.250000000E+02  0.00000E+00  9.000E+00
       2     1     1     2   502     0 -1.129541141E+00  2.727069464E+01 -7.233511569E+02  7.238659150E+02  0.000000000E+00  0.00000E+00  9.000E+00
#rwgt            1           1   3.1006832697167426E-002          10      229042           0
</event>
<event>
      5   9999  3.19816E-02  1.31351E+02 -1.00000E+00  1.18725E-01
      21    -1     0     0   502   501  0.000000000E+00  0.000000000E+00  2.090116009E+02  2.090116009E+02  0.000000000E+00  0.00000E+00  9.000E+00
      21    -1     0     0   501   511  0.000000000E+00  0.000000000E+00 -3.967858312E+02  3.967858312E+02  0.000000000E+00  0.00000E+00  9.000E+00
      25     1     1     2     0     0 -1.061936153E+01  1.694466641E+02 -8.744817038E+01  2.282479470E+02  1.250000000E+02  0.00000E+00  9.000E+00
      25     1     1     2     0     0  2.898487974E+01 -3.938571410E+01  7.863127837E+01  1.555610352E+02  1.250000000E+02  0.00000E+00  9.000E+00
      21     1     1     2   502   511 -1.836551820E+01 -1.300609500E+02 -1.789573383E+02  2.219884499E+02  3.303624740E-06  0.00000E+00  9.000E+00
#rwgt            1           1   2.7165299893247202E-002          10      229163           0
</event>
<event>
      5   9999  3.19816E-02  1.59516E+02 -1.00000E+00  1.15345E-01
      21    -1     0     0   502   501  0.000000000E+00  0.000000000E+00  3.686323682E+02  3.686323682E+02  0.000000000E+00  0.00000E+00  9.000E+00
       1    -1     0     0   501     0  0.000000000E+00  0.000000000E+00 -1.622251934E+03  1.622251934E+03  0.000000000E+00  0.00000E+00  9.000E+00
      25     1     1     2     0     0 -4.303118479E+01 -1.274065443E+02 -3.118586836E+02  3.618907970E+02  1.250000000E+02  0.00000E+00  9.000E+00
      25     1     1     2     0     0 -9.387655329E+01  4.554253006E+01  3.190155516E+02  3.581659552E+02  1.250000000E+02  0.00000E+00  9.000E+00
       1     1     1     2   502     0  1.369077381E+02  8.186401423E+01 -1.260776434E+03  1.270827550E+03  1.525878906E-05  0.00000E+00  9.000E+00
#rwgt            2          12   9.9938542136794139E-004          10      229521           0
</event>
<event>
      5   9999  3.19816E-02  2.95469E+01 -1.00000E+00  1.53500E-01
      21    -1     0     0   502   511  0.000000000E+00  0.000000000E+00  3.116266040E+03  3.116266040E+03  0.000000000E+00  0.00000E+00  9.000E+00
      21    -1     0     0   501   502  0.000000000E+00  0.000000000E+00 -5.130808707E+01  5.130808707E+01  0.000000000E+00  0.00000E+00  9.000E+00
      25     1     1     2     0     0  5.773048031E+01  1.085486284E+02  1.192978956E+02  2.120674444E+02  1.250000000E+02  0.00000E+00  9.000E+00
      25     1     1     2     0     0 -4.333422941E+01 -1.343510526E+02  2.824850022E+03  2.831135940E+03  1.250000000E+02  0.00000E+00  9.000E+00
      21     1     1     2   501   511 -1.439625091E+01  2.580242423E+01  1.208100353E+02  1.243707432E+02  0.000000000E+00  0.00000E+00  9.000E+00
#rwgt            1           1   4.8810178432673976E-002          10      229540           0
</event>
<event>
      5   9999  3.19816E-02  1.26985E+02 -1.00000E+00  1.19334E-01
      21    -1     0     0   502   501  0.000000000E+00  0.000000000E+00  9.561832718E+02  9.561832718E+02  0.000000000E+00  0.00000E+00  9.000E+00
      21    -1     0     0   512   502  0.000000000E+00  0.000000000E+00 -5.226763304E+02  5.226763304E+02  0.000000000E+00  0.00000E+00  9.000E+00
      25     1     1     2     0     0 -1.072580432E+02 -5.528267100E+02  1.321182942E+02  5.917785927E+02  1.250000000E+02  0.00000E+00  9.000E+00
      25     1     1     2     0     0  5.194524889E+01  4.385209752E+02  4.824882157E+02  6.658970137E+02  1.250000000E+02  0.00000E+00  9.000E+00
      21     1     1     2   512   501  5.531279435E+01  1.143057349E+02 -1.810995685E+02  2.211839957E+02  0.000000000E+00  0.00000E+00  9.000E+00
#rwgt            1           1   2.4857631755613757E-002          10      229661           0
</event>
<event>
      5   9999  3.19816E-02  2.45602E+02 -1.00000E+00  1.08494E-01
      21    -1     0     0   511   501  0.000000000E+00  0.000000000E+00  3.127843010E+02  3.127843010E+02  0.000000000E+00  0.00000E+00  9.000E+00
      21    -1     0     0   501   502  0.000000000E+00  0.000000000E+00 -1.711090337E+03  1.711090337E+03  0.000000000E+00  0.00000E+00  9.000E+00
      25     1     1     2     0     0 -9.952984920E+01  3.014280038E+02 -1.771563530E+02  3.844143673E+02  1.250000000E+02  0.00000E+00  9.000E+00
      25     1     1     2     0     0  1.863382163E+02 -7.167929337E+01 -1.344252383E+03  1.364734158E+03  1.250000000E+02  0.00000E+00  9.000E+00
      21     1     1     2   511   502 -8.680836708E+01 -2.297487104E+02  1.231026999E+02  2.747261132E+02  1.907348633E-06  0.00000E+00  9.000E+00
#rwgt            2          11   5.1715749401713825E-003          10      229753           0
</event>
<event>
      5   9999  3.19816E-02  3.93537E+01 -1.00000E+00  1.45280E-01
      21    -1     0     0   502   501  0.000000000E+00  0.000000000E+00  3.811989981E+02  3.811989981E+02  0.000000000E+00  0.00000E+00  9.000E+00
      21    -1     0     0   512   502  0.000000000E+00  0.000000000E+00 -4.126445151E+02  4.126445151E+02  0.000000000E+00  0.00000E+00  9.000E+00
      25     1     1     2     0     0 -1.794642437E+02 -1.519640603E+02  1.281431014E+02  2.955438120E+02  1.250000000E+02  0.00000E+00  9.000E+00
      25     1     1     2     0     0  1.894511686E+02  1.138987041E+02  7.154963880E+01  2.638351965E+02  1.250000000E+02  0.00000E+00  9.000E+00
      21     1     1     2   512   501 -9.986924925E+00  3.806535618E+01 -2.311382572E+02  2.344645047E+02  3.814697266E-06  0.00000E+00  9.000E+00
#rwgt            1           1   2.8933487249482102E-002          10      229773           0
</event>
<event>
      5   9999  3.19816E-02  4.19328E+02 -1.00000E+00  1.01073E-01
      21    -1     0     0   502   501  0.000000000E+00  0.000000000E+00  9.849456663E+01  9.849456663E+01  0.000000000E+00  0.00000E+00  9.000E+00
       1    -1     0     0   501     0  0.000000000E+00  0.000000000E+00 -3.439702692E+03  3.439702692E+03  0.000000000E+00  0.00000E+00  9.000E+00
      25     1     1     2     0     0  2.327381645E+02 -1.981784564E+02 -2.306228910E+03  2.329755038E+03  1.250000000E+02  0.00000E+00  9.000E+00
      25     1     1     2     0     0  1.392204480E+02  4.573056312E+00 -1.989635107E+02  2.731569596E+02  1.250000000E+02  0.00000E+00  9.000E+00
       1     1     1     2   502     0 -3.719586125E+02  1.936054001E+02 -8.360157054E+02  9.352852613E+02  1.868812365E-05  0.00000E+00  9.000E+00
#rwgt            2          12   1.0599550850993501E-003          10      229975           0
</event>
<event>
      5   9999  3.19816E-02  1.01629E+02 -1.00000E+00  1.23513E-01
      21    -1     0     0   511   501  0.000000000E+00  0.000000000E+00  1.833862193E+03  1.833862193E+03  0.000000000E+00  0.00000E+00  9.000E+00
      21    -1     0     0   501   502  0.000000000E+00  0.000000000E+00 -3.770168475E+01  3.770168475E+01  0.000000000E+00  0.00000E+00  9.000E+00
      25     1     1     2     0     0 -1.757257554E+02  3.838113254E+01  5.880239628E+02  6.274948871E+02  1.250000000E+02  0.00000E+00  9.000E+00
      25     1     1     2     0     0  9.929265334E+01 -1.053622738E+02  6.878052393E+02  7.139056569E+02  1.250000000E+02  0.00000E+00  9.000E+00
      21     1     1     2   511   502  7.643310202E+01  6.698114125E+01  5.203313063E+02  5.301633339E+02  1.078959322E-05  0.00000E+00  9.000E+00
#rwgt            1           1   3.0744817891356541E-002          10      230024           0
</event>
<event>
      5   9999  3.19816E-02  4.09192E+01 -1.00000E+00  1.44231E-01
      21    -1     0     0   502   501  0.000000000E+00  0.000000000E+00  5.725381893E+02  5.725381893E+02  0.000000000E+00  0.00000E+00  9.000E+00
       2    -1     0     0   501     0  0.000000000E+00  0.000000000E+00 -1.976133978E+03  1.976133978E+03  0.000000000E+00  0.00000E+00  9.000E+00
      25     1     1     2     0     0 -8.103951246E+01  3.118897146E+02 -3.205693323E+02  4.714152029E+02  1.250000000E+02  0.00000E+00  9.000E+00
      25     1     1     2     0     0  4.210059182E+01 -3.244650587E+02  4.351118866E+02  5.585672636E+02  1.250000000E+02  0.00000E+00  9.000E+00
       2     1     1     2   502     0  3.893892064E+01  1.257534414E+01 -1.518138343E+03  1.518689701E+03  0.000000000E+00  0.00000E+00  9.000E+00
#rwgt            1           1   2.9907023631735207E-002          10      230082           0
</event>
<event>
      5   9999  3.19816E-02  4.17016E+01 -1.00000E+00  1.43727E-01
      21    -1     0     0   502   501  0.000000000E+00  0.000000000E+00  6.923829207E+02  6.923829207E+02  0.000000000E+00  0.00000E+00  9.000E+00
       3    -1     0     0   501     0  0.000000000E+00  0.000000000E+00 -2.345375618E+02  2.345375618E+02  0.000000000E+00  0.00000E+00  9.000E+00
      25     1     1     2     0     0 -2.323769157E+02 -1.343274333E+02  4.527688001E+02  5.409875014E+02  1.250000000E+02  0.00000E+00  9.000E+00
      25     1     1     2     0     0  2.453872595E+02  9.470735238E+01  7.839240551E+01  3.015870669E+02  1.250000000E+02  0.00000E+00  9.000E+00
       3     1     1     2   502     0 -1.301034378E+01  3.962008092E+01 -7.331584672E+01  8.434591417E+01  1.348699152E-06  0.00000E+00  9.000E+00
#rwgt            1           1   2.7332650328216555E-002          10      230238           0
</event>
<event>
      5   9999  3.19816E-02  6.53649E+02 -1.00000E+00  9.56547E-02
      21    -1     0     0   502   501  0.000000000E+00  0.000000000E+00  9.434263305E+02  9.434263305E+02  0.000000000E+00  0.00000E+00  9.000E+00
       2    -1     0     0   501     0  0.000000000E+00  0.000000000E+00 -1.117127948E+03  1.117127948E+03  0.000000000E+00  0.00000E+00  9.000E+00
      25     1     1     2     0     0 -6.933208188E+01  1.942344186E+02  4.655037556E+02  5.242639539E+02  1.250000000E+02  0.00000E+00  9.000E+00
      25     1     1     2     0     0 -5.842524192E+02 -2.034315706E+02 -1.330308366E+01  6.312980796E+02  1.250000000E+02  0.00000E+00  9.000E+00
       2     1     1     2   502     0  6.535845011E+02  9.197151995E+00 -6.259022899E+02  9.049922454E+02  1.525878906E-05  0.00000E+00  9.000E+00
#rwgt            2          13   9.7940727333682871E-004          10      230438           0
</event>
<event>
      5   9999  3.19816E-02  4.88571E+02 -1.00000E+00  9.91381E-02
      21    -1     0     0   502   511  0.000000000E+00  0.000000000E+00  9.067914473E+02  9.067914473E+02  0.000000000E+00  0.00000E+00  9.000E+00
      21    -1     0     0   501   502  0.000000000E+00  0.000000000E+00 -1.373538751E+03  1.373538751E+03  0.000000000E+00  0.00000E+00  9.000E+00
      25     1     1     2     0     0  6.740242110E+01 -6.549263534E+02 -2.054592317E+02  7.009351687E+02  1.250000000E+02  0.00000E+00  9.000E+00
      25     1     1     2     0     0  4.211668008E+02  6.562740351E+02 -5.940823455E+02  9.882489142E+02  1.250000000E+02  0.00000E+00  9.000E+00
      21     1     1     2   501   511 -4.885692219E+02 -1.347681630E+00  3.327942738E+02  5.911461151E+02  5.394796609E-06  0.00000E+00  9.000E+00
#rwgt            1           1   3.0409669592435584E-002          10      230457           0
</event>
<event>
      5   9999  3.19816E-02  4.47632E+02 -1.00000E+00  1.00236E-01
       2    -1     0     0   502     0  0.000000000E+00  0.000000000E+00  1.226549411E+03  1.226549411E+03  0.000000000E+00  0.00000E+00  9.000E+00
      21    -1     0     0   501   502  0.000000000E+00  0.000000000E+00 -2.009622596E+03  2.009622596E+03  0.000000000E+00  0.00000E+00  9.000E+00
      25     1     1     2     0     0  2.040288628E+02 -2.039060366E+02 -6.507165651E+02  7.226773116E+02  1.250000000E+02  0.00000E+00  9.000E+00
      25     1     1     2     0     0 -6.309104871E+02  3.386163828E+02 -1.173401447E+03  1.380291656E+03  1.250000000E+02  0.00000E+00  9.000E+00
       2     1     1     2   501     0  4.268816243E+02 -1.347103462E+02  1.041044828E+03  1.133203041E+03  1.525878906E-05  0.00000E+00  9.000E+00
#rwgt            1           1   3.0834921021391459E-002          10      230512           0
</event>
<event>
      5   9999  3.19816E-02  9.11283E+01 -1.00000E+00  1.25670E-01
      21    -1     0     0   502   511  0.000000000E+00  0.000000000E+00  1.111443338E+03  1.111443338E+03  0.000000000E+00  0.00000E+00  9.000E+00
      21    -1     0     0   501   502  0.000000000E+00  0.000000000E+00 -8.144936929E+01  8.144936929E+01  0.000000000E+00  0.00000E+00  9.000E+00
      25     1     1     2     0     0 -1.657524422E+02  5.748458387E+01  7.253366384E+02  7.566482594E+02  1.250000000E+02  0.00000E+00  9.000E+00
      25     1     1     2     0     0  7.606149378E+01 -4.136286873E+01  4.129888555E+01  1.575653379E+02  1.250000000E+02  0.00000E+00  9.000E+00
      21     1     1     2   501   511  8.969094846E+01 -1.612171514E+01  2.633584451E+02  2.786791103E+02  3.814697266E-06  0.00000E+00  9.000E+00
#rwgt            1           1   3.2830970383846074E-002          10      230584           0
</event>
<event>
      5   9999  3.19816E-02  4.75887E+01 -1.00000E+00  1.40311E-01
      21    -1     0     0   502   501  0.000000000E+00  0.000000000E+00  1.051578673E+02  1.051578673E+02  0.000000000E+00  0.00000E+00  9.000E+00
      21    -1     0     0   501   512  0.000000000E+00  0.000000000E+00 -9.394685594E+02  9.394685594E+02  0.000000000E+00  0.00000E+00  9.000E+00
      25     1     1     2     0     0 -2.515838675E+01 -2.367898774E+02 -2.530954345E+02  3.693029778E+02  1.250000000E+02  0.00000E+00  9.000E+00
      25     1     1     2     0     0 -1.039509055E+01  2.684226979E+02 -4.996787361E+02  5.809153483E+02  1.250000000E+02  0.00000E+00  9.000E+00
      21     1     1     2   502   512  3.555347729E+01 -3.163282048E+01 -8.153652159E+01  9.440810046E+01  9.536743164E-07  0.00000E+00  9.000E+00
#rwgt            1           1   2.8753404567115521E-002          10      230688           0
</event>
<event>
      5   9999  3.19816E-02  5.81609E+01 -1.00000E+00  1.35430E-01
      21    -1     0     0   502   501  0.000000000E+00  0.000000000E+00  5.320453037E+02  5.320453037E+02  0.000000000E+00  0.00000E+00  9.000E+00
      -1    -1     0     0     0   502  0.000000000E+00  0.000000000E+00 -6.025340374E+02  6.025340374E+02  0.000000000E+00  0.00000E+00  9.000E+00
      25     1     1     2     0     0  2.555964884E+02 -8.641727215E+01  1.076055231E+02  3.162300719E+02  1.250000000E+02  0.00000E+00  9.000E+00
      25     1     1     2     0     0 -2.716471066E+02  1.423196109E+02  2.318751997E+02  4.042748204E+02  1.250000000E+02  0.00000E+00  9.000E+00
      -1     1     1     2     0   501  1.605061820E+01 -5.590233873E+01 -4.099694566E+02  4.140744488E+02  5.394796609E-06  0.00000E+00  9.000E+00
#rwgt            1           1   3.0147115076150893E-002          10      230778           0
</event>
<event>
      5   9999  3.19816E-02  1.02497E+02 -1.00000E+00  1.23348E-01
       2    -1     0     0   502     0  0.000000000E+00  0.000000000E+00  9.581034666E+02  9.581034666E+02  0.000000000E+00  0.00000E+00  9.000E+00
      21    -1     0     0   501   502  0.000000000E+00  0.000000000E+00 -2.281024955E+02  2.281024955E+02  0.000000000E+00  0.00000E+00  9.000E+00
      25     1     1     2     0     0  9.836703853E+01 -2.990141798E+02  9.064596703E+01  3.506098192E+02  1.250000000E+02  0.00000E+00  9.000E+00
      25     1     1     2     0     0 -1.460064881E+02  2.082613063E+02  1.226136058E+02  3.087875687E+02  1.250000000E+02  0.00000E+00  9.000E+00
       2     1     1     2   501     0  4.763944954E+01  9.075287351E+01  5.167413982E+02  5.268085742E+02  7.629394531E-06  0.00000E+00  9.000E+00
#rwgt            1           1   2.8248346783730734E-002          10      230914           0
</event>
<event>
      5   9999  3.19816E-02  9.29999E+01 -1.00000E+00  1.25262E-01
      21    -1     0     0   502   501  0.000000000E+00  0.000000000E+00  2.272117392E+03  2.272117392E+03  0.000000000E+00  0.00000E+00  9.000E+00
      21    -1     0     0   511   502  0.000000000E+00  0.000000000E+00 -6.239738994E+01  6.239738994E+01  0.000000000E+00  0.00000E+00  9.000E+00
      25     1     1     2     0     0 -1.011432685E+02 -1.941902682E+02  1.847835272E+03  1.864955767E+03  1.250000000E+02  0.00000E+00  9.000E+00
      25     1     1     2     0     0  4.844602898E+01  1.175614251E+02  1.328263590E+02  2.223410624E+02  1.250000000E+02  0.00000E+00  9.000E+00
      21     1     1     2   511   501  5.269723948E+01  7.662884312E+01  2.290583717E+02  2.472179531E+02  3.814697266E-06  0.00000E+00  9.000E+00
#rwgt            1           1   2.2891061939361596E-002          10      230993           0
</event>
<event>
      5   9999  3.19816E-02  1.34817E+01 -1.00000E+00  1.81864E-01
      21    -1     0     0   502   512  0.000000000E+00  0.000000000E+00  9.346284115E+02  9.346284115E+02  0.000000000E+00  0.00000E+00  9.000E+00
      21    -1     0     0   501   502  0.000000000E+00  0.000000000E+00 -1.261050400E+02  1.261050400E+02  0.000000000E+00  0.00000E+00  9.000E+00
      25     1     1     2     0     0  1.706686025E+02  7.417620956E+01  2.203868974E+02  3.143648620E+02  1.250000000E+02  0.00000E+00  9.000E+00
      25     1     1     2     0     0 -1.830566284E+02 -7.949543258E+01  9.641191833E+01  2.544592522E+02  1.250000000E+02  0.00000E+00  9.000E+00
      21     1     1     2   501   512  1.238802599E+01  5.319223019E+00  4.917245558E+02  4.919093373E+02  5.394796609E-06  0.00000E+00  9.000E+00
#rwgt            2          11   6.4028968369841954E-004          10      231108           0
</event>
<event>
      5   9999  3.19816E-02  8.53311E+01 -1.00000E+00  1.27008E-01
      -3    -1     0     0     0   501  0.000000000E+00  0.000000000E+00  1.241021353E+03  1.241021353E+03  0.000000000E+00  0.00000E+00  9.000E+00
      21    -1     0     0   501   502  0.000000000E+00  0.000000000E+00 -3.609510908E+02  3.609510908E+02  0.000000000E+00  0.00000E+00  9.000E+00
      25     1     1     2     0     0  1.123360978E+02 -4.594004176E+02  5.506269968E+01  4.922652166E+02  1.250000000E+02  0.00000E+00  9.000E+00
      25     1     1     2     0     0 -1.972901156E+02  4.674136248E+02  3.542583306E+02  6.312866633E+02  1.250000000E+02  0.00000E+00  9.000E+00
      -3     1     1     2     0   502  8.495401775E+01 -8.013207197E+00  4.707492317E+02  4.784205637E+02  7.629394531E-06  0.00000E+00  9.000E+00
#rwgt            1           1   3.1727504463722619E-002          10      231128           0
</event>
<event>
      5   9999  3.19816E-02  2.39760E+01 -1.00000E+00  1.60123E-01
      21    -1     0     0   502   511  0.000000000E+00  0.000000000E+00  1.450196129E+03  1.450196129E+03  0.000000000E+00  0.00000E+00  9.000E+00
      21    -1     0     0   501   502  0.000000000E+00  0.000000000E+00 -1.109321786E+02  1.109321786E+02  0.000000000E+00  0.00000E+00  9.000E+00
      25     1     1     2     0     0  5.576467267E+01  3.355141382E+02  4.099269950E+02  5.471239136E+02  1.250000000E+02  0.00000E+00  9.000E+00
      25     1     1     2     0     0 -3.300287641E+01 -3.279808897E+02  7.034302255E+02  7.868289115E+02  1.250000000E+02  0.00000E+00  9.000E+00
      21     1     1     2   501   511 -2.276179625E+01 -7.533248505E+00  2.259067303E+02  2.271754828E+02  2.697398305E-06  0.00000E+00  9.000E+00
#rwgt            1           1   2.9108945299077187E-002          10      231209           0
</event>
<event>
      5   9999  3.19816E-02  1.30344E+01 -1.00000E+00  1.83330E-01
      21    -1     0     0   512   501  0.000000000E+00  0.000000000E+00  1.002702548E+02  1.002702548E+02  0.000000000E+00  0.00000E+00  9.000E+00
      21    -1     0     0   501   502  0.000000000E+00  0.000000000E+00 -3.837957267E+02  3.837957267E+02  0.000000000E+00  0.00000E+00  9.000E+00
      25     1     1     2     0     0 -1.033499023E+02  4.467891641E+01 -4.353395128E+01  1.737746034E+02  1.250000000E+02  0.00000E+00  9.000E+00
      25     1     1     2     0     0  9.071240567E+01 -4.787092506E+01 -2.472075417E+02  2.953928480E+02  1.250000000E+02  0.00000E+00  9.000E+00
      21     1     1     2   512   502  1.263749664E+01  3.192008647E+00  7.216021037E+00  1.489853013E+01  2.795705652E-07  0.00000E+00  9.000E+00
#rwgt            1           1   2.5992493101083675E-002          10      231396           0
</event>
<event>
      5   9999  3.19816E-02  1.81250E+02 -1.00000E+00  1.13227E-01
      21    -1     0     0   511   501  0.000000000E+00  0.000000000E+00  2.387286323E+02  2.387286323E+02  0.000000000E+00  0.00000E+00  9.000E+00
      21    -1     0     0   501   502  0.000000000E+00  0.000000000E+00 -5.139227871E+02  5.139227871E+02  0.000000000E+00  0.00000E+00  9.000E+00
      25     1     1     2     0     0  9.414054511E+01 -7.026633262E+01 -2.541558370E+02  3.066267914E+02  1.250000000E+02  0.00000E+00  9.000E+00
      25     1     1     2     0     0  4.403084446E+01  1.875696292E+02 -9.724685668E+01  2.494053572E+02  1.250000000E+02  0.00000E+00  9.000E+00
      21     1     1     2   511   502 -1.381713896E+02 -1.173032965E+02  7.620853892E+01  1.966192709E+02  3.693564745E-06  0.00000E+00  9.000E+00
#rwgt            2          11   4.0523944879091809E-003          10      231628           0
</event>
<event>
      5   9999  3.19816E-02  2.61762E+01 -1.00000E+00  1.57270E-01
      21    -1     0     0   502   501  0.000000000E+00  0.000000000E+00  2.177389575E+02  2.177389575E+02  0.000000000E+00  0.00000E+00  9.000E+00
      21    -1     0     0   501   512  0.000000000E+00  0.000000000E+00 -2.044936799E+02  2.044936799E+02  0.000000000E+00  0.00000E+00  9.000E+00
      25     1     1     2     0     0 -3.416008026E+01 -1.083149389E+02 -2.743972863E+01  1.711051600E+02  1.250000000E+02  0.00000E+00  9.000E+00
      25     1     1     2     0     0  1.794925163E+01  8.776245927E+01  1.019477098E+02  1.845068032E+02  1.250000000E+02  0.00000E+00  9.000E+00
      21     1     1     2   502   512  1.621082863E+01  2.055247967E+01 -6.126270353E+01  6.662067419E+01  0.000000000E+00  0.00000E+00  9.000E+00
#rwgt            1           1   2.6398631933644997E-002          10      231648           0
</event>
<event>
      5   9999  3.46696E-02  7.74782E+01 -1.00000E+00  1.29026E-01
      21    -1     0     0   502   501  0.000000000E+00  0.000000000E+00  5.773528019E+02  5.773528019E+02  0.000000000E+00  0.00000E+00  9.000E+00
      21    -1     0     0   511   502  0.000000000E+00  0.000000000E+00 -4.579463072E+02  4.579463072E+02  0.000000000E+00  0.00000E+00  9.000E+00
      25     1     1     2     0     0 -3.529177521E+02  1.996601989E+02  1.568500109E+02  4.523738064E+02  1.250000000E+02  0.00000E+00  9.000E+00
      25     1     1     2     0     0  2.781049720E+02 -1.795126135E+02  1.467879460E+02  3.830650793E+02  1.250000000E+02  0.00000E+00  9.000E+00
      21     1     1     2   511   501  7.481278014E+01 -2.014758542E+01 -1.842314622E+02  1.998602235E+02  2.697398305E-06  0.00000E+00  9.000E+00
#rwgt            1           1   3.4989629773341809E-002          10      231754           0
</event>
<event>
      5   9999  3.19816E-02  5.65524E+02 -1.00000E+00  9.73560E-02
      21    -1     0     0   502   501  0.000000000E+00  0.000000000E+00  3.681595810E+02  3.681595810E+02  0.000000000E+00  0.00000E+00  9.000E+00
       2    -1     0     0   501     0  0.000000000E+00  0.000000000E+00 -1.969219853E+03  1.969219853E+03  0.000000000E+00  0.00000E+00  9.000E+00
      25     1     1     2     0     0 -2.995709111E+02  1.380950256E+02 -8.326615299E+02  9.043025989E+02  1.250000000E+02  0.00000E+00  9.000E+00
      25     1     1     2     0     0 -2.559673229E+02 -3.228884397E+01  1.730269706E+02  3.348509705E+02  1.250000000E+02  0.00000E+00  9.000E+00
       2     1     1     2   502     0  5.555382340E+02 -1.058061816E+02 -9.414257129E+02  1.098225865E+03  2.157918644E-05  0.00000E+00  9.000E+00
#rwgt            2          13   1.1714942794308553E-003          10      231930           0
</event>
<event>
      5   9999  3.19816E-02  4.15985E+01 -1.00000E+00  1.43793E-01
      21    -1     0     0   511   501  0.000000000E+00  0.000000000E+00  4.295204653E+03  4.295204653E+03  0.000000000E+00  0.00000E+00  9.000E+00
      21    -1     0     0   501   502  0.000000000E+00  0.000000000E+00 -3.064015499E+01  3.064015499E+01  0.000000000E+00  0.00000E+00  9.000E+00
      25     1     1     2     0     0 -1.486630607E+02  1.014434601E+02  4.502878141E+02  5.007749961E+02  1.250000000E+02  0.00000E+00  9.000E+00
      25     1     1     2     0     0  1.536777698E+02 -1.427385568E+02  3.378909758E+03  3.387720075E+03  1.250000000E+02  0.00000E+00  9.000E+00
      21     1     1     2   511   502 -5.014709090E+00  4.129509678E+01  4.353669252E+02  4.373497363E+02  5.394796609E-06  0.00000E+00  9.000E+00
#rwgt            1           1   8.1982858784583768E-003          10      231949           0
</event>
<event>
      5   9999  3.19816E-02  2.12050E+01 -1.00000E+00  1.64300E-01
       1    -1     0     0   502     0  0.000000000E+00  0.000000000E+00  7.082726248E+02  7.082726248E+02  0.000000000E+00  0.00000E+00  9.000E+00
      21    -1     0     0   501   502  0.000000000E+00  0.000000000E+00 -1.312573675E+02  1.312573675E+02  0.000000000E+00  0.00000E+00  9.000E+00
      25     1     1     2     0     0  4.204439368E+01 -7.798253431E+00 -8.447950009E+01  1.568130407E+02  1.250000000E+02  0.00000E+00  9.000E+00
      25     1     1     2     0     0 -6.047999664E+01 -2.679333652E+00  4.711532641E+02  4.911979307E+02  1.250000000E+02  0.00000E+00  9.000E+00
       1     1     1     2   501     0  1.843560295E+01  1.047758708E+01  1.903414933E+02  1.915190209E+02  0.000000000E+00  0.00000E+00  9.000E+00
#rwgt            1           1   3.0575831661941388E-002          10      232085           0
</event>
<event>
      5   9999  3.19816E-02  1.10420E+02 -1.00000E+00  1.21922E-01
       2    -1     0     0   502     0  0.000000000E+00  0.000000000E+00  1.803969579E+03  1.803969579E+03  0.000000000E+00  0.00000E+00  9.000E+00
      21    -1     0     0   501   502  0.000000000E+00  0.000000000E+00 -1.485779171E+03  1.485779171E+03  0.000000000E+00  0.00000E+00  9.000E+00
      25     1     1     2     0     0  2.976590598E+01 -8.505577293E+01  2.405101938E+02  2.856407656E+02  1.250000000E+02  0.00000E+00  9.000E+00
      25     1     1     2     0     0  4.940476108E+01  8.084095435E+00 -1.458129682E+03  1.464333758E+03  1.250000000E+02  0.00000E+00  9.000E+00
       2     1     1     2   501     0 -7.917066706E+01  7.697167749E+01  1.535809897E+03  1.539774228E+03  2.157918644E-05  0.00000E+00  9.000E+00
#rwgt            1           1   2.9527666022714557E-002          10      232240           0
</event>
<event>
      5   9999  3.19816E-02  1.60096E+02 -1.00000E+00  1.15283E-01
      21    -1     0     0   502   511  0.000000000E+00  0.000000000E+00  3.645415949E+02  3.645415949E+02  0.000000000E+00  0.00000E+00  9.000E+00
      21    -1     0     0   501   502  0.000000000E+00  0.000000000E+00 -6.319847009E+02  6.319847009E+02  0.000000000E+00  0.00000E+00  9.000E+00
      25     1     1     2     0     0 -9.604840144E+01 -2.018984846E+01  7.838514810E+01  1.772065372E+02  1.250000000E+02  0.00000E+00  9.000E+00
      25     1     1     2     0     0  1.488612004E+02 -1.309442879E+02 -5.274691143E+02  5.771955734E+02  1.250000000E+02  0.00000E+00  9.000E+00
      21     1     1     2   501   511 -5.281279891E+01  1.511341363E+02  1.816408602E+02  2.421241850E+02  2.697398305E-06  0.00000E+00  9.000E+00
#rwgt            1           1   2.7925620334695180E-002          10      232305           0
</event>
<event>
      5   9999  3.19816E-02  7.34701E+01 -1.00000E+00  1.30165E-01
      21    -1     0     0   502   512  0.000000000E+00  0.000000000E+00  1.084968000E+03  1.084968000E+03  0.000000000E+00  0.00000E+00  9.000E+00
      21    -1     0     0   501   502  0.000000000E+00  0.000000000E+00 -1.273870190E+02  1.273870190E+02  0.000000000E+00  0.00000E+00  9.000E+00
      25     1     1     2     0     0  1.232374833E+02  6.677624199E+01 -2.913061088E+01  1.900529828E+02  1.250000000E+02  0.00000E+00  9.000E+00
      25     1     1     2     0     0 -1.401433119E+02  4.722373792E+00  6.016392972E+02  6.302835018E+02  1.250000000E+02  0.00000E+00  9.000E+00
      21     1     1     2   501   512  1.690582859E+01 -7.149861579E+01  3.850722947E+02  3.920185343E+02  5.394796609E-06  0.00000E+00  9.000E+00
#rwgt            1           1   2.8220123574467626E-002          10      232351           0
</event>
<event>
      5   9999  3.19816E-02  2.55365E+01 -1.00000E+00  1.58063E-01
      21    -1     0     0   502   501  0.000000000E+00  0.000000000E+00  1.091621025E+03  1.091621025E+03  0.000000000E+00  0.00000E+00  9.000E+00
      21    -1     0     0   511   502  0.000000000E+00  0.000000000E+00 -5.365060408E+01  5.365060408E+01  0.000000000E+00  0.00000E+00  9.000E+00
      25     1     1     2     0     0 -1.037492011E+01 -1.702062520E+02  3.351018656E+02  3.962272927E+02  1.250000000E+02  0.00000E+00  9.000E+00
      25     1     1     2     0     0 -1.471951703E+01  1.654752351E+02  6.896165699E+02  7.202740667E+02  1.250000000E+02  0.00000E+00  9.000E+00
      21     1     1     2   511   501  2.509443714E+01  4.731016859E+00  1.325198530E+01  2.877026955E+01  1.685873940E-07  0.00000E+00  9.000E+00
#rwgt            2          11   1.8535908800409752E-003          10      232487           0
</event>
<event>
      5   9999  3.19816E-02  3.06481E+01 -1.00000E+00  1.52398E-01
      21    -1     0     0   512   501  0.000000000E+00  0.000000000E+00  1.900542563E+03  1.900542563E+03  0.000000000E+00  0.00000E+00  9.000E+00
      21    -1     0     0   501   502  0.000000000E+00  0.000000000E+00 -5.919066033E+02  5.919066033E+02  0.000000000E+00  0.00000E+00  9.000E+00
      25     1     1     2     0     0  1.452291149E+02 -9.218464753E+02  1.031536314E+03  1.396633304E+03  1.250000000E+02  0.00000E+00  9.000E+00
      25     1     1     2     0     0 -1.187993092E+02  9.063295802E+02  1.137030322E+02  9.295697732E+02  1.250000000E+02  0.00000E+00  9.000E+00
      21     1     1     2   512   502 -2.642980573E+01  1.551689516E+01  1.633966142E+02  1.662460892E+02  1.907348633E-06  0.00000E+00  9.000E+00
#rwgt            1           1   3.5334975875577233E-002          10      232507           0
</event>
<event>
      5   9999  3.19816E-02  9.21184E+00 -1.00000E+00  1.99971E-01
      21    -1     0     0   511   501  0.000000000E+00  0.000000000E+00  3.292156174E+02  3.292156174E+02  0.000000000E+00  0.00000E+00  9.000E+00
      21    -1     0     0   501   502  0.000000000E+00  0.000000000E+00 -6.841994646E+02  6.841994646E+02  0.000000000E+00  0.00000E+00  9.000E+00
      25     1     1     2     0     0 -1.463544124E+02  1.081839303E+02 -2.157535479E+02  3.087036933E+02  1.250000000E+02  0.00000E+00  9.000E+00
      25     1     1     2     0     0  1.552577580E+02 -1.058199589E+02 -3.917082364E+02  4.520654572E+02  1.250000000E+02  0.00000E+00  9.000E+00
      21     1     1     2   511   502 -8.903345626E+00 -2.363971435E+00  2.524779372E+02  2.526459315E+02  4.672030912E-06  0.00000E+00  9.000E+00
#rwgt            1           1   2.7418461408055893E-002          10      232760           0
</event>
<event>
      5   9999  3.19816E-02  2.13416E+01 -1.00000E+00  1.64076E-01
      21    -1     0     0   502   501  0.000000000E+00  0.000000000E+00  4.022934834E+02  4.022934834E+02  0.000000000E+00  0.00000E+00  9.000E+00
      21    -1     0     0   501   512  0.000000000E+00  0.000000000E+00 -3.296408511E+02  3.296408511E+02  0.000000000E+00  0.00000E+00  9.000E+00
      25     1     1     2     0     0 -7.213169246E+01 -2.996015290E+02  7.958538757E+01  3.419398940E+02  1.250000000E+02  0.00000E+00  9.000E+00
      25     1     1     2     0     0  9.025735213E+01  2.883355260E+02  4.854518560E+01  3.305531730E+02  1.250000000E+02  0.00000E+00  9.000E+00
      21     1     1     2   502   512 -1.812565968E+01  1.126600300E+01 -5.547794087E+01  5.944126753E+01  0.000000000E+00  0.00000E+00  9.000E+00
#rwgt            1           1   3.0630706769802243E-002          10      232959           0
</event>
<event>
      5   9999  3.19816E-02  2.30814E+01 -1.00000E+00  1.61393E-01
      21    -1     0     0   511   501  0.000000000E+00  0.000000000E+00  7.336620863E+01  7.336620863E+01  0.000000000E+00  0.00000E+00  9.000E+00
      21    -1     0     0   501   502  0.000000000E+00  0.000000000E+00 -5.700740194E+02  5.700740194E+02  0.000000000E+00  0.00000E+00  9.000E+00
      25     1     1     2     0     0 -8.460767969E+01 -9.290943221E+01 -3.778363426E+02  4.173438916E+02  1.250000000E+02  0.00000E+00  9.000E+00
      25     1     1     2     0     0  7.546738465E+01  7.171494808E+01 -1.212518544E+02  2.028925137E+02  1.250000000E+02  0.00000E+00  9.000E+00
      21     1     1     2   511   502  9.140295046E+00  2.119448412E+01  2.380386225E+00  2.320382273E+01  1.460009660E-07  0.00000E+00  9.000E+00
#rwgt            1           1   2.8398567446309215E-002          10      233178           0
</event>
<event>
      5   9999  3.19816E-02  5.73456E+01 -1.00000E+00  1.35762E-01
      21    -1     0     0   502   501  0.000000000E+00  0.000000000E+00  6.226443700E+02  6.226443700E+02  0.000000000E+00  0.00000E+00  9.000E+00
      21    -1     0     0   512   502  0.000000000E+00  0.000000000E+00 -7.168384745E+01  7.168384745E+01  0.000000000E+00  0.00000E+00  9.000E+00
      25     1     1     2     0     0 -1.834938960E+01 -1.129070217E+02  3.132541135E+02  3.561429984E+02  1.250000000E+02  0.00000E+00  9.000E+00
      25     1     1     2     0     0 -3.860716247E+01  1.062388130E+02  2.220097453E+02  2.787302018E+02  1.250000000E+02  0.00000E+00  9.000E+00
      21     1     1     2   512   501  5.695655208E+01  6.668208704E+00  1.569666375E+01  5.945501732E+01  8.259061849E-07  0.00000E+00  9.000E+00
#rwgt            1           1   3.3510762736514002E-002          10      233285           0
</event>
<event>
      5   9999  3.19816E-02  6.36448E+01 -1.00000E+00  1.33349E-01
      21    -1     0     0   511   501  0.000000000E+00  0.000000000E+00  4.774239710E+02  4.774239710E+02  0.000000000E+00  0.00000E+00  9.000E+00
      21    -1     0     0   501   502  0.000000000E+00  0.000000000E+00 -5.230112339E+02  5.230112339E+02  0.000000000E+00  0.00000E+00  9.000E+00
      25     1     1     2     0     0 -3.562323409E+02  5.768142612E+01 -1.001433094E+02  3.948193385E+02  1.250000000E+02  0.00000E+00  9.000E+00
      25     1     1     2     0     0  3.945040561E+02 -6.829347836E+00 -1.107748207E+02  4.284578756E+02  1.250000000E+02  0.00000E+00  9.000E+00
      21     1     1     2   511   502 -3.827171519E+01 -5.085207829E+01  1.653308672E+02  1.771579908E+02  1.907348633E-06  0.00000E+00  9.000E+00
#rwgt            1           1   2.9633389950474404E-002          10      233333           0
</event>
<event>
      5   9999  3.19816E-02  4.52367E+01 -1.00000E+00  1.41603E-01
      21    -1     0     0   512   501  0.000000000E+00  0.000000000E+00  2.213366116E+02  2.213366116E+02  0.000000000E+00  0.00000E+00  9.000E+00
      21    -1     0     0   501   502  0.000000000E+00  0.000000000E+00 -3.619844513E+02  3.619844513E+02  0.000000000E+00  0.00000E+00  9.000E+00
      25     1     1     2     0     0  1.381735068E+02  1.445055804E+02 -1.628906739E+02  2.865870764E+02  1.250000000E+02  0.00000E+00  9.000E+00
      25     1     1     2     0     0 -1.248417422E+02 -1.012780272E+02 -5.165869890E+01  2.100864598E+02  1.250000000E+02  0.00000E+00  9.000E+00
      21     1     1     2   512   502 -1.333176455E+01 -4.322755313E+01  7.390153306E+01  8.664752671E+01  1.651812370E-06  0.00000E+00  9.000E+00
#rwgt            1           1   2.7582623525125794E-002          10      233472           0
</event>
<event>
      5   9999  3.19816E-02  1.03130E+02 -1.00000E+00  1.23229E-01
      21    -1     0     0   502   511  0.000000000E+00  0.000000000E+00  1.006020003E+03  1.006020003E+03  0.000000000E+00  0.00000E+00  9.000E+00
      21    -1     0     0   501   502  0.000000000E+00  0.000000000E+00 -1.270312891E+03  1.270312891E+03  0.000000000E+00  0.00000E+00  9.000E+00
      25     1     1     2     0     0  9.191998199E+02 -8.808980864E+01 -2.551516480E+02  9.661343006E+02  1.250000000E+02  0.00000E+00  9.000E+00
      25     1     1     2     0     0 -9.974511777E+02  2.091404644E+01 -2.603617697E+02  1.038633477E+03  1.250000000E+02  0.00000E+00  9.000E+00
      21     1     1     2   501   511  7.825135780E+01  6.717576221E+01  2.512205294E+02  2.715651163E+02  3.814697266E-06  0.00000E+00  9.000E+00
#rwgt            1           1   3.3081426587246471E-002          10      233540           0
</event>
<event>
      5   9999  3.19816E-02  1.62300E+01 -1.00000E+00  1.74219E-01
      21    -1     0     0   502   501  0.000000000E+00  0.000000000E+00  6.935942845E+02  6.935942845E+02  0.000000000E+00  0.00000E+00  9.000E+00
      21    -1     0     0   512   502  0.000000000E+00  0.000000000E+00 -2.792018558E+02  2.792018558E+02  0.000000000E+00  0.00000E+00  9.000E+00
      25     1     1     2     0     0  7.842282613E+01  1.681843832E+02  4.404462524E+02  4.940182463E+02  1.250000000E+02  0.00000E+00  9.000E+00
      25     1     1     2     0     0 -7.707195637E+01 -1.843580629E+02  1.645694585E+02  2.874649344E+02  1.250000000E+02  0.00000E+00  9.000E+00
      21     1     1     2   512   501 -1.350869764E+00  1.617367972E+01 -1.906232823E+02  1.913129596E+02  2.697398305E-06  0.00000E+00  9.000E+00
#rwgt            1           1   2.7401234528687288E-002          10      233636           0
</event>
<event>
      5   9999  3.19816E-02  5.94450E+01 -1.00000E+00  1.34919E-01
      21    -1     0     0   502   501  0.000000000E+00  0.000000000E+00  2.746189300E+03  2.746189300E+03  0.000000000E+00  0.00000E+00  9.000E+00
      -4    -1     0     0     0   502  0.000000000E+00  0.000000000E+00 -3.223857130E+02  3.223857130E+02  0.000000000E+00  0.00000E+00  9.000E+00
      25     1     1     2     0     0  4.177109172E+02 -1.651297913E+02  1.307233710E+03  1.387888767E+03  1.250000000E+02  0.00000E+00  9.000E+00
      25     1     1     2     0     0 -4.642534816E+02  2.021095313E+02  1.346089628E+03  1.443593379E+03  1.250000000E+02  0.00000E+00  9.000E+00
      -4     1     1     2     0   501  4.654256444E+01 -3.697974003E+01 -2.295197506E+02  2.370928666E+02  1.112165812E-05  0.00000E+00  9.000E+00
#rwgt            1           1   6.6396927948402462E-002          10      233804           0
</event>
<event>
      5   9999  3.19816E-02  7.23677E+01 -1.00000E+00  1.30493E-01
      21    -1     0     0   511   501  0.000000000E+00  0.000000000E+00  7.338163173E+02  7.338163173E+02  0.000000000E+00  0.00000E+00  9.000E+00
      21    -1     0     0   501   502  0.000000000E+00  0.000000000E+00 -6.035532688E+02  6.035532688E+02  0.000000000E+00  0.00000E+00  9.000E+00
      25     1     1     2     0     0  9.471711536E+01 -1.445384614E+02  5.524073577E+02  5.921499706E+02  1.250000000E+02  0.00000E+00  9.000E+00
      25     1     1     2     0     0 -7.922653705E+01  7.384811970E+01 -5.630376050E+02  5.868276864E+02  1.250000000E+02  0.00000E+00  9.000E+00
      21     1     1     2   511   502 -1.549057830E+01  7.069034175E+01  1.408932958E+02  1.583919292E+02  1.907348633E-06  0.00000E+00  9.000E+00
#rwgt            1           1   2.6433133719920211E-002          10      233938           0
</event>
<event>
      5   9999  3.19816E-02  3.00602E+01 -1.00000E+00  1.52979E-01
      21    -1     0     0   502   512  0.000000000E+00  0.000000000E+00  3.896063186E+02  3.896063186E+02  0.000000000E+00  0.00000E+00  9.000E+00
      21    -1     0     0   501   502  0.000000000E+00  0.000000000E+00 -1.673997071E+02  1.673997071E+02  0.000000000E+00  0.00000E+00  9.000E+00
      25     1     1     2     0     0  1.645655336E+02 -5.940830574E+01  1.150860106E+02  2.438871695E+02  1.250000000E+02  0.00000E+00  9.000E+00
      25     1     1     2     0     0 -1.613143205E+02  2.952439508E+01  4.568592022E+00  2.062519622E+02  1.250000000E+02  0.00000E+00  9.000E+00
      21     1     1     2   501   512 -3.251213125E+00  2.988391066E+01  1.025520088E+02  1.068668939E+02  1.348699152E-06  0.00000E+00  9.000E+00
#rwgt            1           1   2.5688851546725174E-002          10      234014           0
</event>
<event>
      5   9999  3.19816E-02  8.39718E+01 -1.00000E+00  1.27339E-01
      21    -1     0     0   502   511  0.000000000E+00  0.000000000E+00  2.515997720E+02  2.515997720E+02  0.000000000E+00  0.00000E+00  9.000E+00
      21    -1     0     0   501   502  0.000000000E+00  0.000000000E+00 -2.065299912E+03  2.065299912E+03  0.000000000E+00  0.00000E+00  9.000E+00
      25     1     1     2     0     0  5.314044769E+02  3.598354470E+02 -9.910279572E+02  1.187279950E+03  1.250000000E+02  0.00000E+00  9.000E+00
      25     1     1     2     0     0 -5.196278236E+02 -2.766935680E+02 -8.498443911E+02  1.041361078E+03  1.250000000E+02  0.00000E+00  9.000E+00
      21     1     1     2   501   511 -1.177665327E+01 -8.314187899E+01  2.717220782E+01  8.825865670E+01  1.507891493E-06  0.00000E+00  9.000E+00
#rwgt            1           1   3.1238754751408644E-002          10      234144           0
</event>
<event>
      5   9999  3.19816E-02  2.64771E+01 -1.00000E+00  1.56906E-01
       2    -1     0     0   502     0  0.000000000E+00  0.000000000E+00  9.645621074E+02  9.645621074E+02  0.000000000E+00  0.00000E+00  9.000E+00
      21    -1     0     0   501   502  0.000000000E+00  0.000000000E+00 -6.716299825E+01  6.716299825E+01  0.000000000E+00  0.00000E+00  9.000E+00
      25     1     1     2     0     0  5.508095760E+01  1.408177030E+02  1.928546514E+02  2.751026244E+02  1.250000000E+02  0.00000E+00  9.000E+00
      25     1     1     2     0     0 -3.828553775E+01 -1.203494009E+02  2.824315528E+02  3.336800005E+02  1.250000000E+02  0.00000E+00  9.000E+00
       2     1     1     2   501     0 -1.679541985E+01 -2.046830210E+01  4.221129050E+02  4.229424808E+02  0.000000000E+00  0.00000E+00  9.000E+00
#rwgt            1           1   2.3988496790921320E-002          10      234270           0
</event>
<event>
      5   9999  3.19816E-02  2.61918E+01 -1.00000E+00  1.57251E-01
       2    -1     0     0   502     0  0.000000000E+00  0.000000000E+00  1.248421295E+03  1.248421295E+03  0.000000000E+00  0.00000E+00  9.000E+00
      21    -1     0     0   501   502  0.000000000E+00  0.000000000E+00 -1.451231204E+02  1.451231204E+02  0.000000000E+00  0.00000E+00  9.000E+00
      25     1     1     2     0     0 -7.259394828E+01  5.422752898E+01 -8.975014768E+01  1.785793808E+02  1.250000000E+02  0.00000E+00  9.000E+00
      25     1     1     2     0     0  9.132033220E+01 -3.591538762E+01  5.805652833E+02  6.019222262E+02  1.250000000E+02  0.00000E+00  9.000E+00
       2     1     1     2   501     0 -1.872638393E+01 -1.831214137E+01  6.124830387E+02  6.130428082E+02  0.000000000E+00  0.00000E+00  9.000E+00
#rwgt            1           1   2.7232367209379531E-002          10      234359           0
</event>
<event>
      5   9999  3.19816E-02  3.56043E+01 -1.00000E+00  1.48047E-01
      21    -1     0     0   502   511  0.000000000E+00  0.000000000E+00  1.407411307E+02  1.407411307E+02  0.000000000E+00  0.00000E+00  9.000E+00
      21    -1     0     0   501   502  0.000000000E+00  0.000000000E+00 -7.862518029E+02  7.862518029E+02  0.000000000E+00  0.00000E+00  9.000E+00
      25     1     1     2     0     0 -2.108346785E+02  4.125557416E+01 -7.159768366E+01  2.586590659E+02  1.250000000E+02  0.00000E+00  9.000E+00
      25     1     1     2     0     0  1.818758234E+02 -6.196914764E+01 -5.871810737E+02  6.303376902E+02  1.250000000E+02  0.00000E+00  9.000E+00
      21     1     1     2   501   511  2.895885514E+01  2.071357348E+01  1.326808521E+01  3.799617747E+01  9.386548846E-07  0.00000E+00  9.000E+00
#rwgt            1           1   1.8170579853832008E-002          10      234503           0
</event>
<event>
      5   9999  3.19816E-02  1.88774E+02 -1.00000E+00  1.12569E-01
      21    -1     0     0   512   501  0.000000000E+00  0.000000000E+00  2.595181586E+02  2.595181586E+02  0.000000000E+00  0.00000E+00  9.000E+00
      21    -1     0     0   501   502  0.000000000E+00  0.000000000E+00 -1.527916509E+03  1.527916509E+03  0.000000000E+00  0.00000E+00  9.000E+00
      25     1     1     2     0     0  3.530196376E+02  1.431753130E+02 -3.177447139E+02  5.115747628E+02  1.250000000E+02  0.00000E+00  9.000E+00
      25     1     1     2     0     0 -3.792226462E+02  4.377087936E+01 -1.002597113E+03  1.080070218E+03  1.250000000E+02  0.00000E+00  9.000E+00
      21     1     1     2   512   502  2.620300856E+01 -1.869461924E+02  5.194347675E+01  1.957896863E+02  3.090257978E-06  0.00000E+00  9.000E+00
#rwgt            1           1   2.7399973619063499E-002          10      234614           0
</event>
<event>
      5   9999  3.19816E-02  4.86586E+01 -1.00000E+00  1.39753E-01
       1    -1     0     0   502     0  0.000000000E+00  0.000000000E+00  1.413534000E+03  1.413534000E+03  0.000000000E+00  0.00000E+00  9.000E+00
      21    -1     0     0   501   502  0.000000000E+00  0.000000000E+00 -1.960379522E+02  1.960379522E+02  0.000000000E+00  0.00000E+00  9.000E+00
      25     1     1     2     0     0  2.568531519E+01  2.019094627E+02  1.973115126E+01  2.396695327E+02  1.250000000E+02  0.00000E+00  9.000E+00
      25     1     1     2     0     0 -6.597054687E+01 -2.291997938E+02  1.264590391E+02  2.974920959E+02  1.250000000E+02  0.00000E+00  9.000E+00
       1     1     1     2   501     0  4.028523168E+01  2.729033109E+01  1.071305857E+03  1.072410324E+03  0.000000000E+00  0.00000E+00  9.000E+00
#rwgt            1           1   2.4773615176494391E-002          10      234682           0
</event>
<event>
      5   9999  3.19816E-02  4.10964E+01 -1.00000E+00  1.44116E-01
      21    -1     0     0   502   501  0.000000000E+00  0.000000000E+00  2.381307591E+02  2.381307591E+02  0.000000000E+00  0.00000E+00  9.000E+00
      21    -1     0     0   511   502  0.000000000E+00  0.000000000E+00 -9.219976569E+02  9.219976569E+02  0.000000000E+00  0.00000E+00  9.000E+00
      25     1     1     2     0     0 -2.751378490E+02 -2.787301642E+02 -1.524516435E+02  4.384721702E+02  1.250000000E+02  0.00000E+00  9.000E+00
      25     1     1     2     0     0  3.135969561E+02  2.932150591E+02 -4.870960219E+02  6.612152873E+02  1.250000000E+02  0.00000E+00  9.000E+00
      21     1     1     2   511   501 -3.845910702E+01 -1.448489491E+01 -4.431923250E+01  6.044095848E+01  6.743495762E-07  0.00000E+00  9.000E+00
#rwgt            1           1   2.8676610869749247E-002          10      234801           0
</event>
<event>
      5   9999  3.19816E-02  6.50504E+02 -1.00000E+00  9.57103E-02
      21    -1     0     0   502   501  0.000000000E+00  0.000000000E+00  6.404428879E+02  6.404428879E+02  0.000000000E+00  0.00000E+00  9.000E+00
       2    -1     0     0   501     0  0.000000000E+00  0.000000000E+00 -1.263684427E+03  1.263684427E+03  0.000000000E+00  0.00000E+00  9.000E+00
      25     1     1     2     0     0  2.492947263E+02 -1.151583308E+02  1.733590849E+02  3.479765424E+02  1.250000000E+02  0.00000E+00  9.000E+00
      25     1     1     2     0     0  2.290494835E+02  5.560015969E+02 -1.360658921E+02  6.290789844E+02  1.250000000E+02  0.00000E+00  9.000E+00
       2     1     1     2   502     0 -4.783442098E+02 -4.408432661E+02 -6.605347318E+02  9.270717881E+02  1.525878906E-05  0.00000E+00  9.000E+00
#rwgt            2          13   1.0196772350248634E-003          10      234920           0
</event>
<event>
      5   9999  3.19816E-02  3.86437E+01 -1.00000E+00  1.45775E-01
      21    -1     0     0   502   511  0.000000000E+00  0.000000000E+00  1.994952493E+02  1.994952493E+02  0.000000000E+00  0.00000E+00  9.000E+00
      21    -1     0     0   501   502  0.000000000E+00  0.000000000E+00 -5.365085149E+02  5.365085149E+02  0.000000000E+00  0.00000E+00  9.000E+00
      25     1     1     2     0     0 -2.254295478E+02 -1.426910871E+02 -2.624280353E+01  2.957920082E+02  1.250000000E+02  0.00000E+00  9.000E+00
      25     1     1     2     0     0  1.946673502E+02  1.193025336E+02 -3.052719548E+02  4.011788107E+02  1.250000000E+02  0.00000E+00  9.000E+00
      21     1     1     2   501   511  3.076219761E+01  2.338855350E+01 -5.498507291E+00  3.903294530E+01  9.156639275E-07  0.00000E+00  9.000E+00
#rwgt            1           1   2.7629411245092599E-002          10      234939           0
</event>
<event>
      5   9999  3.19816E-02  9.94852E+01 -1.00000E+00  1.23929E-01
      21    -1     0     0   502   501  0.000000000E+00  0.000000000E+00  2.447892634E+02  2.447892634E+02  0.000000000E+00  0.00000E+00  9.000E+00
      21    -1     0     0   512   502  0.000000000E+00  0.000000000E+00 -5.806766458E+02  5.806766458E+02  0.000000000E+00  0.00000E+00  9.000E+00
      25     1     1     2     0     0  1.279599725E+02  1.206033733E+02 -3.752360398E+02  4.328348574E+02  1.250000000E+02  0.00000E+00  9.000E+00
      25     1     1     2     0     0 -3.032866126E+01 -1.397195288E+02  1.513367709E+02  2.428357318E+02  1.250000000E+02  0.00000E+00  9.000E+00
      21     1     1     2   512   501 -9.763131119E+01  1.911615552E+01 -1.119881135E+02  1.497953200E+02  1.907348633E-06  0.00000E+00  9.000E+00
#rwgt            1           1   2.8205910758872695E-002          10      235045           0
</event>
<event>
      5   9999  3.19816E-02  3.56659E+01 -1.00000E+00  1.47998E-01
      21    -1     0     0   502   511  0.000000000E+00  0.000000000E+00  4.051339211E+02  4.051339211E+02  0.000000000E+00  0.00000E+00  9.000E+00
      21    -1     0     0   501   502  0.000000000E+00  0.000000000E+00 -6.375169633E+02  6.375169633E+02  0.000000000E+00  0.00000E+00  9.000E+00
      25     1     1     2     0     0 -1.564958216E+02 -4.392739330E+02 -1.156042289E+02  4.964291169E+02  1.250000000E+02  0.00000E+00  9.000E+00
      25     1     1     2     0     0  1.272359091E+02  4.596678856E+02 -1.269359259E+02  5.091377721E+02  1.250000000E+02  0.00000E+00  9.000E+00
      21     1     1     2   501   511  2.925991249E+01 -2.039395268E+01  1.015711258E+01  3.708399548E+01  2.920019320E-07  0.00000E+00  9.000E+00
#rwgt            1           1   3.0086958913122408E-002          10      235121           0
</event>
<event>
      5   9999  3.19816E-02  4.93375E+01 -1.00000E+00  1.39407E-01
       1    -1     0     0   502     0  0.000000000E+00  0.000000000E+00  9.291757771E+02  9.291757771E+02  0.000000000E+00  0.00000E+00  9.000E+00
      21    -1     0     0   501   502  0.000000000E+00  0.000000000E+00 -5.167798336E+02  5.167798336E+02  0.000000000E+00  0.00000E+00  9.000E+00
      25     1     1     2     0     0  3.846529856E+02 -1.009817787E+02 -2.297696346E+02  4.759982394E+02  1.250000000E+02  0.00000E+00  9.000E+00
      25     1     1     2     0     0 -3.695151462E+02  1.479395257E+02  1.045687606E+02  4.301013511E+02  1.250000000E+02  0.00000E+00  9.000E+00
       1     1     1     2   501     0 -1.513783935E+01 -4.695774695E+01  5.375968176E+02  5.398560201E+02  1.321449896E-05  0.00000E+00  9.000E+00
#rwgt            1           1   2.9169532530473215E-002          10      235256           0
</event>
<event>
      5   9999  3.19816E-02  7.96922E+01 -1.00000E+00  1.28431E-01
      21    -1     0     0   502   501  0.000000000E+00  0.000000000E+00  2.272880438E+03  2.272880438E+03  0.000000000E+00  0.00000E+00  9.000E+00
      -3    -1     0     0     0   502  0.000000000E+00  0.000000000E+00 -3.223452872E+01  3.223452872E+01  0.000000000E+00  0.00000E+00  9.000E+00
      25     1     1     2     0     0  1.040410279E+02  1.779766383E+01  1.444201052E+03  1.453438327E+03  1.250000000E+02  0.00000E+00  9.000E+00
      25     1     1     2     0     0 -1.609736188E+02  3.796546183E+01  6.774504780E+02  7.084617367E+02  1.250000000E+02  0.00000E+00  9.000E+00
      -3     1     1     2     0   501  5.693259089E+01 -5.576312566E+01  1.189943792E+02  1.432149028E+02  2.336015456E-06  0.00000E+00  9.000E+00
#rwgt            1           1   6.5700175080187176E-002          10      235335           0
</event>
<event>
      5   9999  3.19816E-02  6.18252E+01 -1.00000E+00  1.34012E-01
      21    -1     0     0   502   511  0.000000000E+00  0.000000000E+00  1.406238266E+02  1.406238266E+02  0.000000000E+00  0.00000E+00  9.000E+00
      21    -1     0     0   501   502  0.000000000E+00  0.000000000E+00 -7.163632613E+02  7.163632613E+02  0.000000000E+00  0.00000E+00  9.000E+00
      25     1     1     2     0     0 -3.734542005E+01  1.700931621E+02 -6.883082307E+00  2.144731708E+02  1.250000000E+02  0.00000E+00  9.000E+00
      25     1     1     2     0     0  6.830056554E+01 -1.165755443E+02 -5.466743461E+02  5.768298410E+02  1.250000000E+02  0.00000E+00  9.000E+00
      21     1     1     2   501   511 -3.095514548E+01 -5.351761777E+01 -2.218200624E+01  6.568407604E+01  1.118282261E-06  0.00000E+00  9.000E+00
#rwgt            1           1   3.1079754242950161E-002          10      235374           0
</event>
<event>
      5   9999  3.19816E-02  2.24922E+02 -1.00000E+00  1.09822E-01
      21    -1     0     0   502   512  0.000000000E+00  0.000000000E+00  4.500544459E+02  4.500544459E+02  0.000000000E+00  0.00000E+00  9.000E+00
      21    -1     0     0   501   502  0.000000000E+00  0.000000000E+00 -2.867295896E+03  2.867295896E+03  0.000000000E+00  0.00000E+00  9.000E+00
      25     1     1     2     0     0 -4.313967470E+02 -1.234313164E+02  9.500137195E+01  4.753826920E+02  1.250000000E+02  0.00000E+00  9.000E+00
      25     1     1     2     0     0  3.673216720E+02 -9.217077947E+01 -2.577184204E+03  2.607858141E+03  1.250000000E+02  0.00000E+00  9.000E+00
      21     1     1     2   501   512  6.407507505E+01  2.156020958E+02  6.494138203E+01  2.341095087E+02  4.672030912E-06  0.00000E+00  9.000E+00
#rwgt            2          11   4.9054039983087482E-003          10      235438           0
</event>
<event>
      5   9999  3.19816E-02  3.27019E+01 -1.00000E+00  1.50483E-01
      21    -1     0     0   502   501  0.000000000E+00  0.000000000E+00  5.917310315E+01  5.917310315E+01  0.000000000E+00  0.00000E+00  9.000E+00
      21    -1     0     0   501   511  0.000000000E+00  0.000000000E+00 -1.628975134E+03  1.628975134E+03  0.000000000E+00  0.00000E+00  9.000E+00
      25     1     1     2     0     0 -2.434044830E+02 -1.232557183E+02 -9.706847812E+02  1.016017549E+03  1.250000000E+02  0.00000E+00  9.000E+00
      25     1     1     2     0     0  2.135219141E+02  1.099724746E+02 -5.141143194E+02  5.810542887E+02  1.250000000E+02  0.00000E+00  9.000E+00
      21     1     1     2   502   511  2.988256884E+01  1.328324362E+01 -8.500293063E+01  9.107640033E+01  1.651812370E-06  0.00000E+00  9.000E+00
#rwgt            1           1   3.4293438954937298E-002          10      235473           0
</event>
<event>
      5   9999  3.19816E-02  2.48166E+02 -1.00000E+00  1.08340E-01
       2    -1     0     0   502     0  0.000000000E+00  0.000000000E+00  2.025857629E+03  2.025857629E+03  0.000000000E+00  0.00000E+00  9.000E+00
      21    -1     0     0   501   502  0.000000000E+00  0.000000000E+00 -1.512136480E+02  1.512136480E+02  0.000000000E+00  0.00000E+00  9.000E+00
      25     1     1     2     0     0  2.854139413E+02 -1.543594670E+01  6.987609520E+02  7.652393445E+02  1.250000000E+02  0.00000E+00  9.000E+00
      25     1     1     2     0     0 -3.328872116E+02 -2.281468439E+02  3.473730965E+02  5.469533309E+02  1.250000000E+02  0.00000E+00  9.000E+00
       2     1     1     2   501     0  4.747327028E+01  2.435827906E+02  8.285099324E+02  8.648786016E+02  1.868812365E-05  0.00000E+00  9.000E+00
#rwgt            2          18   1.6811428824835206E-003          10      235537           0
</event>
<event>
      5   9999  3.19816E-02  7.02845E+01 -1.00000E+00  1.31132E-01
      21    -1     0     0   511   501  0.000000000E+00  0.000000000E+00  5.393021692E+02  5.393021692E+02  0.000000000E+00  0.00000E+00  9.000E+00
      21    -1     0     0   501   502  0.000000000E+00  0.000000000E+00 -4.904713430E+02  4.904713430E+02  0.000000000E+00  0.00000E+00  9.000E+00
      25     1     1     2     0     0  3.685870730E+02 -2.084157512E+02  2.444276103E+02  5.046418655E+02  1.250000000E+02  0.00000E+00  9.000E+00
      25     1     1     2     0     0 -2.988818216E+02  1.994106271E+02 -2.324034023E+02  4.457928699E+02  1.250000000E+02  0.00000E+00  9.000E+00
      21     1     1     2   511   502 -6.970525141E+01  9.005124176E+00  3.680661828E+01  7.933877668E+01  1.261592536E-06  0.00000E+00  9.000E+00
#rwgt            1           1   2.9064662990434111E-002          10      235556           0
</event>
<event>
      5   9999  3.19816E-02  1.68660E+02 -1.00000E+00  1.14411E-01
      21    -1     0     0   502   501  0.000000000E+00  0.000000000E+00  6.872849972E+02  6.872849972E+02  0.000000000E+00  0.00000E+00  9.000E+00
       1    -1     0     0   501     0  0.000000000E+00  0.000000000E+00 -1.265083029E+03  1.265083029E+03  0.000000000E+00  0.00000E+00  9.000E+00
      25     1     1     2     0     0  5.087549237E+02 -1.690103159E+02  3.087186174E+02  6.311325091E+02  1.250000000E+02  0.00000E+00  9.000E+00
      25     1     1     2     0     0 -4.509001310E+02  3.274366583E+02 -1.858803141E+02  6.005848687E+02  1.250000000E+02  0.00000E+00  9.000E+00
       1     1     1     2   502     0 -5.785479274E+01 -1.584263424E+02 -7.006363350E+02  7.206506483E+02  1.321449896E-05  0.00000E+00  9.000E+00
#rwgt            1           1   3.0549071486553874E-002          10      235678           0
</event>
<event>
      5   9999  3.19816E-02  1.21435E+01 -1.00000E+00  1.86487E-01
      21    -1     0     0   502   501  0.000000000E+00  0.000000000E+00  1.119585126E+03  1.119585126E+03  0.000000000E+00  0.00000E+00  9.000E+00
      21    -1     0     0   511   502  0.000000000E+00  0.000000000E+00 -8.104795186E+01  8.104795186E+01  0.000000000E+00  0.00000E+00  9.000E+00
      25     1     1     2     0     0  1.037066970E+02 -1.549367326E+02  2.117390261E+02  3.085755747E+02  1.250000000E+02  0.00000E+00  9.000E+00
      25     1     1     2     0     0 -9.819114194E+01  1.441181281E+02  8.440869385E+02  8.709301321E+02  1.250000000E+02  0.00000E+00  9.000E+00
      21     1     1     2   511   501 -5.515555080E+00  1.081860456E+01 -1.728879021E+01  2.112737133E+01  2.384185791E-07  0.00000E+00  9.000E+00
#rwgt            1           1   2.8967440446459380E-002          10      235755           0
</event>
<event>
      5   9999  3.19816E-02  6.78608E+00 -1.00000E+00  2.17476E-01
      21    -1     0     0   502   501  0.000000000E+00  0.000000000E+00  1.683269916E+03  1.683269916E+03  0.000000000E+00  0.00000E+00  9.000E+00
      21    -1     0     0   512   502  0.000000000E+00  0.000000000E+00 -2.026988803E+03  2.026988803E+03  0.000000000E+00  0.00000E+00  9.000E+00
      25     1     1     2     0     0  8.207800597E+02 -9.477551416E+02  4.707509123E+02  1.345046890E+03  1.250000000E+02  0.00000E+00  9.000E+00
      25     1     1     2     0     0 -8.194963064E+02  9.410915918E+02  2.682244046E+02  1.282496359E+03  1.250000000E+02  0.00000E+00  9.000E+00
      21     1     1     2   512   501 -1.283753276E+00  6.663549846E+00 -1.082694203E+03  1.082715470E+03  1.525878906E-05  0.00000E+00  9.000E+00
#rwgt            1           1   5.2549936047218665E-002          10      235953           0
</event>
<event>
      5   9999  3.19816E-02  7.24510E+01 -1.00000E+00  1.30468E-01
      21    -1     0     0   502   511  0.000000000E+00  0.000000000E+00  5.931149260E+02  5.931149260E+02  0.000000000E+00  0.00000E+00  9.000E+00
      21    -1     0     0   501   502  0.000000000E+00  0.000000000E+00 -2.667118393E+02  2.667118393E+02  0.000000000E+00  0.00000E+00  9.000E+00
      25     1     1     2     0     0  1.145297607E+02 -6.701488547E+01 -2.125436698E+02  2.800140577E+02  1.250000000E+02  0.00000E+00  9.000E+00
      25     1     1     2     0     0 -5.256264824E+01  2.947522812E+01  3.948941637E+02  4.185666275E+02  1.250000000E+02  0.00000E+00  9.000E+00
      21     1     1     2   501   511 -6.196711241E+01  3.753965735E+01  1.440525927E+02  1.612460801E+02  0.000000000E+00  0.00000E+00  9.000E+00
#rwgt            1           1   2.7453450640813271E-002          10      236511           0
</event>
<event>
      5   9999  3.19816E-02  7.78662E+01 -1.00000E+00  1.28920E-01
      21    -1     0     0   502   501  0.000000000E+00  0.000000000E+00  5.675698532E+02  5.675698532E+02  0.000000000E+00  0.00000E+00  9.000E+00
      21    -1     0     0   501   512  0.000000000E+00  0.000000000E+00 -8.410727158E+02  8.410727158E+02  0.000000000E+00  0.00000E+00  9.000E+00
      25     1     1     2     0     0 -2.423174230E+01  2.117101844E+02  4.928819979E+02  5.513311558E+02  1.250000000E+02  0.00000E+00  9.000E+00
      25     1     1     2     0     0 -1.520971812E+01 -2.788482568E+02 -5.945425406E+02  6.686505204E+02  1.250000000E+02  0.00000E+00  9.000E+00
      21     1     1     2   502   512  3.944146042E+01  6.713807231E+01 -1.718423199E+02  1.886608928E+02  0.000000000E+00  0.00000E+00  9.000E+00
#rwgt            1           1   3.0503781844917460E-002          10      236569           0
</event>
<event>
      5   9999  3.19816E-02  2.99362E+01 -1.00000E+00  1.53104E-01
      21    -1     0     0   502   511  0.000000000E+00  0.000000000E+00  9.015084679E+02  9.015084679E+02  0.000000000E+00  0.00000E+00  9.000E+00
      21    -1     0     0   501   502  0.000000000E+00  0.000000000E+00 -5.726006636E+02  5.726006636E+02  0.000000000E+00  0.00000E+00  9.000E+00
      25     1     1     2     0     0  5.481257027E+02  3.039726058E+02 -2.279041812E+01  6.395197684E+02  1.250000000E+02  0.00000E+00  9.000E+00
      25     1     1     2     0     0 -5.674404293E+02 -2.811007949E+02  1.938829594E+02  6.739598650E+02  1.250000000E+02  0.00000E+00  9.000E+00
      21     1     1     2   501   511  1.931472664E+01 -2.287181083E+01  1.578152630E+02  1.606294980E+02  1.907348633E-06  0.00000E+00  9.000E+00
#rwgt            1           1   2.9289203815175729E-002          10      236688           0
</event>
<event>
      5   9999  3.19816E-02  1.17942E+01 -1.00000E+00  1.87821E-01
      21    -1     0     0   502   501  0.000000000E+00  0.000000000E+00  3.912991664E+02  3.912991664E+02  0.000000000E+00  0.00000E+00  9.000E+00
      21    -1     0     0   501   512  0.000000000E+00  0.000000000E+00 -8.745135620E+01  8.745135620E+01  0.000000000E+00  0.00000E+00  9.000E+00
      25     1     1     2     0     0  7.302362117E+01 -4.141556275E+01  2.827344007E+02  3.203302037E+02  1.250000000E+02  0.00000E+00  9.000E+00
      25     1     1     2     0     0 -6.371587898E+01  3.417195925E+01  2.372683452E+01  1.463400106E+02  1.250000000E+02  0.00000E+00  9.000E+00
      21     1     1     2   502   512 -9.307742190E+00  7.243603503E+00 -2.613425039E+00  1.208030823E+01  1.576990671E-07  0.00000E+00  9.000E+00
#rwgt            1           1   2.4770723188713418E-002          10      236864           0
</event>
<event>
      5   9999  3.19816E-02  8.80636E+00 -1.00000E+00  2.02363E-01
      21    -1     0     0   511   501  0.000000000E+00  0.000000000E+00  1.895905650E+03  1.895905650E+03  0.000000000E+00  0.00000E+00  9.000E+00
      21    -1     0     0   501   502  0.000000000E+00  0.000000000E+00 -2.485264745E+02  2.485264745E+02  0.000000000E+00  0.00000E+00  9.000E+00
      25     1     1     2     0     0 -2.516506643E+02  2.123204009E+02  1.669721517E+02  3.897598093E+02  1.250000000E+02  0.00000E+00  9.000E+00
      25     1     1     2     0     0  2.491887613E+02 -2.038651692E+02  8.035876178E+01  3.545963573E+02  1.250000000E+02  0.00000E+00  9.000E+00
      21     1     1     2   511   502  2.461902942E+00 -8.455231713E+00  1.400048262E+03  1.400075958E+03  1.525878906E-05  0.00000E+00  9.000E+00
#rwgt            1           1   2.8108874809751039E-002          10      237052           0
</event>
<event>
      5   9999  3.19816E-02  1.77893E+02 -1.00000E+00  1.13532E-01
      21    -1     0     0   502   512  0.000000000E+00  0.000000000E+00  5.199419898E+02  5.199419898E+02  0.000000000E+00  0.00000E+00  9.000E+00
      21    -1     0     0   501   502  0.000000000E+00  0.000000000E+00 -3.599792172E+03  3.599792172E+03  0.000000000E+00  0.00000E+00  9.000E+00
      25     1     1     2     0     0  1.149865269E+03 -3.031786129E+02 -8.906220778E+02  1.490952747E+03  1.250000000E+02  0.00000E+00  9.000E+00
      25     1     1     2     0     0 -1.139484097E+03  4.807681020E+02 -2.070239164E+03  2.414762343E+03  1.250000000E+02  0.00000E+00  9.000E+00
      21     1     1     2   501   512 -1.038117122E+01 -1.775894891E+02 -1.189889404E+02  2.140190722E+02  3.015782986E-06  0.00000E+00  9.000E+00
#rwgt            1           1   4.1542002185572038E-002          10      237266           0
</event>
<event>
      5   9999  3.19816E-02  3.05593E+01 -1.00000E+00  1.52485E-01
      21    -1     0     0   502   501  0.000000000E+00  0.000000000E+00  7.542053995E+02  7.542053995E+02  0.000000000E+00  0.00000E+00  9.000E+00
      21    -1     0     0   511   502  0.000000000E+00  0.000000000E+00 -1.638971712E+02  1.638971712E+02  0.000000000E+00  0.00000E+00  9.000E+00
      25     1     1     2     0     0  2.582374357E+02 -3.841775929E+01  4.754139384E+02  5.566021112E+02  1.250000000E+02  0.00000E+00  9.000E+00
      25     1     1     2     0     0 -2.429555554E+02  1.195388252E+01  1.524301633E+02  3.130978312E+02  1.250000000E+02  0.00000E+00  9.000E+00
      21     1     1     2   511   501 -1.528188029E+01  2.646387677E+01 -3.753587331E+01  4.840262827E+01  0.000000000E+00  0.00000E+00  9.000E+00
#rwgt            1           1   2.9080819408223851E-002          10      237337           0
</event>
<event>
      5   9999  3.19816E-02  3.48246E+01 -1.00000E+00  1.48674E-01
      21    -1     0     0   502   512  0.000000000E+00  0.000000000E+00  3.763232957E+03  3.763232957E+03  0.000000000E+00  0.00000E+00  9.000E+00
      21    -1     0     0   501   502  0.000000000E+00  0.000000000E+00 -4.114020222E+02  4.114020222E+02  0.000000000E+00  0.00000E+00  9.000E+00
      25     1     1     2     0     0  1.145227726E+02  3.074755927E+02 -2.224091025E+02  4.156290587E+02  1.250000000E+02  0.00000E+00  9.000E+00
      25     1     1     2     0     0 -1.449467976E+02 -2.905305689E+02  2.355868065E+02  4.201710711E+02  1.250000000E+02  0.00000E+00  9.000E+00
      21     1     1     2   501   512  3.042402497E+01 -1.694502387E+01  3.338653230E+03  3.338834849E+03  4.315837288E-05  0.00000E+00  9.000E+00
#rwgt            1           1   2.9620747612061831E-002          10      237491           0
</event>
<event>
      5   9999  3.19816E-02  7.62548E+01 -1.00000E+00  1.29366E-01
       2    -1     0     0   502     0  0.000000000E+00  0.000000000E+00  1.565824006E+03  1.565824006E+03  0.000000000E+00  0.00000E+00  9.000E+00
      21    -1     0     0   501   502  0.000000000E+00  0.000000000E+00 -1.147574129E+02  1.147574129E+02  0.000000000E+00  0.00000E+00  9.000E+00
      25     1     1     2     0     0 -1.679308515E+02  9.814043087E+01  4.721749696E+01  2.359805226E+02  1.250000000E+02  0.00000E+00  9.000E+00
      25     1     1     2     0     0  1.004673491E+02 -6.259508831E+01  3.716155666E+02  4.095545905E+02  1.250000000E+02  0.00000E+00  9.000E+00
       2     1     1     2   501     0  6.746350238E+01 -3.554534256E+01  1.032233529E+03  1.035046305E+03  1.525878906E-05  0.00000E+00  9.000E+00
#rwgt            1           1   2.5227835303073719E-002          10      237665           0
</event>
<event>
      5   9999  3.19816E-02  1.36929E+02 -1.00000E+00  1.17985E-01
      21    -1     0     0   502   511  0.000000000E+00  0.000000000E+00  5.161097623E+02  5.161097623E+02  0.000000000E+00  0.00000E+00  9.000E+00
      21    -1     0     0   501   502  0.000000000E+00  0.000000000E+00 -3.111738530E+02  3.111738530E+02  0.000000000E+00  0.00000E+00  9.000E+00
      25     1     1     2     0     0 -7.645703619E+01  1.117666686E+02 -1.718598827E+02  2.519886622E+02  1.250000000E+02  0.00000E+00  9.000E+00
      25     1     1     2     0     0  1.793940585E+02 -2.020642436E+02  2.529580162E+02  3.906724264E+02  1.250000000E+02  0.00000E+00  9.000E+00
      21     1     1     2   501   511 -1.029370224E+02  9.029757501E+01  1.238377759E+02  1.846225267E+02  2.336015456E-06  0.00000E+00  9.000E+00
#rwgt            1           1   2.6972758990891649E-002          10      237728           0
</event>
<event>
      5   9999  3.19816E-02  2.46918E+01 -1.00000E+00  1.59155E-01
      21    -1     0     0   502   501  0.000000000E+00  0.000000000E+00  1.817928815E+02  1.817928815E+02  0.000000000E+00  0.00000E+00  9.000E+00
      21    -1     0     0   512   502  0.000000000E+00  0.000000000E+00 -2.894805677E+02  2.894805677E+02  0.000000000E+00  0.00000E+00  9.000E+00
      25     1     1     2     0     0 -1.409676080E+02  2.968529466E+01 -1.093842145E+02  2.198703928E+02  1.250000000E+02  0.00000E+00  9.000E+00
      25     1     1     2     0     0  1.235790658E+02 -4.721594917E+01  5.709491607E+01  1.907510440E+02  1.250000000E+02  0.00000E+00  9.000E+00
      21     1     1     2   512   501  1.738854220E+01  1.753065451E+01 -5.539838773E+01  6.065201242E+01  1.168007728E-06  0.00000E+00  9.000E+00
#rwgt            1           1   2.5968362219209142E-002          10      237782           0
</event>
<event>
      5   9999  3.19816E-02  1.30031E+02 -1.00000E+00  1.18907E-01
      21    -1     0     0   502   501  0.000000000E+00  0.000000000E+00  2.658747718E+02  2.658747718E+02  0.000000000E+00  0.00000E+00  9.000E+00
      21    -1     0     0   511   502  0.000000000E+00  0.000000000E+00 -1.375363855E+03  1.375363855E+03  0.000000000E+00  0.00000E+00  9.000E+00
      25     1     1     2     0     0  1.741525703E+02  3.772905632E+02 -3.769446156E+02  5.747952070E+02  1.250000000E+02  0.00000E+00  9.000E+00
      25     1     1     2     0     0 -2.230926295E+02 -4.977601453E+02 -3.443907990E+02  6.570886592E+02  1.250000000E+02  0.00000E+00  9.000E+00
      21     1     1     2   511   501  4.894005919E+01  1.204695821E+02 -3.881536688E+02  4.093547608E+02  7.629394531E-06  0.00000E+00  9.000E+00
#rwgt            2          11   2.5826414850967237E-003          10      238061           0
</event>
<event>
      5   9999  3.19816E-02  1.52176E+02 -1.00000E+00  1.16146E-01
      21    -1     0     0   502   501  0.000000000E+00  0.000000000E+00  6.270360185E+02  6.270360185E+02  0.000000000E+00  0.00000E+00  9.000E+00
      21    -1     0     0   512   502  0.000000000E+00  0.000000000E+00 -3.334342621E+02  3.334342621E+02  0.000000000E+00  0.00000E+00  9.000E+00
      25     1     1     2     0     0  2.064767943E+02 -1.929933629E+02  4.746895859E+02  5.664223757E+02  1.250000000E+02  0.00000E+00  9.000E+00
      25     1     1     2     0     0 -1.261683373E+02  6.373328029E+01 -1.441456832E+02  2.374518021E+02  1.250000000E+02  0.00000E+00  9.000E+00
      21     1     1     2   512   501 -8.030845706E+01  1.292600826E+02 -3.694214637E+01  1.565961028E+02  3.471426911E-06  0.00000E+00  9.000E+00
#rwgt            1           1   2.9196678552303498E-002          10      238081           0
</event>
<event>
      5   9999  3.19816E-02  6.32384E+01 -1.00000E+00  1.33495E-01
       2    -1     0     0   502     0  0.000000000E+00  0.000000000E+00  1.557285607E+03  1.557285607E+03  0.000000000E+00  0.00000E+00  9.000E+00
      21    -1     0     0   501   502  0.000000000E+00  0.000000000E+00 -3.580111151E+02  3.580111151E+02  0.000000000E+00  0.00000E+00  9.000E+00
      25     1     1     2     0     0 -1.594542115E+02 -3.059759811E+02  3.707102852E+02  5.216301968E+02  1.250000000E+02  0.00000E+00  9.000E+00
      25     1     1     2     0     0  1.726401990E+02  3.678243581E+02 -1.209978901E+02  4.420010024E+02  1.250000000E+02  0.00000E+00  9.000E+00
       2     1     1     2   501     0 -1.318598749E+01 -6.184837700E+01  9.495620969E+02  9.516655231E+02  1.078959322E-05  0.00000E+00  9.000E+00
#rwgt            2          18   1.7075160362537488E-003          10      238222           0
</event>
<event>
      5   9999  3.19816E-02  4.26891E+02 -1.00000E+00  1.00842E-01
      21    -1     0     0   502   501  0.000000000E+00  0.000000000E+00  1.113731509E+03  1.113731509E+03  0.000000000E+00  0.00000E+00  9.000E+00
       3    -1     0     0   501     0  0.000000000E+00  0.000000000E+00 -1.298172769E+03  1.298172769E+03  0.000000000E+00  0.00000E+00  9.000E+00
      25     1     1     2     0     0  3.376760483E+02  6.483833718E+02  7.485720646E+02  1.053760526E+03  1.250000000E+02  0.00000E+00  9.000E+00
      25     1     1     2     0     0 -4.747188791E+02 -2.440871260E+02 -6.271159888E+02  8.329681883E+02  1.250000000E+02  0.00000E+00  9.000E+00
       3     1     1     2   502     0  1.370428309E+02 -4.042962458E+02 -3.058973361E+02  5.251755631E+02  0.000000000E+00  0.00000E+00  9.000E+00
#rwgt            2          14   3.9827859282330643E-005          10      238241           0
</event>
<event>
      5   9999  3.19816E-02  1.64869E+02 -1.00000E+00  1.14790E-01
      21    -1     0     0   502   501  0.000000000E+00  0.000000000E+00  3.702940976E+02  3.702940976E+02  0.000000000E+00  0.00000E+00  9.000E+00
       1    -1     0     0   501     0  0.000000000E+00  0.000000000E+00 -1.289384773E+03  1.289384773E+03  0.000000000E+00  0.00000E+00  9.000E+00
      25     1     1     2     0     0 -3.667227642E+02 -7.149962697E+01  7.005762482E+01  4.001635331E+02  1.250000000E+02  0.00000E+00  9.000E+00
      25     1     1     2     0     0  3.909812881E+02  2.345743010E+02 -3.213072331E+02  5.716247094E+02  1.250000000E+02  0.00000E+00  9.000E+00
       1     1     1     2   502     0 -2.425852399E+01 -1.630746741E+02 -6.678410668E+02  6.878906278E+02  1.078959322E-05  0.00000E+00  9.000E+00
#rwgt            1           1   2.7915268314616711E-002          10      238275           0
</event>
<event>
      5   9999  3.48414E-02  2.93805E+01 -1.00000E+00  1.53672E-01
      21    -1     0     0   511   501  0.000000000E+00  0.000000000E+00  6.839549236E+02  6.839549236E+02  0.000000000E+00  0.00000E+00  9.000E+00
      21    -1     0     0   501   502  0.000000000E+00  0.000000000E+00 -2.022693936E+03  2.022693936E+03  0.000000000E+00  0.00000E+00  9.000E+00
      25     1     1     2     0     0  2.681259352E+02  1.395671103E+01 -9.839691357E+02  1.027573144E+03  1.250000000E+02  0.00000E+00  9.000E+00
      25     1     1     2     0     0 -2.704235279E+02 -4.324723417E+01 -9.942991126E+02  1.038871952E+03  1.250000000E+02  0.00000E+00  9.000E+00
      21     1     1     2   511   502  2.297592657E+00  2.929052315E+01  6.395292363E+02  6.402037627E+02  1.525878906E-05  0.00000E+00  9.000E+00
#rwgt            1           1  0.10681152990747553               10      238383           0
</event>
<event>
      5   9999  3.19816E-02  3.11997E+01 -1.00000E+00  1.51866E-01
      21    -1     0     0   502   501  0.000000000E+00  0.000000000E+00  6.384479916E+02  6.384479916E+02  0.000000000E+00  0.00000E+00  9.000E+00
      21    -1     0     0   501   512  0.000000000E+00  0.000000000E+00 -7.061260286E+02  7.061260286E+02  0.000000000E+00  0.00000E+00  9.000E+00
      25     1     1     2     0     0 -5.840062398E+01 -7.676082593E+01 -3.674381170E+02  3.999232766E+02  1.250000000E+02  0.00000E+00  9.000E+00
      25     1     1     2     0     0  7.768911218E+01  1.012837356E+02  6.085782290E+02  6.342605569E+02  1.250000000E+02  0.00000E+00  9.000E+00
      21     1     1     2   502   512 -1.928848820E+01 -2.452290966E+01 -3.088181490E+02  3.103901867E+02  0.000000000E+00  0.00000E+00  9.000E+00
#rwgt            1           1   2.9923190843385843E-002          10      238533           0
</event>
<event>
      5   9999  3.19816E-02  5.48440E+01 -1.00000E+00  1.36822E-01
      21    -1     0     0   502   501  0.000000000E+00  0.000000000E+00  5.981014026E+02  5.981014026E+02  0.000000000E+00  0.00000E+00  9.000E+00
      21    -1     0     0   501   511  0.000000000E+00  0.000000000E+00 -1.244803634E+03  1.244803634E+03  0.000000000E+00  0.00000E+00  9.000E+00
      25     1     1     2     0     0 -3.329363593E+02  4.838992082E+01  5.903718172E+01  3.637287349E+02  1.250000000E+02  0.00000E+00  9.000E+00
      25     1     1     2     0     0  2.790718938E+02 -3.807097186E+01  3.244876252E+02  4.474904912E+02  1.250000000E+02  0.00000E+00  9.000E+00
      21     1     1     2   502   511  5.386446545E+01 -1.031894896E+01 -1.030227038E+03  1.031685811E+03  1.525878906E-05  0.00000E+00  9.000E+00
#rwgt            1           1   2.5367920962823864E-002          10      238681           0
</event>
<event>
      5   9999  3.19816E-02  9.75898E+01 -1.00000E+00  1.24306E-01
      21    -1     0     0   502   501  0.000000000E+00  0.000000000E+00  3.674413883E+02  3.674413883E+02  0.000000000E+00  0.00000E+00  9.000E+00
      21    -1     0     0   501   512  0.000000000E+00  0.000000000E+00 -5.687088470E+02  5.687088470E+02  0.000000000E+00  0.00000E+00  9.000E+00
      25     1     1     2     0     0  3.648469530E+02 -2.378094534E+01 -1.424758146E+02  4.118290788E+02  1.250000000E+02  0.00000E+00  9.000E+00
      25     1     1     2     0     0 -3.031312917E+02  9.937825557E+01  8.267848794E+01  3.524561676E+02  1.250000000E+02  0.00000E+00  9.000E+00
      21     1     1     2   502   512 -6.171566126E+01 -7.559731023E+01 -1.414701320E+02  1.718649889E+02  1.907348633E-06  0.00000E+00  9.000E+00
#rwgt            1           1   3.0242618974146415E-002          10      238865           0
</event>
<event>
      5   9999  3.19816E-02  6.90354E+02 -1.00000E+00  9.50284E-02
       2    -1     0     0   502     0  0.000000000E+00  0.000000000E+00  3.336577413E+03  3.336577413E+03  0.000000000E+00  0.00000E+00  9.000E+00
      21    -1     0     0   501   502  0.000000000E+00  0.000000000E+00 -8.133674640E+02  8.133674640E+02  0.000000000E+00  0.00000E+00  9.000E+00
      25     1     1     2     0     0  7.617834476E+02  1.293946040E+01  3.998821905E+02  8.694896301E+02  1.250000000E+02  0.00000E+00  9.000E+00
      25     1     1     2     0     0 -1.173338335E+03  5.413270180E+02  3.022899399E+02  1.332952361E+03  1.250000000E+02  0.00000E+00  9.000E+00
       2     1     1     2   501     0  4.115548873E+02 -5.542664784E+02  1.821037818E+03  1.947502886E+03  2.157918644E-05  0.00000E+00  9.000E+00
#rwgt            2          18   9.9715799376466348E-004          10      239204           0
</event>
<event>
      5   9999  3.19816E-02  6.26558E+01 -1.00000E+00  1.33706E-01
      21    -1     0     0   502   501  0.000000000E+00  0.000000000E+00  6.496537781E+02  6.496537781E+02  0.000000000E+00  0.00000E+00  9.000E+00
      21    -1     0     0   501   511  0.000000000E+00  0.000000000E+00 -3.900735832E+02  3.900735832E+02  0.000000000E+00  0.00000E+00  9.000E+00
      25     1     1     2     0     0 -4.013409824E+02 -1.511646698E+02 -6.866437649E+00  4.467633484E+02  1.250000000E+02  0.00000E+00  9.000E+00
      25     1     1     2     0     0  4.275831942E+02  9.426916381E+01  2.714358173E+02  5.301098623E+02  1.250000000E+02  0.00000E+00  9.000E+00
      21     1     1     2   502   511 -2.624221182E+01  5.689550598E+01 -4.989184675E+00  6.285415058E+01  7.586432732E-07  0.00000E+00  9.000E+00
#rwgt            1           1   2.5597999417137678E-002          10      239223           0
</event>
<event>
      5   9999  3.19816E-02  2.99867E+02 -1.00000E+00  1.05598E-01
       2    -1     0     0   502     0  0.000000000E+00  0.000000000E+00  1.360800745E+03  1.360800745E+03  0.000000000E+00  0.00000E+00  9.000E+00
      21    -1     0     0   501   502  0.000000000E+00  0.000000000E+00 -3.676042263E+02  3.676042263E+02  0.000000000E+00  0.00000E+00  9.000E+00
      25     1     1     2     0     0 -2.719543907E+02  1.221374819E+02 -2.389690974E+02  4.020049560E+02  1.250000000E+02  0.00000E+00  9.000E+00
      25     1     1     2     0     0 -2.734911197E+01 -1.405087939E+02  4.350383832E+02  4.747358107E+02  1.250000000E+02  0.00000E+00  9.000E+00
       2     1     1     2   501     0  2.993035027E+02  1.837131205E+01  7.971272329E+02  8.516642045E+02  1.078959322E-05  0.00000E+00  9.000E+00
#rwgt            2          18   1.3062003942613733E-003          10      239590           0
</event>
<event>
      5   9999  3.19816E-02  2.22362E+02 -1.00000E+00  1.09998E-01
      21    -1     0     0   502   511  0.000000000E+00  0.000000000E+00  1.938420112E+03  1.938420112E+03  0.000000000E+00  0.00000E+00  9.000E+00
      21    -1     0     0   501   502  0.000000000E+00  0.000000000E+00 -5.211998632E+02  5.211998632E+02  0.000000000E+00  0.00000E+00  9.000E+00
      25     1     1     2     0     0  9.619056844E+02  5.875716559E+01  7.447869309E+02  1.224355962E+03  1.250000000E+02  0.00000E+00  9.000E+00
      25     1     1     2     0     0 -7.770402903E+02 -1.823274953E+02  4.705083615E+02  9.349000196E+02  1.250000000E+02  0.00000E+00  9.000E+00
      21     1     1     2   501   511 -1.848653941E+02  1.235703297E+02  2.019249559E+02  3.003639927E+02  2.697398305E-06  0.00000E+00  9.000E+00
#rwgt            1           1   2.4896829439319007E-002          10      239639           0
</event>
<event>
      5   9999  3.19816E-02  6.90459E+01 -1.00000E+00  1.31523E-01
       2    -1     0     0   502     0  0.000000000E+00  0.000000000E+00  2.260149933E+03  2.260149933E+03  0.000000000E+00  0.00000E+00  9.000E+00
      21    -1     0     0   501   502  0.000000000E+00  0.000000000E+00 -1.246629323E+03  1.246629323E+03  0.000000000E+00  0.00000E+00  9.000E+00
      25     1     1     2     0     0 -1.597970835E+03  9.792884331E+01  1.252051930E+02  1.610714806E+03  1.250000000E+02  0.00000E+00  9.000E+00
      25     1     1     2     0     0  1.599791418E+03 -2.890692691E+01  8.372614192E+02  1.810193325E+03  1.250000000E+02  0.00000E+00  9.000E+00
       2     1     1     2   501     0 -1.820582907E+00 -6.902191640E+01  5.105399772E+01  8.587112523E+01  9.536743164E-07  0.00000E+00  9.000E+00
#rwgt            1           1   4.1878410310174412E-002          10      239722           0
</event>
<event>
      5   9999  3.19816E-02  1.45462E+01 -1.00000E+00  1.78650E-01
      21    -1     0     0   502   501  0.000000000E+00  0.000000000E+00  2.679900130E+02  2.679900130E+02  0.000000000E+00  0.00000E+00  9.000E+00
      21    -1     0     0   501   511  0.000000000E+00  0.000000000E+00 -1.084098959E+03  1.084098959E+03  0.000000000E+00  0.00000E+00  9.000E+00
      25     1     1     2     0     0  4.386061067E+02 -1.698271265E+02 -3.069751461E+02  5.753914408E+02  1.250000000E+02  0.00000E+00  9.000E+00
      25     1     1     2     0     0 -4.247894133E+02  1.743759586E+02 -2.904480989E+02  5.575285811E+02  1.250000000E+02  0.00000E+00  9.000E+00
      21     1     1     2   502   511 -1.381669346E+01 -4.548832083E+00 -2.186857014E+02  2.191689506E+02  3.814697266E-06  0.00000E+00  9.000E+00
#rwgt            1           1   3.0437169494602921E-002          10      239881           0
</event>
<event>
      5   9999  3.19816E-02  1.18952E+02 -1.00000E+00  1.20530E-01
      21    -1     0     0   502   501  0.000000000E+00  0.000000000E+00  7.075415547E+02  7.075415547E+02  0.000000000E+00  0.00000E+00  9.000E+00
       2    -1     0     0   501     0  0.000000000E+00  0.000000000E+00 -3.602599445E+02  3.602599445E+02  0.000000000E+00  0.00000E+00  9.000E+00
      25     1     1     2     0     0  5.443953164E+01 -5.033123115E+01  5.251697027E+01  1.545313159E+02  1.250000000E+02  0.00000E+00  9.000E+00
      25     1     1     2     0     0  4.297797350E+01  1.185913342E+02  5.787480385E+02  6.053802960E+02  1.250000000E+02  0.00000E+00  9.000E+00
       2     1     1     2   502     0 -9.741750514E+01 -6.826010305E+01 -2.839833986E+02  3.078898872E+02  3.814697266E-06  0.00000E+00  9.000E+00
#rwgt            1           1   2.9890714166428068E-002          10      240124           0
</event>
<event>
      5   9999  3.19816E-02  2.04493E+02 -1.00000E+00  1.11298E-01
      21    -1     0     0   502   501  0.000000000E+00  0.000000000E+00  1.669397448E+03  1.669397448E+03  0.000000000E+00  0.00000E+00  9.000E+00
      21    -1     0     0   501   511  0.000000000E+00  0.000000000E+00 -1.065703305E+03  1.065703305E+03  0.000000000E+00  0.00000E+00  9.000E+00
      25     1     1     2     0     0 -2.410759369E+02 -2.364638264E+02 -3.708762463E+02  5.169206309E+02  1.250000000E+02  0.00000E+00  9.000E+00
      25     1     1     2     0     0  3.834772414E+01  2.632742644E+02  1.565504742E+03  1.592863454E+03  1.250000000E+02  0.00000E+00  9.000E+00
      21     1     1     2   502   511  2.027282128E+02 -2.681043801E+01 -5.909343520E+02  6.253166687E+02  7.629394531E-06  0.00000E+00  9.000E+00
#rwgt            2          11   3.9093808059240684E-003          10      240182           0
</event>
<event>
      5   9999  3.19816E-02  1.25039E+02 -1.00000E+00  1.19615E-01
       2    -1     0     0   502     0  0.000000000E+00  0.000000000E+00  1.181319205E+03  1.181319205E+03  0.000000000E+00  0.00000E+00  9.000E+00
      21    -1     0     0   501   502  0.000000000E+00  0.000000000E+00 -1.056936990E+03  1.056936990E+03  0.000000000E+00  0.00000E+00  9.000E+00
      25     1     1     2     0     0 -1.799559091E+02 -4.437534276E+02 -8.549628430E+02  9.878702833E+02  1.250000000E+02  0.00000E+00  9.000E+00
      25     1     1     2     0     0  1.814109642E+02  3.187232654E+02  1.561272668E+02  4.177262037E+02  1.250000000E+02  0.00000E+00  9.000E+00
       2     1     1     2   501     0 -1.455055108E+00  1.250301623E+02  8.232177906E+02  8.326597081E+02  0.000000000E+00  0.00000E+00  9.000E+00
#rwgt            1           1   2.9119433720586479E-002          10      240217           0
</event>
<event>
      5   9999  3.19816E-02  2.08230E+02 -1.00000E+00  1.11014E-01
      21    -1     0     0   511   501  0.000000000E+00  0.000000000E+00  1.309254474E+02  1.309254474E+02  0.000000000E+00  0.00000E+00  9.000E+00
      21    -1     0     0   501   502  0.000000000E+00  0.000000000E+00 -2.458879044E+03  2.458879044E+03  0.000000000E+00  0.00000E+00  9.000E+00
      25     1     1     2     0     0  1.518203239E+02 -3.240249578E+02 -4.336153637E+02  5.759243593E+02  1.250000000E+02  0.00000E+00  9.000E+00
      25     1     1     2     0     0 -1.424180544E+02  1.160072939E+02 -1.741408274E+03  1.755525098E+03  1.250000000E+02  0.00000E+00  9.000E+00
      21     1     1     2   511   502 -9.402269470E+00  2.080176638E+02 -1.529299589E+02  2.583550338E+02  5.394796609E-06  0.00000E+00  9.000E+00
#rwgt            1           1   2.3362496115871847E-002          10      240386           0
</event>
<event>
      5   9999  3.19816E-02  6.33429E+01 -1.00000E+00  1.33457E-01
      21    -1     0     0   502   501  0.000000000E+00  0.000000000E+00  7.975320574E+02  7.975320574E+02  0.000000000E+00  0.00000E+00  9.000E+00
      21    -1     0     0   512   502  0.000000000E+00  0.000000000E+00 -2.594009584E+02  2.594009584E+02  0.000000000E+00  0.00000E+00  9.000E+00
      25     1     1     2     0     0 -6.279019087E+01  2.511861159E+02 -1.006280230E+02  3.046113457E+02  1.250000000E+02  0.00000E+00  9.000E+00
      25     1     1     2     0     0  1.245695682E+02 -2.371992435E+02  6.189827384E+02  6.859633291E+02  1.250000000E+02  0.00000E+00  9.000E+00
      21     1     1     2   512   501 -6.177937735E+01 -1.398687243E+01  1.977638355E+01  6.635834094E+01  7.539457465E-07  0.00000E+00  9.000E+00
#rwgt            1           1   2.7526474532463784E-002          10      240483           0
</event>
<event>
      5   9999  3.19816E-02  3.98738E+01 -1.00000E+00  1.44925E-01
      21    -1     0     0   511   501  0.000000000E+00  0.000000000E+00  2.318184630E+02  2.318184630E+02  0.000000000E+00  0.00000E+00  9.000E+00
      21    -1     0     0   501   502  0.000000000E+00  0.000000000E+00 -5.682573142E+02  5.682573142E+02  0.000000000E+00  0.00000E+00  9.000E+00
      25     1     1     2     0     0  6.562316577E+01  6.952916785E+01  1.529338777E+02  2.194412815E+02  1.250000000E+02  0.00000E+00  9.000E+00
      25     1     1     2     0     0 -1.030980319E+02 -8.315103964E+01 -5.057397259E+02  5.375322966E+02  1.250000000E+02  0.00000E+00  9.000E+00
      21     1     1     2   511   502  3.747486615E+01  1.362187179E+01  1.636699692E+01  4.310219915E+01  6.307962682E-07  0.00000E+00  9.000E+00
#rwgt            1           1   3.1547681758023915E-002          10      240565           0
</event>
<event>
      5   9999  3.19816E-02  6.51385E+01 -1.00000E+00  1.32824E-01
      21    -1     0     0   512   501  0.000000000E+00  0.000000000E+00  2.163840712E+02  2.163840712E+02  0.000000000E+00  0.00000E+00  9.000E+00
      21    -1     0     0   501   502  0.000000000E+00  0.000000000E+00 -5.264050900E+02  5.264050900E+02  0.000000000E+00  0.00000E+00  9.000E+00
      25     1     1     2     0     0  5.252235525E+01 -2.602269508E+02 -8.153610755E+01  3.045485193E+02  1.250000000E+02  0.00000E+00  9.000E+00
      25     1     1     2     0     0  1.102427376E+01  2.459142282E+02 -2.470818952E+02  3.704993997E+02  1.250000000E+02  0.00000E+00  9.000E+00
      21     1     1     2   512   502 -6.354662901E+01  1.431272266E+01  1.859698404E+01  6.774124226E+01  7.539457465E-07  0.00000E+00  9.000E+00
#rwgt            1           1   2.5461863124779310E-002          10      240737           0
</event>
<event>
      5   9999  3.19816E-02  1.87323E+02 -1.00000E+00  1.12693E-01
      21    -1     0     0   502   501  0.000000000E+00  0.000000000E+00  1.409037621E+02  1.409037621E+02  0.000000000E+00  0.00000E+00  9.000E+00
       4    -1     0     0   501     0  0.000000000E+00  0.000000000E+00 -1.826732652E+03  1.826732652E+03  0.000000000E+00  0.00000E+00  9.000E+00
      25     1     1     2     0     0  3.110859070E+01 -1.657350470E+02 -9.574570606E+01  2.307121376E+02  1.250000000E+02  0.00000E+00  9.000E+00
      25     1     1     2     0     0 -2.068403567E+02  2.306055346E+02 -3.539960249E+02  4.867237732E+02  1.250000000E+02  0.00000E+00  9.000E+00
       4     1     1     2   502     0  1.757317660E+02 -6.487048762E+01 -1.236087159E+03  1.250200503E+03  1.525878906E-05  0.00000E+00  9.000E+00
#rwgt            2          15   1.6497975356904334E-005          10      240807           0
</event>
<event>
      5   9999  3.19816E-02  5.83797E+01 -1.00000E+00  1.35342E-01
      21    -1     0     0   502   501  0.000000000E+00  0.000000000E+00  4.716712306E+02  4.716712306E+02  0.000000000E+00  0.00000E+00  9.000E+00
      21    -1     0     0   511   502  0.000000000E+00  0.000000000E+00 -6.410452746E+02  6.410452746E+02  0.000000000E+00  0.00000E+00  9.000E+00
      25     1     1     2     0     0 -1.965267381E+02  4.993483067E+01  3.718056456E+02  4.415661719E+02  1.250000000E+02  0.00000E+00  9.000E+00
      25     1     1     2     0     0  2.359916975E+02 -9.295473342E+01 -2.605243912E+02  3.844874798E+02  1.250000000E+02  0.00000E+00  9.000E+00
      21     1     1     2   511   501 -3.946495935E+01  4.301990275E+01 -2.806552984E+02  2.866628535E+02  5.394796609E-06  0.00000E+00  9.000E+00
#rwgt            1           1   2.8375400526552463E-002          10      240826           0
</event>
<event>
      5   9999  3.19816E-02  3.27497E+01 -1.00000E+00  1.50441E-01
       2    -1     0     0   502     0  0.000000000E+00  0.000000000E+00  1.975762247E+03  1.975762247E+03  0.000000000E+00  0.00000E+00  9.000E+00
      21    -1     0     0   501   502  0.000000000E+00  0.000000000E+00 -2.264324098E+02  2.264324098E+02  0.000000000E+00  0.00000E+00  9.000E+00
      25     1     1     2     0     0  5.917819972E+02 -1.060493701E+02  9.437854260E+02  1.125969951E+03  1.250000000E+02  0.00000E+00  9.000E+00
      25     1     1     2     0     0 -5.715069805E+02  8.033035007E+01  5.140858657E+02  7.829319710E+02  1.250000000E+02  0.00000E+00  9.000E+00
       2     1     1     2   501     0 -2.027501669E+01  2.571902003E+01  2.914585452E+02  2.932927341E+02  5.394796609E-06  0.00000E+00  9.000E+00
#rwgt            1           1   2.9817614688858372E-002          10      240957           0
</event>
<event>
      5   9999  3.19816E-02  6.61569E+02 -1.00000E+00  9.55159E-02
       2    -1     0     0   502     0  0.000000000E+00  0.000000000E+00  1.225598272E+03  1.225598272E+03  0.000000000E+00  0.00000E+00  9.000E+00
      21    -1     0     0   501   502  0.000000000E+00  0.000000000E+00 -6.226773626E+02  6.226773626E+02  0.000000000E+00  0.00000E+00  9.000E+00
      25     1     1     2     0     0  4.221097894E+02  2.064867715E+02 -2.891118527E+01  4.871081171E+02  1.250000000E+02  0.00000E+00  9.000E+00
      25     1     1     2     0     0 -2.394251223E+02  4.293585856E+02  4.422632144E+02  6.729746913E+02  1.250000000E+02  0.00000E+00  9.000E+00
       2     1     1     2   501     0 -1.826846671E+02 -6.358453571E+02  1.895688802E+02  6.881928262E+02  1.501847815E-05  0.00000E+00  9.000E+00
#rwgt            2          18   4.7810267275928106E-004          10      241168           0
</event>
<event>
      5   9999  3.19816E-02  2.43326E+01 -1.00000E+00  1.59636E-01
      21    -1     0     0   502   501  0.000000000E+00  0.000000000E+00  2.917229705E+02  2.917229705E+02  0.000000000E+00  0.00000E+00  9.000E+00
      21    -1     0     0   511   502  0.000000000E+00  0.000000000E+00 -4.828604419E+02  4.828604419E+02  0.000000000E+00  0.00000E+00  9.000E+00
      25     1     1     2     0     0 -1.193106531E+02  3.057695716E+02 -6.681519718E+01  3.575182980E+02  1.250000000E+02  0.00000E+00  9.000E+00
      25     1     1     2     0     0  1.146352089E+02 -2.818903780E+02 -4.251603620E+01  3.317167913E+02  1.250000000E+02  0.00000E+00  9.000E+00
      21     1     1     2   511   501  4.675444212E+00 -2.387919362E+01 -8.180623803E+01  8.534832305E+01  1.348699152E-06  0.00000E+00  9.000E+00
#rwgt            1           1   2.8067081358446024E-002          10      241187           0
</event>
<event>
      5   9999  3.19816E-02  5.39445E+02 -1.00000E+00  9.79241E-02
      21    -1     0     0   512   501  0.000000000E+00  0.000000000E+00  1.194693543E+03  1.194693543E+03  0.000000000E+00  0.00000E+00  9.000E+00
      21    -1     0     0   501   502  0.000000000E+00  0.000000000E+00 -1.617169827E+03  1.617169827E+03  0.000000000E+00  0.00000E+00  9.000E+00
      25     1     1     2     0     0  9.149762937E+02 -8.069173637E+01 -1.133834346E+03  1.464547063E+03  1.250000000E+02  0.00000E+00  9.000E+00
      25     1     1     2     0     0 -4.002193024E+02 -8.063406778E+01  6.850692953E+02  8.072312446E+02  1.250000000E+02  0.00000E+00  9.000E+00
      21     1     1     2   512   502 -5.147569914E+02  1.613258041E+02  2.628876689E+01  5.400850623E+02  1.016010082E-05  0.00000E+00  9.000E+00
#rwgt            2          11   3.2707510354113589E-003          10      241465           0
</event>
<event>
      5   9999  3.19816E-02  9.79753E+00 -1.00000E+00  1.96790E-01
      21    -1     0     0   502   511  0.000000000E+00  0.000000000E+00  2.009276585E+03  2.009276585E+03  0.000000000E+00  0.00000E+00  9.000E+00
      21    -1     0     0   501   502  0.000000000E+00  0.000000000E+00 -1.537531881E+02  1.537531881E+02  0.000000000E+00  0.00000E+00  9.000E+00
      25     1     1     2     0     0 -2.187930435E+02  1.430772628E+02  6.908232488E+00  2.898520703E+02  1.250000000E+02  0.00000E+00  9.000E+00
      25     1     1     2     0     0  2.147815588E+02 -1.341386046E+02  1.625558810E+03  1.649906278E+03  1.250000000E+02  0.00000E+00  9.000E+00
      21     1     1     2   501   511  4.011484633E+00 -8.938658192E+00  2.230563542E+02  2.232714240E+02  0.000000000E+00  0.00000E+00  9.000E+00
#rwgt            1           1   2.6510333299356929E-002          10      241485           0
</event>
<event>
      5   9999  3.19816E-02  6.47595E+01 -1.00000E+00  1.32955E-01
      21    -1     0     0   502   512  0.000000000E+00  0.000000000E+00  2.977390696E+02  2.977390696E+02  0.000000000E+00  0.00000E+00  9.000E+00
      21    -1     0     0   501   502  0.000000000E+00  0.000000000E+00 -2.157898675E+03  2.157898675E+03  0.000000000E+00  0.00000E+00  9.000E+00
      25     1     1     2     0     0  1.576527277E+02 -2.104925834E+02 -1.554463430E+03  1.581500258E+03  1.250000000E+02  0.00000E+00  9.000E+00
      25     1     1     2     0     0 -1.954311170E+02  1.578942669E+02 -5.521219826E+02  6.193444960E+02  1.250000000E+02  0.00000E+00  9.000E+00
      21     1     1     2   501   512  3.777838926E+01  5.259831642E+01  2.464258073E+02  2.547929907E+02  8.092194914E-06  0.00000E+00  9.000E+00
#rwgt            1           1   8.7617680369466475E-002          10      241837           0
</event>
<event>
      5   9999  3.19816E-02  1.85292E+01 -1.00000E+00  1.69153E-01
      21    -1     0     0   502   501  0.000000000E+00  0.000000000E+00  1.477658471E+03  1.477658471E+03  0.000000000E+00  0.00000E+00  9.000E+00
      21    -1     0     0   511   502  0.000000000E+00  0.000000000E+00 -4.152459570E+01  4.152459570E+01  0.000000000E+00  0.00000E+00  9.000E+00
      25     1     1     2     0     0 -1.536239460E+02 -1.074972197E+02  4.528316340E+02  5.058037740E+02  1.250000000E+02  0.00000E+00  9.000E+00
      25     1     1     2     0     0  1.523542813E+02  8.901156323E+01  9.574945675E+02  9.816087470E+02  1.250000000E+02  0.00000E+00  9.000E+00
      21     1     1     2   511   501  1.269664674E+00  1.848565643E+01  2.580767331E+01  3.177054522E+01  3.371747881E-07  0.00000E+00  9.000E+00
#rwgt            1           1   2.3133966264830625E-002          10      241909           0
</event>
<event>
      5   9999  3.19816E-02  2.48568E+01 -1.00000E+00  1.58938E-01
      21    -1     0     0   502   501  0.000000000E+00  0.000000000E+00  2.077102613E+03  2.077102613E+03  0.000000000E+00  0.00000E+00  9.000E+00
      21    -1     0     0   501   512  0.000000000E+00  0.000000000E+00 -2.688043007E+02  2.688043007E+02  0.000000000E+00  0.00000E+00  9.000E+00
      25     1     1     2     0     0  2.908117115E+02 -4.384792636E+02  1.403098933E+03  1.503711119E+03  1.250000000E+02  0.00000E+00  9.000E+00
      25     1     1     2     0     0 -3.002971107E+02  4.155034778E+02  5.103779228E+02  7.341199622E+02  1.250000000E+02  0.00000E+00  9.000E+00
      21     1     1     2   502   512  9.485399157E+00  2.297578577E+01 -1.051785432E+02  1.080758320E+02  0.000000000E+00  0.00000E+00  9.000E+00
#rwgt            1           1   2.6798161683414399E-002          10      242083           0
</event>
<event>
      5   9999  3.19816E-02  7.90749E+01 -1.00000E+00  1.28594E-01
      21    -1     0     0   511   501  0.000000000E+00  0.000000000E+00  7.981325894E+02  7.981325894E+02  0.000000000E+00  0.00000E+00  9.000E+00
      21    -1     0     0   501   502  0.000000000E+00  0.000000000E+00 -2.757650833E+02  2.757650833E+02  0.000000000E+00  0.00000E+00  9.000E+00
      25     1     1     2     0     0  3.650372770E+02  1.658907108E+02  3.594860146E+02  5.528355418E+02  1.250000000E+02  0.00000E+00  9.000E+00
      25     1     1     2     0     0 -2.863506424E+02 -1.737169364E+02  2.035484615E+01  3.580692450E+02  1.250000000E+02  0.00000E+00  9.000E+00
      21     1     1     2   511   502 -7.868663457E+01  7.826225686E+00  1.425266453E+02  1.629928860E+02  1.907348633E-06  0.00000E+00  9.000E+00
#rwgt            1           1   2.7922904535644891E-002          10      242239           0
</event>
<event>
      5   9999  3.19816E-02  6.34831E+01 -1.00000E+00  1.33407E-01
      21    -1     0     0   502   501  0.000000000E+00  0.000000000E+00  1.034329828E+03  1.034329828E+03  0.000000000E+00  0.00000E+00  9.000E+00
       1    -1     0     0   501     0  0.000000000E+00  0.000000000E+00 -6.260076383E+02  6.260076383E+02  0.000000000E+00  0.00000E+00  9.000E+00
      25     1     1     2     0     0 -1.635487944E+02 -1.707763537E+02  3.894523175E+02  4.724519857E+02  1.250000000E+02  0.00000E+00  9.000E+00
      25     1     1     2     0     0  1.558467175E+02  2.337904514E+02  5.622252476E+02  6.408341467E+02  1.250000000E+02  0.00000E+00  9.000E+00
       1     1     1     2   502     0  7.702076918E+00 -6.301409770E+01 -5.433553751E+02  5.470513341E+02  0.000000000E+00  0.00000E+00  9.000E+00
#rwgt            1           1   3.0819689671366952E-002          10      242349           0
</event>
<event>
      5   9999  3.19816E-02  9.50740E+01 -1.00000E+00  1.24823E-01
      21    -1     0     0   502   501  0.000000000E+00  0.000000000E+00  1.436982297E+02  1.436982297E+02  0.000000000E+00  0.00000E+00  9.000E+00
       1    -1     0     0   501     0  0.000000000E+00  0.000000000E+00 -1.941700667E+03  1.941700667E+03  0.000000000E+00  0.00000E+00  9.000E+00
      25     1     1     2     0     0 -1.418189959E+02  9.662221224E+01  3.097853965E-01  2.123053826E+02  1.250000000E+02  0.00000E+00  9.000E+00
      25     1     1     2     0     0  2.308366752E+02 -6.323179866E+01 -4.750947014E+02  5.464648262E+02  1.250000000E+02  0.00000E+00  9.000E+00
       1     1     1     2   502     0 -8.901767925E+01 -3.339041359E+01 -1.323217521E+03  1.326628688E+03  0.000000000E+00  0.00000E+00  9.000E+00
#rwgt            1           1   2.8277917626590748E-002          10      242403           0
</event>
<event>
      5   9999  3.19816E-02  5.48122E+01 -1.00000E+00  1.36836E-01
      21    -1     0     0   502   511  0.000000000E+00  0.000000000E+00  2.222083634E+03  2.222083634E+03  0.000000000E+00  0.00000E+00  9.000E+00
      21    -1     0     0   501   502  0.000000000E+00  0.000000000E+00 -4.861334386E+02  4.861334386E+02  0.000000000E+00  0.00000E+00  9.000E+00
      25     1     1     2     0     0  2.227376194E+02 -8.573290174E+01 -3.920075446E+02  4.756648953E+02  1.250000000E+02  0.00000E+00  9.000E+00
      25     1     1     2     0     0 -1.697316128E+02  7.177791371E+01  1.868950830E+02  2.907157741E+02  1.250000000E+02  0.00000E+00  9.000E+00
      21     1     1     2   501   511 -5.300600664E+01  1.395498803E+01  1.941062657E+03  1.941836403E+03  0.000000000E+00  0.00000E+00  9.000E+00
#rwgt            1           1   2.8868327164038858E-002          10      242461           0
</event>
<event>
      5   9999  3.19816E-02  5.71157E+01 -1.00000E+00  1.35857E-01
      21    -1     0     0   502   512  0.000000000E+00  0.000000000E+00  1.468324671E+02  1.468324671E+02  0.000000000E+00  0.00000E+00  9.000E+00
      21    -1     0     0   501   502  0.000000000E+00  0.000000000E+00 -1.199186166E+03  1.199186166E+03  0.000000000E+00  0.00000E+00  9.000E+00
      25     1     1     2     0     0  7.134452190E+01  3.293036829E+02 -3.153380557E+02  4.781150967E+02  1.250000000E+02  0.00000E+00  9.000E+00
      25     1     1     2     0     0 -1.238098191E+02 -3.518780261E+02 -6.884634183E+02  7.929400323E+02  1.250000000E+02  0.00000E+00  9.000E+00
      21     1     1     2   501   512  5.246529722E+01  2.257434321E+01 -4.855222472E+01  7.496350384E+01  1.348699152E-06  0.00000E+00  9.000E+00
#rwgt            2          11   4.2243723408713985E-003          10      242545           0
</event>
<event>
      5   9999  3.19816E-02  2.79470E+01 -1.00000E+00  1.55209E-01
      -2    -1     0     0     0   501  0.000000000E+00  0.000000000E+00  4.066718214E+02  4.066718214E+02  0.000000000E+00  0.00000E+00  9.000E+00
      21    -1     0     0   501   502  0.000000000E+00  0.000000000E+00 -1.639889996E+02  1.639889996E+02  0.000000000E+00  0.00000E+00  9.000E+00
      25     1     1     2     0     0  7.141643673E+01 -3.341875845E+01  7.602220770E+01  1.661971628E+02  1.250000000E+02  0.00000E+00  9.000E+00
      25     1     1     2     0     0 -5.572023652E+01  5.654152976E+01 -7.166362013E+01  1.645064248E+02  1.250000000E+02  0.00000E+00  9.000E+00
      -2     1     1     2     0   502 -1.569620021E+01 -2.312277131E+01  2.383242342E+02  2.399572334E+02  3.814697266E-06  0.00000E+00  9.000E+00
#rwgt            1           1   3.0085917085899045E-002          10      242565           0
</event>
<event>
      5   9999  3.19816E-02  8.31132E+00 -1.00000E+00  2.05526E-01
      21    -1     0     0   502   501  0.000000000E+00  0.000000000E+00  1.170425049E+02  1.170425049E+02  0.000000000E+00  0.00000E+00  9.000E+00
      21    -1     0     0   501   511  0.000000000E+00  0.000000000E+00 -7.722908255E+02  7.722908255E+02  0.000000000E+00  0.00000E+00  9.000E+00
      25     1     1     2     0     0 -1.252579398E+01 -9.488118732E+01 -3.059348039E+02  3.440645862E+02  1.250000000E+02  0.00000E+00  9.000E+00
      25     1     1     2     0     0  1.905728842E+01  1.000209951E+02  3.157933704E+01  1.642852222E+02  1.250000000E+02  0.00000E+00  9.000E+00
      21     1     1     2   502   511 -6.531494432E+00 -5.139807793E+00 -3.808928537E+02  3.809835220E+02  5.394796609E-06  0.00000E+00  9.000E+00
#rwgt            1           1   2.7100050361715054E-002          10      242696           0
</event>
<event>
      5   9999  3.19816E-02  1.42382E+02 -1.00000E+00  1.17298E-01
      21    -1     0     0   502   501  0.000000000E+00  0.000000000E+00  1.654692386E+03  1.654692386E+03  0.000000000E+00  0.00000E+00  9.000E+00
      21    -1     0     0   512   502  0.000000000E+00  0.000000000E+00 -3.130396391E+02  3.130396391E+02  0.000000000E+00  0.00000E+00  9.000E+00
      25     1     1     2     0     0 -1.706945453E+02 -1.377149543E+01  1.455203339E+03  1.470567251E+03  1.250000000E+02  0.00000E+00  9.000E+00
      25     1     1     2     0     0  3.130047494E+02  9.250224496E+00 -4.854485769E+01  3.406451864E+02  1.250000000E+02  0.00000E+00  9.000E+00
      21     1     1     2   512   501 -1.423102042E+02  4.521270930E+00 -6.500573381E+01  1.565195883E+02  2.523185073E-06  0.00000E+00  9.000E+00
#rwgt            1           1   2.7189651584082684E-002          10      242964           0
</event>
<event>
      5   9999  3.19816E-02  1.09718E+02 -1.00000E+00  1.22043E-01
       1    -1     0     0   502     0  0.000000000E+00  0.000000000E+00  5.935067980E+02  5.935067980E+02  0.000000000E+00  0.00000E+00  9.000E+00
      21    -1     0     0   501   502  0.000000000E+00  0.000000000E+00 -3.408777896E+02  3.408777896E+02  0.000000000E+00  0.00000E+00  9.000E+00
      25     1     1     2     0     0 -1.317914630E+02 -1.941105546E+02 -2.071444075E+02  3.370188462E+02  1.250000000E+02  0.00000E+00  9.000E+00
      25     1     1     2     0     0  1.572546186E+02  8.738819427E+01  1.417020621E+02  2.609026370E+02  1.250000000E+02  0.00000E+00  9.000E+00
       1     1     1     2   501     0 -2.546315567E+01  1.067223603E+02  3.180713539E+02  3.364631044E+02  0.000000000E+00  0.00000E+00  9.000E+00
#rwgt            1           1   2.6604245304645110E-002          10      243020           0
</event>
<event>
      5   9999  3.19816E-02  8.55557E+01 -1.00000E+00  1.26954E-01
      21    -1     0     0   511   501  0.000000000E+00  0.000000000E+00  1.964327175E+03  1.964327175E+03  0.000000000E+00  0.00000E+00  9.000E+00
      21    -1     0     0   501   502  0.000000000E+00  0.000000000E+00 -4.478221862E+01  4.478221862E+01  0.000000000E+00  0.00000E+00  9.000E+00
      25     1     1     2     0     0  1.654798369E+02  8.446032195E+00  1.013160441E+03  1.034202104E+03  1.250000000E+02  0.00000E+00  9.000E+00
      25     1     1     2     0     0 -2.264325702E+02 -6.848387295E+01  6.030761082E+02  6.597632469E+02  1.250000000E+02  0.00000E+00  9.000E+00
      21     1     1     2   511   502  6.095273330E+01  6.003784075E+01  3.033084065E+02  3.151440424E+02  5.394796609E-06  0.00000E+00  9.000E+00
#rwgt            1           1   3.4632256987999988E-002          10      243079           0
</event>
<event>
      5   9999  3.19816E-02  6.54063E+01 -1.00000E+00  1.32731E-01
       2    -1     0     0   502     0  0.000000000E+00  0.000000000E+00  1.011714037E+03  1.011714037E+03  0.000000000E+00  0.00000E+00  9.000E+00
      21    -1     0     0   501   502  0.000000000E+00  0.000000000E+00 -9.781195128E+01  9.781195128E+01  0.000000000E+00  0.00000E+00  9.000E+00
      25     1     1     2     0     0 -1.085676457E+02  1.841485288E+02  3.796399631E+02  4.532649511E+02  1.250000000E+02  0.00000E+00  9.000E+00
      25     1     1     2     0     0  7.841215178E+01 -1.261086705E+02  1.023727905E+02  2.194471475E+02  1.250000000E+02  0.00000E+00  9.000E+00
       2     1     1     2   501     0  3.015549393E+01 -5.803985835E+01  4.318893321E+02  4.368138896E+02  0.000000000E+00  0.00000E+00  9.000E+00
#rwgt            1           1   2.5272262881194735E-002          10      243139           0
</event>
<event>
      5   9999  3.19816E-02  1.69992E+01 -1.00000E+00  1.72413E-01
      21    -1     0     0   502   501  0.000000000E+00  0.000000000E+00  6.843871774E+02  6.843871774E+02  0.000000000E+00  0.00000E+00  9.000E+00
      21    -1     0     0   501   511  0.000000000E+00  0.000000000E+00 -2.132719378E+02  2.132719378E+02  0.000000000E+00  0.00000E+00  9.000E+00
      25     1     1     2     0     0  1.185528701E+02  2.434645653E+02  4.444778830E+02  5.352713014E+02  1.250000000E+02  0.00000E+00  9.000E+00
      25     1     1     2     0     0 -1.039112100E+02 -2.521013267E+02  7.661987880E+01  3.095936438E+02  1.250000000E+02  0.00000E+00  9.000E+00
      21     1     1     2   502   511 -1.464166016E+01  8.636761399E+00 -4.998252225E+01  5.279417004E+01  9.536743164E-07  0.00000E+00  9.000E+00
#rwgt            1           1   2.7015087595958182E-002          10      243202           0
</event>
<event>
      5   9999  3.19816E-02  8.90490E+01 -1.00000E+00  1.26137E-01
      21    -1     0     0   502   501  0.000000000E+00  0.000000000E+00  3.247550899E+02  3.247550899E+02  0.000000000E+00  0.00000E+00  9.000E+00
      21    -1     0     0   512   502  0.000000000E+00  0.000000000E+00 -3.696820927E+02  3.696820927E+02  0.000000000E+00  0.00000E+00  9.000E+00
      25     1     1     2     0     0 -1.268381394E+02  1.869266417E+02 -8.456440007E-02  2.581753089E+02  1.250000000E+02  0.00000E+00  9.000E+00
      25     1     1     2     0     0  1.845018305E+02 -2.547839693E+02 -4.567617984E+00  3.385286688E+02  1.250000000E+02  0.00000E+00  9.000E+00
      21     1     1     2   512   501 -5.766369114E+01  6.785732759E+01 -4.027482040E+01  9.773320491E+01  1.507891493E-06  0.00000E+00  9.000E+00
#rwgt            1           1   3.3402425630512246E-002          10      243372           0
</event>
<event>
      5   9999  3.19816E-02  6.05744E+01 -1.00000E+00  1.34483E-01
      21    -1     0     0   502   501  0.000000000E+00  0.000000000E+00  1.091839532E+03  1.091839532E+03  0.000000000E+00  0.00000E+00  9.000E+00
      21    -1     0     0   511   502  0.000000000E+00  0.000000000E+00 -1.868470048E+02  1.868470048E+02  0.000000000E+00  0.00000E+00  9.000E+00
      25     1     1     2     0     0 -6.039789683E+01  3.074973989E+02  7.230257279E+02  7.978682595E+02  1.250000000E+02  0.00000E+00  9.000E+00
      25     1     1     2     0     0  5.917240636E-03 -3.121954410E+02  2.266571561E+02  4.055421801E+02  1.250000000E+02  0.00000E+00  9.000E+00
      21     1     1     2   511   501  6.039197959E+01  4.698042087E+00 -4.469035698E+01  7.527609717E+01  1.430511475E-06  0.00000E+00  9.000E+00
#rwgt            1           1   3.0302163104512083E-002          10      243444           0
</event>
<event>
      5   9999  3.19816E-02  1.03863E+02 -1.00000E+00  1.23092E-01
      21    -1     0     0   502   501  0.000000000E+00  0.000000000E+00  1.472131390E+02  1.472131390E+02  0.000000000E+00  0.00000E+00  9.000E+00
      21    -1     0     0   501   512  0.000000000E+00  0.000000000E+00 -1.354111902E+03  1.354111902E+03  0.000000000E+00  0.00000E+00  9.000E+00
      25     1     1     2     0     0 -6.138924999E+01 -2.350799039E+02 -8.792969600E+02  9.207710601E+02  1.250000000E+02  0.00000E+00  9.000E+00
      25     1     1     2     0     0  1.422647696E+02  3.002468926E+02 -1.745184371E+02  3.955618107E+02  1.250000000E+02  0.00000E+00  9.000E+00
      21     1     1     2   502   512 -8.087551963E+01 -6.516698873E+01 -1.530833656E+02  1.849921699E+02  0.000000000E+00  0.00000E+00  9.000E+00
#rwgt            1           1   3.0521547642928464E-002          10      243561           0
</event>
<event>
      5   9999  3.19816E-02  2.55578E+02 -1.00000E+00  1.07904E-01
      21    -1     0     0   502   501  0.000000000E+00  0.000000000E+00  3.432982982E+02  3.432982982E+02  0.000000000E+00  0.00000E+00  9.000E+00
       2    -1     0     0   501     0  0.000000000E+00  0.000000000E+00 -1.004171057E+03  1.004171057E+03  0.000000000E+00  0.00000E+00  9.000E+00
      25     1     1     2     0     0 -3.307174853E+02  1.125914427E+01 -1.522755192E+02  3.851151219E+02  1.250000000E+02  0.00000E+00  9.000E+00
      25     1     1     2     0     0  1.394903113E+02  1.583059536E+02  1.278079309E+02  2.765469021E+02  1.250000000E+02  0.00000E+00  9.000E+00
       2     1     1     2   502     0  1.912271739E+02 -1.695650978E+02 -6.364051705E+02  6.858073312E+02  1.525878906E-05  0.00000E+00  9.000E+00
#rwgt            1           1   2.6533891336496321E-002          10      243646           0
</event>
<event>
      5   9999  3.19816E-02  2.67919E+02 -1.00000E+00  1.07213E-01
      21    -1     0     0   502   511  0.000000000E+00  0.000000000E+00  7.442736569E+02  7.442736569E+02  0.000000000E+00  0.00000E+00  9.000E+00
      21    -1     0     0   501   502  0.000000000E+00  0.000000000E+00 -8.633621706E+02  8.633621706E+02  0.000000000E+00  0.00000E+00  9.000E+00
      25     1     1     2     0     0 -3.491729083E+02  7.029551860E+01  1.131564080E+02  3.940717606E+02  1.250000000E+02  0.00000E+00  9.000E+00
      25     1     1     2     0     0  3.771835620E+02  1.961548708E+02 -6.078293124E+02  7.522138298E+02  1.250000000E+02  0.00000E+00  9.000E+00
      21     1     1     2   501   511 -2.801065366E+01 -2.664503894E+02  3.755843906E+02  4.613502370E+02  0.000000000E+00  0.00000E+00  9.000E+00
#rwgt            1           1   2.5376024426120431E-002          10      243691           0
</event>
<event>
      5   9999  3.19816E-02  3.77319E+01 -1.00000E+00  1.46430E-01
      21    -1     0     0   502   501  0.000000000E+00  0.000000000E+00  3.003774498E+02  3.003774498E+02  0.000000000E+00  0.00000E+00  9.000E+00
      21    -1     0     0   512   502  0.000000000E+00  0.000000000E+00 -3.682570109E+02  3.682570109E+02  0.000000000E+00  0.00000E+00  9.000E+00
      25     1     1     2     0     0 -1.017960355E+02 -2.774232453E+02 -8.354670137E+01  3.315586542E+02  1.250000000E+02  0.00000E+00  9.000E+00
      25     1     1     2     0     0  1.148632063E+02  2.420262846E+02  2.902697286E+01  2.970485545E+02  1.250000000E+02  0.00000E+00  9.000E+00
      21     1     1     2   512   501 -1.306717078E+01  3.539696064E+01 -1.335983262E+01  4.002725200E+01  5.057621821E-07  0.00000E+00  9.000E+00
#rwgt            1           1   2.5922737447213701E-002          10      243723           0
</event>
<event>
      5   9999  3.19816E-02  7.57140E+01 -1.00000E+00  1.29518E-01
      21    -1     0     0   502   501  0.000000000E+00  0.000000000E+00  1.512274345E+03  1.512274345E+03  0.000000000E+00  0.00000E+00  9.000E+00
      21    -1     0     0   501   511  0.000000000E+00  0.000000000E+00 -3.623898363E+02  3.623898363E+02  0.000000000E+00  0.00000E+00  9.000E+00
      25     1     1     2     0     0  1.531887557E+02 -3.602590846E+02 -3.689956715E+01  4.126014797E+02  1.250000000E+02  0.00000E+00  9.000E+00
      25     1     1     2     0     0 -1.248408856E+02  2.900522383E+02  1.290055065E+03  1.334009977E+03  1.250000000E+02  0.00000E+00  9.000E+00
      21     1     1     2   502   511 -2.834787019E+01  7.020684633E+01 -1.032709893E+02  1.280527245E+02  3.015782986E-06  0.00000E+00  9.000E+00
#rwgt            1           1   3.0178249047160034E-002          10      243857           0
</event>
<event>
      5   9999  3.19816E-02  2.17033E+02  7.55638E-03  1.10371E-01
       2    -1     0     0   501     0  0.000000000E+00  0.000000000E+00  1.610541770E+03  1.610541770E+03  0.000000000E+00  0.00000E+00  9.000E+00
      -2    -1     0     0     0   502  0.000000000E+00  0.000000000E+00 -2.749053997E+02  2.749053997E+02  0.000000000E+00  0.00000E+00  9.000E+00
      25     1     1     2     0     0 -3.481976906E+02  1.853145249E+01 -1.091733845E+02  3.861720787E+02  1.250000000E+02  0.00000E+00  9.000E+00
      25     1     1     2     0     0  1.325623669E+02  6.061330894E+00  6.045707983E+02  6.314589227E+02  1.250000000E+02  0.00000E+00  9.000E+00
      21     1     1     2   501   502  2.156353238E+02 -2.459278338E+01  8.402389568E+02  8.678161685E+02  1.078959322E-05  0.00000E+00  9.000E+00
#rwgt            3           7   8.8441177754945185E-006          10      243983           0
</event>
<event>
      5   9999  3.19816E-02  1.84866E+02 -1.00000E+00  1.12906E-01
      -2    -1     0     0     0   501  0.000000000E+00  0.000000000E+00  2.059966527E+02  2.059966527E+02  0.000000000E+00  0.00000E+00  9.000E+00
      21    -1     0     0   501   502  0.000000000E+00  0.000000000E+00 -9.577622092E+02  9.577622092E+02  0.000000000E+00  0.00000E+00  9.000E+00
      25     1     1     2     0     0 -1.729808519E+02 -8.897127948E+01 -7.292526921E+02  7.650312103E+02  1.250000000E+02  0.00000E+00  9.000E+00
      25     1     1     2     0     0 -9.700641063E+00  1.173065742E+02 -9.953082901E+01  1.984598718E+02  1.250000000E+02  0.00000E+00  9.000E+00
      -2     1     1     2     0   502  1.826814930E+02 -2.833529471E+01  7.701796465E+01  2.002677799E+02  4.768371582E-06  0.00000E+00  9.000E+00
#rwgt            2           4   1.5185746838143881E-004          10      244017           0
</event>
<event>
      5   9999  3.19816E-02  1.69235E+01 -1.00000E+00  1.72585E-01
      21    -1     0     0   502   501  0.000000000E+00  0.000000000E+00  1.755038213E+03  1.755038213E+03  0.000000000E+00  0.00000E+00  9.000E+00
      21    -1     0     0   501   511  0.000000000E+00  0.000000000E+00 -2.097503166E+02  2.097503166E+02  0.000000000E+00  0.00000E+00  9.000E+00
      25     1     1     2     0     0 -6.579578063E+01 -3.161957823E+02  8.454836537E+02  9.136610236E+02  1.250000000E+02  0.00000E+00  9.000E+00
      25     1     1     2     0     0  8.086876302E+01  3.238906624E+02  8.386443837E+02  9.112597436E+02  1.250000000E+02  0.00000E+00  9.000E+00
      21     1     1     2   502   511 -1.507298239E+01 -7.694880092E+00 -1.388401413E+02  1.398677619E+02  3.303624740E-06  0.00000E+00  9.000E+00
#rwgt            1           1   3.6701874246992110E-002          10      244036           0
</event>
<event>
      5   9999  3.19816E-02  1.23644E+02 -1.00000E+00  1.19819E-01
      21    -1     0     0   512   501  0.000000000E+00  0.000000000E+00  5.930022857E+02  5.930022857E+02  0.000000000E+00  0.00000E+00  9.000E+00
      21    -1     0     0   501   502  0.000000000E+00  0.000000000E+00 -1.045134556E+02  1.045134556E+02  0.000000000E+00  0.00000E+00  9.000E+00
      25     1     1     2     0     0  2.372806283E+01  6.810363185E+01  1.825407203E+02  2.326955956E+02  1.250000000E+02  0.00000E+00  9.000E+00
      25     1     1     2     0     0 -1.152901515E+02  1.498846009E+01  4.574120742E+01  1.767306737E+02  1.250000000E+02  0.00000E+00  9.000E+00
      21     1     1     2   512   502  9.156208864E+01 -8.309209194E+01  2.602069024E+02  2.880894720E+02  5.394796609E-06  0.00000E+00  9.000E+00
#rwgt            1           1   8.1062894874538327E-002          10      244185           0
</event>
<event>
      5   9999  3.19816E-02  3.03565E+01 -1.00000E+00  1.52684E-01
      21    -1     0     0   502   501  0.000000000E+00  0.000000000E+00  2.912176845E+02  2.912176845E+02  0.000000000E+00  0.00000E+00  9.000E+00
      21    -1     0     0   501   511  0.000000000E+00  0.000000000E+00 -7.805764006E+02  7.805764006E+02  0.000000000E+00  0.00000E+00  9.000E+00
      25     1     1     2     0     0 -3.393135917E+02  1.058014981E+02  2.506917671E+01  3.775991713E+02  1.250000000E+02  0.00000E+00  9.000E+00
      25     1     1     2     0     0  3.690627771E+02 -1.118430448E+02 -3.774854451E+02  5.539282096E+02  1.250000000E+02  0.00000E+00  9.000E+00
      21     1     1     2   502   511 -2.974918533E+01  6.041546677E+00 -1.369424477E+02  1.402667042E+02  2.697398305E-06  0.00000E+00  9.000E+00
#rwgt            1           1   2.8555414723588170E-002          10      244221           0
</event>
<event>
      5   9999  3.19816E-02  3.75537E+01 -1.00000E+00  1.46561E-01
       2    -1     0     0   502     0  0.000000000E+00  0.000000000E+00  1.705192116E+02  1.705192116E+02  0.000000000E+00  0.00000E+00  9.000E+00
      21    -1     0     0   501   502  0.000000000E+00  0.000000000E+00 -1.039228627E+03  1.039228627E+03  0.000000000E+00  0.00000E+00  9.000E+00
      25     1     1     2     0     0 -1.310347273E+02  2.471468625E+02 -7.686114369E+01  3.158865410E+02  1.250000000E+02  0.00000E+00  9.000E+00
      25     1     1     2     0     0  1.550290177E+02 -2.760354920E+02 -7.850971233E+02  8.557056048E+02  1.250000000E+02  0.00000E+00  9.000E+00
       2     1     1     2   501     0 -2.399429050E+01  2.888862952E+01 -6.751148570E+00  3.815569288E+01  5.654593098E-07  0.00000E+00  9.000E+00
#rwgt            1           1   2.9050648308237642E-002          10      244382           0
</event>
<event>
      5   9999  3.19816E-02  1.19046E+02 -1.00000E+00  1.20516E-01
      21    -1     0     0   502   501  0.000000000E+00  0.000000000E+00  3.587057575E+02  3.587057575E+02  0.000000000E+00  0.00000E+00  9.000E+00
       1    -1     0     0   501     0  0.000000000E+00  0.000000000E+00 -2.467642304E+03  2.467642304E+03  0.000000000E+00  0.00000E+00  9.000E+00
      25     1     1     2     0     0  6.507129025E+02 -2.172323880E+02 -1.270074546E+03  1.448907017E+03  1.250000000E+02  0.00000E+00  9.000E+00
      25     1     1     2     0     0 -7.490211014E+02  1.500953035E+02 -9.424827825E+02  1.219614696E+03  1.250000000E+02  0.00000E+00  9.000E+00
       1     1     1     2   502     0  9.830819890E+01  6.713708447E+01  1.036207816E+02  1.578263491E+02  2.336015456E-06  0.00000E+00  9.000E+00
#rwgt            1           1   3.8139546629819707E-002          10      244548           0
</event>
<event>
      5   9999  3.19816E-02  2.65066E+02 -1.00000E+00  1.07369E-01
      21    -1     0     0   502   501  0.000000000E+00  0.000000000E+00  5.126909374E+02  5.126909374E+02  0.000000000E+00  0.00000E+00  9.000E+00
      21    -1     0     0   501   511  0.000000000E+00  0.000000000E+00 -1.274869073E+03  1.274869073E+03  0.000000000E+00  0.00000E+00  9.000E+00
      25     1     1     2     0     0 -7.974634555E+01  2.383244294E+02  3.308659760E+02  4.338839792E+02  1.250000000E+02  0.00000E+00  9.000E+00
      25     1     1     2     0     0  3.281003584E+02 -1.456936583E+02 -2.154902532E+02  4.369639991E+02  1.250000000E+02  0.00000E+00  9.000E+00
      21     1     1     2   502   511 -2.483540128E+02 -9.263077111E+01 -8.775538589E+02  9.167120326E+02  1.078959322E-05  0.00000E+00  9.000E+00
#rwgt            1           1   3.0237080979692195E-002          10      244600           0
</event>
<event>
      5   9999  3.19816E-02  4.20853E+01 -1.00000E+00  1.43485E-01
      21    -1     0     0   502   501  0.000000000E+00  0.000000000E+00  1.247449985E+02  1.247449985E+02  0.000000000E+00  0.00000E+00  9.000E+00
      21    -1     0     0   501   512  0.000000000E+00  0.000000000E+00 -5.549551088E+02  5.549551088E+02  0.000000000E+00  0.00000E+00  9.000E+00
      25     1     1     2     0     0 -6.085655993E+01  1.229402583E+02 -1.653211736E+02  2.485435946E+02  1.250000000E+02  0.00000E+00  9.000E+00
      25     1     1     2     0     0  2.144826706E+01 -1.081700461E+02 -3.837921187E+00  1.667348694E+02  1.250000000E+02  0.00000E+00  9.000E+00
      21     1     1     2   502   512  3.940829287E+01 -1.477021219E+01 -2.610510155E+02  2.644216433E+02  6.607249480E-06  0.00000E+00  9.000E+00
#rwgt            1           1   3.0209340783743932E-002          10      244651           0
</event>
<event>
      5   9999  3.19816E-02  1.14100E+02 -1.00000E+00  1.21305E-01
      21    -1     0     0   502   501  0.000000000E+00  0.000000000E+00  1.610654729E+02  1.610654729E+02  0.000000000E+00  0.00000E+00  9.000E+00
       2    -1     0     0   501     0  0.000000000E+00  0.000000000E+00 -1.987172039E+03  1.987172039E+03  0.000000000E+00  0.00000E+00  9.000E+00
      25     1     1     2     0     0 -1.102250270E+01  2.469212896E+02 -1.543805481E+03  1.568455285E+03  1.250000000E+02  0.00000E+00  9.000E+00
      25     1     1     2     0     0  7.489884389E+01 -3.414652940E+02 -1.385889332E+02  3.962830759E+02  1.250000000E+02  0.00000E+00  9.000E+00
       2     1     1     2   502     0 -6.387634119E+01  9.454400435E+01 -1.437121517E+02  1.834991506E+02  4.264961200E-06  0.00000E+00  9.000E+00
#rwgt            1           1   3.0964808760557461E-002          10      244759           0
</event>
<event>
      5   9999  3.19816E-02  1.22576E+01 -1.00000E+00  1.86063E-01
      21    -1     0     0   511   501  0.000000000E+00  0.000000000E+00  3.869247301E+02  3.869247301E+02  0.000000000E+00  0.00000E+00  9.000E+00
      21    -1     0     0   501   502  0.000000000E+00  0.000000000E+00 -6.259030050E+02  6.259030050E+02  0.000000000E+00  0.00000E+00  9.000E+00
      25     1     1     2     0     0  4.626097546E+02 -4.752784581E+01 -6.711299044E+01  4.862055477E+02  1.250000000E+02  0.00000E+00  9.000E+00
      25     1     1     2     0     0 -4.608608842E+02  3.539562279E+01 -1.804082068E+02  5.116812736E+02  1.250000000E+02  0.00000E+00  9.000E+00
      21     1     1     2   511   502 -1.748870371E+00  1.213222302E+01  8.542922312E+00  1.494091379E+01  1.685873940E-07  0.00000E+00  9.000E+00
#rwgt            1           1   2.5404926268190308E-002          10      244828           0
</event>
<event>
      5   9999  3.19816E-02  1.05578E+03 -1.00000E+00  9.04288E-02
      21    -1     0     0   502   501  0.000000000E+00  0.000000000E+00  1.200382900E+03  1.200382900E+03  0.000000000E+00  0.00000E+00  9.000E+00
       2    -1     0     0   501     0  0.000000000E+00  0.000000000E+00 -2.306667858E+03  2.306667858E+03  0.000000000E+00  0.00000E+00  9.000E+00
      25     1     1     2     0     0 -7.748513160E+01  5.310479996E+02 -1.434764827E+02  5.694088378E+02  1.250000000E+02  0.00000E+00  9.000E+00
      25     1     1     2     0     0  9.366468514E+02 -1.144661737E+03 -1.134188819E+03  1.868038301E+03  1.250000000E+02  0.00000E+00  9.000E+00
       2     1     1     2   502     0 -8.591617198E+02  6.136137376E+02  1.713803436E+02  1.069603619E+03  2.018548058E-05  0.00000E+00  9.000E+00
#rwgt            2          13   3.7067181545100521E-004          10      245142           0
</event>
<event>
      5   9999  3.19816E-02  4.37041E+01 -1.00000E+00  1.42494E-01
      21    -1     0     0   511   501  0.000000000E+00  0.000000000E+00  1.489882398E+02  1.489882398E+02  0.000000000E+00  0.00000E+00  9.000E+00
      21    -1     0     0   501   502  0.000000000E+00  0.000000000E+00 -6.694056627E+02  6.694056627E+02  0.000000000E+00  0.00000E+00  9.000E+00
      25     1     1     2     0     0  3.811238470E+01  2.056904237E+01 -6.007647385E+02  6.151576306E+02  1.250000000E+02  0.00000E+00  9.000E+00
      25     1     1     2     0     0  2.561600814E-01 -4.149514557E+01  8.863306135E+01  1.587536843E+02  1.250000000E+02  0.00000E+00  9.000E+00
      21     1     1     2   511   502 -3.836854478E+01  2.092610321E+01 -8.285745721E+00  4.448258768E+01  9.461944024E-07  0.00000E+00  9.000E+00
#rwgt            1           1   2.7420483579111674E-002          10      245176           0
</event>
<event>
      5   9999  3.19816E-02  3.05261E+01 -1.00000E+00  1.52517E-01
      21    -1     0     0   502   512  0.000000000E+00  0.000000000E+00  1.037314826E+03  1.037314826E+03  0.000000000E+00  0.00000E+00  9.000E+00
      21    -1     0     0   501   502  0.000000000E+00  0.000000000E+00 -4.442278938E+01  4.442278938E+01  0.000000000E+00  0.00000E+00  9.000E+00
      25     1     1     2     0     0 -9.612526139E+01 -1.231901108E+02  3.501076992E+02  4.032570772E+02  1.250000000E+02  0.00000E+00  9.000E+00
      25     1     1     2     0     0  1.022633721E+02  9.328746988E+01  5.605135824E+02  5.907290625E+02  1.250000000E+02  0.00000E+00  9.000E+00
      21     1     1     2   501   512 -6.138110735E+00  2.990264092E+01  8.227075497E+01  8.775147555E+01  1.651812370E-06  0.00000E+00  9.000E+00
#rwgt            1           1   2.9385637517579256E-002          10      245287           0
</event>
<event>
      5   9999  3.19816E-02  9.22014E+01 -1.00000E+00  1.25435E-01
      21    -1     0     0   502   511  0.000000000E+00  0.000000000E+00  5.788653291E+02  5.788653291E+02  0.000000000E+00  0.00000E+00  9.000E+00
      21    -1     0     0   501   502  0.000000000E+00  0.000000000E+00 -2.092675078E+03  2.092675078E+03  0.000000000E+00  0.00000E+00  9.000E+00
      25     1     1     2     0     0 -1.672125055E+02 -6.087724407E+02 -1.303321848E+01  6.437070540E+02  1.250000000E+02  0.00000E+00  9.000E+00
      25     1     1     2     0     0  1.794729700E+02  7.001550679E+02 -1.676190869E+03  1.829663492E+03  1.250000000E+02  0.00000E+00  9.000E+00
      21     1     1     2   501   511 -1.226046453E+01 -9.138262718E+01  1.754143386E+02  1.981698608E+02  4.672030912E-06  0.00000E+00  9.000E+00
#rwgt            1           1   3.0809333873732640E-002          10      245377           0
</event>
<event>
      5   9999  3.19816E-02  3.98053E+02 -1.00000E+00  1.01749E-01
      21    -1     0     0   502   501  0.000000000E+00  0.000000000E+00  8.192768317E+02  8.192768317E+02  0.000000000E+00  0.00000E+00  9.000E+00
       1    -1     0     0   501     0  0.000000000E+00  0.000000000E+00 -1.603959110E+03  1.603959110E+03  0.000000000E+00  0.00000E+00  9.000E+00
      25     1     1     2     0     0  3.858390340E+02 -6.215164678E+02 -1.979343951E+02  7.680869122E+02  1.250000000E+02  0.00000E+00  9.000E+00
      25     1     1     2     0     0 -1.292532016E+02  9.258352323E+02  3.598649888E+00  9.431411441E+02  1.250000000E+02  0.00000E+00  9.000E+00
       1     1     1     2   502     0 -2.565858324E+02 -3.043187644E+02 -5.903465334E+02  7.120078856E+02  1.078959322E-05  0.00000E+00  9.000E+00
#rwgt            2          12   5.7402236212135427E-004          10      245635           0
</event>
<event>
      5   9999  3.19816E-02  7.39307E+01 -1.00000E+00  1.30030E-01
      21    -1     0     0   502   501  0.000000000E+00  0.000000000E+00  5.469020758E+02  5.469020758E+02  0.000000000E+00  0.00000E+00  9.000E+00
      21    -1     0     0   511   502  0.000000000E+00  0.000000000E+00 -1.138505587E+03  1.138505587E+03  0.000000000E+00  0.00000E+00  9.000E+00
      25     1     1     2     0     0  5.886010115E+02  9.235775910E+01  2.237187612E+02  6.485801343E+02  1.250000000E+02  0.00000E+00  9.000E+00
      25     1     1     2     0     0 -5.332369020E+02 -1.413532998E+02 -7.020953201E+02  9.016014572E+02  1.250000000E+02  0.00000E+00  9.000E+00
      21     1     1     2   511   501 -5.536410950E+01  4.899554074E+01 -1.132269520E+02  1.352260711E+02  1.907348633E-06  0.00000E+00  9.000E+00
#rwgt            1           1   3.1656980525199087E-002          10      245654           0
</event>
<event>
      5   9999  3.19816E-02  1.61377E+02 -1.00000E+00  1.15149E-01
      21    -1     0     0   502   501  0.000000000E+00  0.000000000E+00  2.602079468E+02  2.602079468E+02  0.000000000E+00  0.00000E+00  9.000E+00
      21    -1     0     0   501   512  0.000000000E+00  0.000000000E+00 -1.141877824E+03  1.141877824E+03  0.000000000E+00  0.00000E+00  9.000E+00
      25     1     1     2     0     0 -3.489077197E+02  1.791596635E+02 -5.601869519E+02  6.951756634E+02  1.250000000E+02  0.00000E+00  9.000E+00
      25     1     1     2     0     0  3.685870331E+02 -1.898721276E+01 -5.244239221E+01  3.931820440E+02  1.250000000E+02  0.00000E+00  9.000E+00
      21     1     1     2   502   512 -1.967931338E+01 -1.601724507E+02 -2.690405331E+02  3.137280634E+02  3.814697266E-06  0.00000E+00  9.000E+00
#rwgt            1           1   2.9842664794721526E-002          10      245790           0
</event>
<event>
      5   9999  3.19816E-02  6.59149E+01 -1.00000E+00  1.32557E-01
      21    -1     0     0   502   501  0.000000000E+00  0.000000000E+00  9.854989807E+02  9.854989807E+02  0.000000000E+00  0.00000E+00  9.000E+00
      21    -1     0     0   501   511  0.000000000E+00  0.000000000E+00 -3.909394942E+02  3.909394942E+02  0.000000000E+00  0.00000E+00  9.000E+00
      25     1     1     2     0     0  2.588202325E+02  3.324036179E+01  4.743293277E+02  5.556133057E+02  1.250000000E+02  0.00000E+00  9.000E+00
      25     1     1     2     0     0 -3.246904957E+02 -3.081437649E+01  4.013663274E+02  5.320651958E+02  1.250000000E+02  0.00000E+00  9.000E+00
      21     1     1     2   502   511  6.587026325E+01 -2.425985298E+00 -2.811361685E+02  2.887599734E+02  5.394796609E-06  0.00000E+00  9.000E+00
#rwgt            1           1   2.6111582039548119E-002          10      245879           0
</event>
<event>
      5   9999  3.19816E-02  6.05083E+01 -1.00000E+00  1.34508E-01
       2    -1     0     0   502     0  0.000000000E+00  0.000000000E+00  1.528636726E+03  1.528636726E+03  0.000000000E+00  0.00000E+00  9.000E+00
      21    -1     0     0   501   502  0.000000000E+00  0.000000000E+00 -9.355477263E+01  9.355477263E+01  0.000000000E+00  0.00000E+00  9.000E+00
      25     1     1     2     0     0 -2.021998489E+02  9.959954942E+01  1.081146594E+03  1.111444019E+03  1.250000000E+02  0.00000E+00  9.000E+00
      25     1     1     2     0     0  2.393082981E+02 -1.473930797E+02  3.005165516E+02  4.300329980E+02  1.250000000E+02  0.00000E+00  9.000E+00
       2     1     1     2   501     0 -3.710844923E+01  4.779353033E+01  5.341880726E+01  8.071448145E+01  1.168007728E-06  0.00000E+00  9.000E+00
#rwgt            1           1   3.3431739808413144E-002          10      245963           0
</event>
<event>
      5   9999  3.19816E-02  4.92167E+01 -1.00000E+00  1.39468E-01
      21    -1     0     0   502   501  0.000000000E+00  0.000000000E+00  2.064529352E+02  2.064529352E+02  0.000000000E+00  0.00000E+00  9.000E+00
      21    -1     0     0   501   511  0.000000000E+00  0.000000000E+00 -1.406639506E+03  1.406639506E+03  0.000000000E+00  0.00000E+00  9.000E+00
      25     1     1     2     0     0  4.421144292E+02 -1.823932276E+02 -3.191264370E+02  5.883868972E+02  1.250000000E+02  0.00000E+00  9.000E+00
      25     1     1     2     0     0 -3.929095877E+02  1.813109731E+02 -6.654864388E+02  8.035849758E+02  1.250000000E+02  0.00000E+00  9.000E+00
      21     1     1     2   502   511 -4.920484147E+01  1.082254462E+00 -2.155736949E+02  2.211205681E+02  0.000000000E+00  0.00000E+00  9.000E+00
#rwgt            1           1   2.9007568425944152E-002          10      246037           0
</event>
<event>
      5   9999  3.19816E-02  3.47279E+01 -1.00000E+00  1.48753E-01
      21    -1     0     0   502   501  0.000000000E+00  0.000000000E+00  5.923406435E+02  5.923406435E+02  0.000000000E+00  0.00000E+00  9.000E+00
       1    -1     0     0   501     0  0.000000000E+00  0.000000000E+00 -5.430931771E+02  5.430931771E+02  0.000000000E+00  0.00000E+00  9.000E+00
      25     1     1     2     0     0  3.318342177E+00 -1.731983591E+02  4.562625734E+02  5.037948182E+02  1.250000000E+02  0.00000E+00  9.000E+00
      25     1     1     2     0     0 -5.473262624E+00  2.078593142E+02 -2.040063574E+01  2.434679384E+02  1.250000000E+02  0.00000E+00  9.000E+00
       1     1     1     2   502     0  2.154920447E+00 -3.466095512E+01 -3.866144713E+02  3.881710639E+02  5.394796609E-06  0.00000E+00  9.000E+00
#rwgt            1           1   2.8193159727895052E-002          10      246135           0
</event>
<event>
      5   9999  3.19816E-02  1.02496E+03 -1.00000E+00  9.07349E-02
      21    -1     0     0   502   501  0.000000000E+00  0.000000000E+00  3.444672145E+03  3.444672145E+03  0.000000000E+00  0.00000E+00  9.000E+00
      21    -1     0     0   511   502  0.000000000E+00  0.000000000E+00 -2.230382333E+03  2.230382333E+03  0.000000000E+00  0.00000E+00  9.000E+00
      25     1     1     2     0     0 -3.353434053E+02  1.075527924E+03  3.157399630E+03  3.354700127E+03  1.250000000E+02  0.00000E+00  9.000E+00
      25     1     1     2     0     0 -6.166863348E+01 -1.305808995E+02 -1.106758322E+02  2.207453997E+02  1.250000000E+02  0.00000E+00  9.000E+00
      21     1     1     2   511   501  3.970120387E+02 -9.449470246E+02 -1.832433986E+03  2.099608952E+03  3.737624730E-05  0.00000E+00  9.000E+00
#rwgt            2          11   2.9074358053704247E-003          10      246240           0
</event>
<event>
      5   9999  3.19816E-02  1.85120E+02 -1.00000E+00  1.12884E-01
      21    -1     0     0   512   501  0.000000000E+00  0.000000000E+00  2.163946451E+02  2.163946451E+02  0.000000000E+00  0.00000E+00  9.000E+00
      21    -1     0     0   501   502  0.000000000E+00  0.000000000E+00 -9.318461785E+02  9.318461785E+02  0.000000000E+00  0.00000E+00  9.000E+00
      25     1     1     2     0     0 -3.579010474E+02 -6.159921024E+01 -2.576847377E+02  4.625084286E+02  1.250000000E+02  0.00000E+00  9.000E+00
      25     1     1     2     0     0  2.058970312E+02 -4.406160457E+01 -4.350444142E+02  4.992230511E+02  1.250000000E+02  0.00000E+00  9.000E+00
      21     1     1     2   512   502  1.520040163E+02  1.056608148E+02 -2.272238155E+01  1.865093439E+02  3.144957056E-06  0.00000E+00  9.000E+00
#rwgt            1           1   2.9536172782358722E-002          10      246260           0
</event>
<event>
      5   9999  3.19816E-02  6.92229E+01 -1.00000E+00  1.31467E-01
      21    -1     0     0   511   501  0.000000000E+00  0.000000000E+00  1.969298229E+02  1.969298229E+02  0.000000000E+00  0.00000E+00  9.000E+00
      21    -1     0     0   501   502  0.000000000E+00  0.000000000E+00 -3.650851385E+02  3.650851385E+02  0.000000000E+00  0.00000E+00  9.000E+00
      25     1     1     2     0     0 -3.008441373E+01  8.324411562E+01 -1.742937343E+02  2.320300855E+02  1.250000000E+02  0.00000E+00  9.000E+00
      25     1     1     2     0     0  1.459527546E+01 -1.507119061E+02 -8.632055450E+01  2.144838894E+02  1.250000000E+02  0.00000E+00  9.000E+00
      21     1     1     2   511   502  1.548913827E+01  6.746779044E+01  9.245897325E+01  1.155009865E+02  1.907348633E-06  0.00000E+00  9.000E+00
#rwgt            2          11   1.9412058285812059E-003          10      246334           0
</event>
<event>
      5   9999  3.19816E-02  2.41979E+01 -1.00000E+00  1.59819E-01
      21    -1     0     0   502   512  0.000000000E+00  0.000000000E+00  5.879835318E+02  5.879835318E+02  0.000000000E+00  0.00000E+00  9.000E+00
      21    -1     0     0   501   502  0.000000000E+00  0.000000000E+00 -6.932170636E+02  6.932170636E+02  0.000000000E+00  0.00000E+00  9.000E+00
      25     1     1     2     0     0 -1.403723492E+01 -2.298859942E+02  3.483362039E+01  2.643539207E+02  1.250000000E+02  0.00000E+00  9.000E+00
      25     1     1     2     0     0  1.065837740E+00  2.503134130E+02 -5.442412206E+02  6.119488924E+02  1.250000000E+02  0.00000E+00  9.000E+00
      21     1     1     2   501   512  1.297139718E+01 -2.042741882E+01  4.041740684E+02  4.048977823E+02  5.394796609E-06  0.00000E+00  9.000E+00
#rwgt            1           1   2.8817433250705737E-002          10      246354           0
</event>
<event>
      5   9999  3.19816E-02  5.10928E+01 -1.00000E+00  1.38542E-01
      21    -1     0     0   502   501  0.000000000E+00  0.000000000E+00  1.126208818E+03  1.126208818E+03  0.000000000E+00  0.00000E+00  9.000E+00
       2    -1     0     0   501     0  0.000000000E+00  0.000000000E+00 -8.696883194E+02  8.696883194E+02  0.000000000E+00  0.00000E+00  9.000E+00
      25     1     1     2     0     0 -9.245026306E+02 -2.906333729E+02  1.721230228E+02  9.921815391E+02  1.250000000E+02  0.00000E+00  9.000E+00
      25     1     1     2     0     0  8.752826951E+02  2.769268809E+02  1.295504306E+02  9.355301212E+02  1.250000000E+02  0.00000E+00  9.000E+00
       2     1     1     2   502     0  4.921993555E+01  1.370649201E+01 -4.515295470E+01  6.818547717E+01  9.536743164E-07  0.00000E+00  9.000E+00
#rwgt            1           1   3.7210818246203994E-002          10      246541           0
</event>
<event>
      5   9999  3.19816E-02  1.29899E+01 -1.00000E+00  1.83480E-01
      21    -1     0     0   511   501  0.000000000E+00  0.000000000E+00  2.096064713E+02  2.096064713E+02  0.000000000E+00  0.00000E+00  9.000E+00
      21    -1     0     0   501   502  0.000000000E+00  0.000000000E+00 -1.286489894E+03  1.286489894E+03  0.000000000E+00  0.00000E+00  9.000E+00
      25     1     1     2     0     0 -4.757240906E+02  1.260931038E+02 -6.916517152E+02  8.580326196E+02  1.250000000E+02  0.00000E+00  9.000E+00
      25     1     1     2     0     0  4.643479449E+02 -1.198223794E+02 -3.770719492E+02  6.227235915E+02  1.250000000E+02  0.00000E+00  9.000E+00
      21     1     1     2   511   502  1.137614571E+01 -6.270724414E+00 -8.159758388E+00  1.534015426E+01  0.000000000E+00  0.00000E+00  9.000E+00
#rwgt            1           1   2.3944334665078296E-002          10      246684           0
</event>
<event>
      5   9999  3.19816E-02  5.46967E+01 -1.00000E+00  1.36887E-01
      21    -1     0     0   512   501  0.000000000E+00  0.000000000E+00  1.978363085E+02  1.978363085E+02  0.000000000E+00  0.00000E+00  9.000E+00
      21    -1     0     0   501   502  0.000000000E+00  0.000000000E+00 -1.889818819E+03  1.889818819E+03  0.000000000E+00  0.00000E+00  9.000E+00
      25     1     1     2     0     0  1.770872988E+01 -2.287482740E+02 -1.766957843E+03  1.786170314E+03  1.250000000E+02  0.00000E+00  9.000E+00
      25     1     1     2     0     0  2.278268712E+01  1.919762903E+02  8.587960847E+01  2.457117295E+02  1.250000000E+02  0.00000E+00  9.000E+00
      21     1     1     2   512   502 -4.049141700E+01  3.677198364E+01 -1.090427581E+01  5.577308368E+01  1.072883606E-06  0.00000E+00  9.000E+00
#rwgt            1           1   2.9698253195115386E-002          10      246960           0
</event>
<event>
      5   9999  3.19816E-02  1.41086E+01 -1.00000E+00  1.79927E-01
      21    -1     0     0   502   501  0.000000000E+00  0.000000000E+00  3.086533144E+01  3.086533144E+01  0.000000000E+00  0.00000E+00  9.000E+00
      -4    -1     0     0     0   502  0.000000000E+00  0.000000000E+00 -1.110534492E+03  1.110534492E+03  0.000000000E+00  0.00000E+00  9.000E+00
      25     1     1     2     0     0  1.400575608E+01 -8.212846049E+01 -2.492972681E+02  2.910590543E+02  1.250000000E+02  0.00000E+00  9.000E+00
      25     1     1     2     0     0 -2.788018458E+01  7.956848187E+01 -5.705535322E+02  5.901396285E+02  1.250000000E+02  0.00000E+00  9.000E+00
      -4     1     1     2     0   501  1.387442850E+01  2.559978619E+00 -2.598183606E+02  2.602011410E+02  0.000000000E+00  0.00000E+00  9.000E+00
#rwgt            1           1   2.6348216503670686E-002          10      247071           0
</event>
<event>
      5   9999  3.19816E-02  1.23911E+02 -1.00000E+00  1.19780E-01
      21    -1     0     0   502   511  0.000000000E+00  0.000000000E+00  1.405344688E+03  1.405344688E+03  0.000000000E+00  0.00000E+00  9.000E+00
      21    -1     0     0   501   502  0.000000000E+00  0.000000000E+00 -1.024906413E+03  1.024906413E+03  0.000000000E+00  0.00000E+00  9.000E+00
      25     1     1     2     0     0  9.620898602E+02 -4.677738443E+02  3.696120250E+02  1.138713009E+03  1.250000000E+02  0.00000E+00  9.000E+00
      25     1     1     2     0     0 -8.532525546E+02  5.270050679E+02 -2.156370277E+02  1.033391790E+03  1.250000000E+02  0.00000E+00  9.000E+00
      21     1     1     2   501   511 -1.088373056E+02 -5.923122357E+01  2.264632782E+02  2.581463021E+02  4.672030912E-06  0.00000E+00  9.000E+00
#rwgt            1           1   3.0087946173739260E-002          10      247172           0
</event>
<event>
      5   9999  3.19816E-02  6.19027E+01 -1.00000E+00  1.33983E-01
      21    -1     0     0   512   501  0.000000000E+00  0.000000000E+00  1.283564817E+02  1.283564817E+02  0.000000000E+00  0.00000E+00  9.000E+00
      21    -1     0     0   501   502  0.000000000E+00  0.000000000E+00 -9.623535497E+02  9.623535497E+02  0.000000000E+00  0.00000E+00  9.000E+00
      25     1     1     2     0     0 -7.144495773E+01 -2.634402648E+02 -2.400193243E+02  3.843688738E+02  1.250000000E+02  0.00000E+00  9.000E+00
      25     1     1     2     0     0  5.020286679E+01  2.052962887E+02 -5.957973872E+02  6.444116856E+02  1.250000000E+02  0.00000E+00  9.000E+00
      21     1     1     2   512   502  2.124209093E+01  5.814397616E+01  1.819643522E+00  6.192947193E+01  1.211859322E-06  0.00000E+00  9.000E+00
#rwgt            2          11   2.6671551172748119E-003          10      247382           0
</event>
<event>
      5   9999  3.19816E-02  5.93628E+01 -1.00000E+00  1.34952E-01
      21    -1     0     0   511   501  0.000000000E+00  0.000000000E+00  1.699331109E+02  1.699331109E+02  0.000000000E+00  0.00000E+00  9.000E+00
      21    -1     0     0   501   502  0.000000000E+00  0.000000000E+00 -7.511769303E+02  7.511769303E+02  0.000000000E+00  0.00000E+00  9.000E+00
      25     1     1     2     0     0  1.068553413E+02  2.218216130E+02 -5.180955853E+02  5.870868143E+02  1.250000000E+02  0.00000E+00  9.000E+00
      25     1     1     2     0     0 -1.507757809E+02 -1.818849542E+02 -3.978450426E+01  2.702281989E+02  1.250000000E+02  0.00000E+00  9.000E+00
      21     1     1     2   511   502  4.392043961E+01 -3.993665876E+01 -2.336372981E+01  6.379502802E+01  1.118282261E-06  0.00000E+00  9.000E+00
#rwgt            1           1   2.7757461402145252E-002          10      247417           0
</event>
<event>
      5   9999  4.76509E-02  7.53955E+01 -1.00000E+00  1.29608E-01
      21    -1     0     0   502   501  0.000000000E+00  0.000000000E+00  5.662122005E+02  5.662122005E+02  0.000000000E+00  0.00000E+00  9.000E+00
      21    -1     0     0   512   502  0.000000000E+00  0.000000000E+00 -1.261758069E+03  1.261758069E+03  0.000000000E+00  0.00000E+00  9.000E+00
      25     1     1     2     0     0  4.014198519E+02 -4.246557178E+02  9.598120033E+01  6.052336466E+02  1.250000000E+02  0.00000E+00  9.000E+00
      25     1     1     2     0     0 -4.510945282E+02  4.813735529E+02 -3.174505993E+02  7.427022646E+02  1.250000000E+02  0.00000E+00  9.000E+00
      21     1     1     2   512   501  4.967467633E+01 -5.671783517E+01 -4.740764696E+02  4.800343584E+02  7.629394531E-06  0.00000E+00  9.000E+00
#rwgt            1           1   4.8171860672097042E-002          10      247496           0
</event>
<event>
      5   9999  3.19816E-02  1.44399E+01 -1.00000E+00  1.78955E-01
      21    -1     0     0   502   501  0.000000000E+00  0.000000000E+00  7.744820313E+02  7.744820313E+02  0.000000000E+00  0.00000E+00  9.000E+00
      21    -1     0     0   511   502  0.000000000E+00  0.000000000E+00 -2.944862467E+02  2.944862467E+02  0.000000000E+00  0.00000E+00  9.000E+00
      25     1     1     2     0     0  2.092705947E+02  2.126093202E+02  5.806394449E+02  6.646533456E+02  1.250000000E+02  0.00000E+00  9.000E+00
      25     1     1     2     0     0 -2.092525791E+02 -2.270492092E+02 -3.253928096E+01  3.346965641E+02  1.250000000E+02  0.00000E+00  9.000E+00
      21     1     1     2   511   501 -1.801563725E-02  1.443988901E+01 -6.810437936E+01  6.961836832E+01  9.536743164E-07  0.00000E+00  9.000E+00
#rwgt            1           1   2.4701489884428975E-002          10      247586           0
</event>
<event>
      5   9999  3.19816E-02  1.63614E+01 -1.00000E+00  1.73901E-01
      -4    -1     0     0     0   501  0.000000000E+00  0.000000000E+00  7.442285471E+02  7.442285471E+02  0.000000000E+00  0.00000E+00  9.000E+00
      21    -1     0     0   501   502  0.000000000E+00  0.000000000E+00 -5.221486150E+02  5.221486150E+02  0.000000000E+00  0.00000E+00  9.000E+00
      25     1     1     2     0     0 -9.869060793E+01 -2.929261516E+02 -3.592597847E+02  4.901409586E+02  1.250000000E+02  0.00000E+00  9.000E+00
      25     1     1     2     0     0  9.657840714E+01  3.091506884E+02  2.125162091E+02  4.070499674E+02  1.250000000E+02  0.00000E+00  9.000E+00
      -4     1     1     2     0   502  2.112200791E+00 -1.622453673E+01  3.688235077E+02  3.691862360E+02  0.000000000E+00  0.00000E+00  9.000E+00
#rwgt            1           1   2.5424123251874237E-002          10      247754           0
</event>
<event>
      5   9999  3.19816E-02  1.61046E+02 -1.00000E+00  1.15184E-01
      21    -1     0     0   502   501  0.000000000E+00  0.000000000E+00  6.101531197E+02  6.101531197E+02  0.000000000E+00  0.00000E+00  9.000E+00
      21    -1     0     0   511   502  0.000000000E+00  0.000000000E+00 -5.732602807E+02  5.732602807E+02  0.000000000E+00  0.00000E+00  9.000E+00
      25     1     1     2     0     0  4.943346362E+02 -2.071316386E+02  1.464411456E+02  5.695087860E+02  1.250000000E+02  0.00000E+00  9.000E+00
      25     1     1     2     0     0 -3.491898734E+02  1.373537535E+02  3.559484962E+01  3.971040350E+02  1.250000000E+02  0.00000E+00  9.000E+00
      21     1     1     2   511   501 -1.451447628E+02  6.977788506E+01 -1.451431563E+02  2.168005794E+02  1.907348633E-06  0.00000E+00  9.000E+00
#rwgt            1           1   2.6316815635272044E-002          10      247947           0
</event>
<event>
      5   9999  3.28166E-02  5.33741E+02 -1.00000E+00  9.80529E-02
       1    -1     0     0   502     0  0.000000000E+00  0.000000000E+00  6.226351346E+02  6.226351346E+02  0.000000000E+00  0.00000E+00  9.000E+00
      21    -1     0     0   501   502  0.000000000E+00  0.000000000E+00 -8.956231728E+02  8.956231728E+02  0.000000000E+00  0.00000E+00  9.000E+00
      25     1     1     2     0     0 -6.259934061E+01 -2.535509293E+02 -3.838592749E+02  4.808114954E+02  1.250000000E+02  0.00000E+00  9.000E+00
      25     1     1     2     0     0  4.718218114E+02 -8.910957241E+01  2.457615984E+01  4.967749242E+02  1.250000000E+02  0.00000E+00  9.000E+00
       1     1     1     2   501     0 -4.092224708E+02  3.426605017E+02  8.629507689E+01  5.406718879E+02  9.818678037E-06  0.00000E+00  9.000E+00
#rwgt            1           1   3.2024922734554054E-002          10      248015           0
</event>
<event>
      5   9999  3.19816E-02  7.81451E+00 -1.00000E+00  2.09012E-01
      21    -1     0     0   502   501  0.000000000E+00  0.000000000E+00  9.741227005E+02  9.741227005E+02  0.000000000E+00  0.00000E+00  9.000E+00
      21    -1     0     0   501   511  0.000000000E+00  0.000000000E+00 -3.736301032E+02  3.736301032E+02  0.000000000E+00  0.00000E+00  9.000E+00
      25     1     1     2     0     0 -2.276704944E+01 -1.689573172E+02  9.296422779E+02  9.533754131E+02  1.250000000E+02  0.00000E+00  9.000E+00
      25     1     1     2     0     0  1.514727528E+01  1.672236360E+02 -3.193925463E+02  3.818766594E+02  1.250000000E+02  0.00000E+00  9.000E+00
      21     1     1     2   502   511  7.619774158E+00  1.733681220E+00 -9.757134340E+00  1.250073115E+01  2.064765462E-07  0.00000E+00  9.000E+00
#rwgt            1           1   2.9948050370484515E-002          10      248084           0
</event>
<event>
      5   9999  3.19816E-02  6.32617E+01 -1.00000E+00  1.33486E-01
      21    -1     0     0   502   501  0.000000000E+00  0.000000000E+00  3.648768686E+02  3.648768686E+02  0.000000000E+00  0.00000E+00  9.000E+00
      21    -1     0     0   512   502  0.000000000E+00  0.000000000E+00 -1.236126143E+03  1.236126143E+03  0.000000000E+00  0.00000E+00  9.000E+00
      25     1     1     2     0     0 -1.183262400E+02  2.055625159E+02  1.110366902E+02  2.901916497E+02  1.250000000E+02  0.00000E+00  9.000E+00
      25     1     1     2     0     0  1.613360456E+02 -2.519542959E+02  2.241555540E+00  3.242534678E+02  1.250000000E+02  0.00000E+00  9.000E+00
      21     1     1     2   512   501 -4.300980557E+01  4.639178003E+01 -9.845275205E+02  9.865578945E+02  1.525878906E-05  0.00000E+00  9.000E+00
#rwgt            1           1   2.7853984191147041E-002          10      248364           0
</event>
<event>
      5   9999  3.19816E-02  1.01053E+02 -1.00000E+00  1.23624E-01
      21    -1     0     0   511   501  0.000000000E+00  0.000000000E+00  1.836460983E+03  1.836460983E+03  0.000000000E+00  0.00000E+00  9.000E+00
      21    -1     0     0   501   502  0.000000000E+00  0.000000000E+00 -1.191211271E+03  1.191211271E+03  0.000000000E+00  0.00000E+00  9.000E+00
      25     1     1     2     0     0 -1.201535690E+02 -9.985465811E+02  1.206065682E+03  1.575357605E+03  1.250000000E+02  0.00000E+00  9.000E+00
      25     1     1     2     0     0  1.637680264E+02  1.089703102E+03 -6.762268564E+02  1.298915154E+03  1.250000000E+02  0.00000E+00  9.000E+00
      21     1     1     2   511   502 -4.361445742E+01 -9.115652080E+01  1.154108865E+02  1.533994945E+02  1.907348633E-06  0.00000E+00  9.000E+00
#rwgt            1           1   5.0109777304891773E-002          10      248496           0
</event>
<event>
      5   9999  3.19816E-02  1.11051E+02 -1.00000E+00  1.21815E-01
      21    -1     0     0   502   512  0.000000000E+00  0.000000000E+00  1.082669321E+02  1.082669321E+02  0.000000000E+00  0.00000E+00  9.000E+00
      21    -1     0     0   501   502  0.000000000E+00  0.000000000E+00 -8.629733785E+02  8.629733785E+02  0.000000000E+00  0.00000E+00  9.000E+00
      25     1     1     2     0     0  1.725894740E+02  6.737299149E+01 -5.757120231E+02  6.175723278E+02  1.250000000E+02  0.00000E+00  9.000E+00
      25     1     1     2     0     0 -1.418505728E+02  3.933885919E+01 -1.262894188E+02  2.307447684E+02  1.250000000E+02  0.00000E+00  9.000E+00
      21     1     1     2   501   512 -3.073890125E+01 -1.067118507E+02 -5.270500455E+01  1.229232144E+02  2.939421655E-06  0.00000E+00  9.000E+00
#rwgt            1           1   3.4916128433266767E-002          10      248611           0
</event>
<event>
      5   9999  3.19816E-02  5.36736E+01 -1.00000E+00  1.37341E-01
      21    -1     0     0   502   511  0.000000000E+00  0.000000000E+00  2.281560940E+02  2.281560940E+02  0.000000000E+00  0.00000E+00  9.000E+00
      21    -1     0     0   501   502  0.000000000E+00  0.000000000E+00 -8.845523740E+02  8.845523740E+02  0.000000000E+00  0.00000E+00  9.000E+00
      25     1     1     2     0     0 -7.170825109E+01  2.674914019E+02 -7.146877787E+02  7.765934228E+02  1.250000000E+02  0.00000E+00  9.000E+00
      25     1     1     2     0     0  8.030139188E+01 -2.145101366E+02  8.723806308E+01  2.751334075E+02  1.250000000E+02  0.00000E+00  9.000E+00
      21     1     1     2   501   511 -8.593140795E+00 -5.298126529E+01 -2.894656445E+01  6.098163768E+01  5.840038640E-07  0.00000E+00  9.000E+00
#rwgt            1           1   2.6354353457186935E-002          10      248653           0
</event>
<event>
      5   9999  3.19816E-02  4.69527E+02 -1.00000E+00  9.96341E-02
      21    -1     0     0   502   501  0.000000000E+00  0.000000000E+00  2.460940023E+02  2.460940023E+02  0.000000000E+00  0.00000E+00  9.000E+00
       2    -1     0     0   501     0  0.000000000E+00  0.000000000E+00 -1.877698566E+03  1.877698566E+03  0.000000000E+00  0.00000E+00  9.000E+00
      25     1     1     2     0     0 -1.793025179E+02 -1.992347104E+02 -1.480094092E+01  2.961214795E+02  1.250000000E+02  0.00000E+00  9.000E+00
      25     1     1     2     0     0  2.298466650E+02 -2.675634332E+02 -5.909951720E+02  6.995140982E+02  1.250000000E+02  0.00000E+00  9.000E+00
       2     1     1     2   502     0 -5.054414711E+01  4.667981437E+02 -1.025808450E+03  1.128156990E+03  0.000000000E+00  0.00000E+00  9.000E+00
#rwgt            2          13   1.4152842093304269E-003          10      248823           0
</event>
<event>
      5   9999  3.19816E-02  9.23635E+01 -1.00000E+00  1.25400E-01
      21    -1     0     0   502   501  0.000000000E+00  0.000000000E+00  1.809549831E+02  1.809549831E+02  0.000000000E+00  0.00000E+00  9.000E+00
       2    -1     0     0   501     0  0.000000000E+00  0.000000000E+00 -3.735271942E+03  3.735271942E+03  0.000000000E+00  0.00000E+00  9.000E+00
      25     1     1     2     0     0  4.561403214E+02 -3.947095551E+02 -1.684640936E+03  1.793739030E+03  1.250000000E+02  0.00000E+00  9.000E+00
      25     1     1     2     0     0 -3.897860137E+02  3.304590923E+02 -4.289183090E+02  6.787726158E+02  1.250000000E+02  0.00000E+00  9.000E+00
       2     1     1     2   502     0 -6.635430763E+01  6.425046283E+01 -1.440757714E+03  1.443715279E+03  1.525878906E-05  0.00000E+00  9.000E+00
#rwgt            1           1   3.0857282643974183E-002          10      248842           0
</event>
<event>
      5   9999  3.19816E-02  1.97562E+02 -1.00000E+00  1.11842E-01
      21    -1     0     0   502   501  0.000000000E+00  0.000000000E+00  1.952998771E+02  1.952998771E+02  0.000000000E+00  0.00000E+00  9.000E+00
      -1    -1     0     0     0   502  0.000000000E+00  0.000000000E+00 -7.657561531E+02  7.657561531E+02  0.000000000E+00  0.00000E+00  9.000E+00
      25     1     1     2     0     0  1.276164651E+02 -7.966386034E+01 -1.218941432E+02  2.304679478E+02  1.250000000E+02  0.00000E+00  9.000E+00
      25     1     1     2     0     0 -3.220773583E+02  1.145306969E+02 -3.669141586E+02  5.168192189E+02  1.250000000E+02  0.00000E+00  9.000E+00
      -1     1     1     2     0   501  1.944608932E+02 -3.486683654E+01 -8.164797426E+01  2.137688634E+02  2.132480600E-06  0.00000E+00  9.000E+00
#rwgt            2          10   4.4561595091154653E-005          10      249060           0
</event>
<event>
      5   9999  3.19816E-02  2.94707E+02 -1.00000E+00  1.05844E-01
      21    -1     0     0   502   511  0.000000000E+00  0.000000000E+00  4.555703816E+02  4.555703816E+02  0.000000000E+00  0.00000E+00  9.000E+00
      21    -1     0     0   501   502  0.000000000E+00  0.000000000E+00 -1.240825204E+03  1.240825204E+03  0.000000000E+00  0.00000E+00  9.000E+00
      25     1     1     2     0     0 -3.402633740E+02  2.872325878E+02 -6.566417150E+02  8.031718776E+02  1.250000000E+02  0.00000E+00  9.000E+00
      25     1     1     2     0     0  9.296656767E+01 -4.475334727E+02 -2.916459810E+02  5.564273269E+02  1.250000000E+02  0.00000E+00  9.000E+00
      21     1     1     2   501   511  2.472968063E+02  1.603008849E+02  1.630328740E+02  3.367963807E+02  6.877043296E-06  0.00000E+00  9.000E+00
#rwgt            1           1   2.6042920940290017E-002          10      249079           0
</event>
<event>
      5   9999  3.31245E-02  9.77869E+01 -1.00000E+00  1.24267E-01
      21    -1     0     0   502   512  0.000000000E+00  0.000000000E+00  4.444363952E+01  4.444363952E+01  0.000000000E+00  0.00000E+00  9.000E+00
      21    -1     0     0   501   502  0.000000000E+00  0.000000000E+00 -2.067765971E+03  2.067765971E+03  0.000000000E+00  0.00000E+00  9.000E+00
      25     1     1     2     0     0 -3.617037813E+01 -1.433778139E+02 -1.051676564E+03  1.069352182E+03  1.250000000E+02  0.00000E+00  9.000E+00
      25     1     1     2     0     0  9.663424713E+01  2.202308580E+02 -8.076851301E+02  8.519507485E+02  1.250000000E+02  0.00000E+00  9.000E+00
      21     1     1     2   501   512 -6.046386900E+01 -7.685304411E+01 -1.639606366E+02  1.909066793E+02  3.303624740E-06  0.00000E+00  9.000E+00
#rwgt            1           1  0.10004851919524033               10      249164           0
</event>
<event>
      5   9999  3.19816E-02  6.09912E+01 -1.00000E+00  1.34324E-01
      21    -1     0     0   511   501  0.000000000E+00  0.000000000E+00  5.942366464E+02  5.942366464E+02  0.000000000E+00  0.00000E+00  9.000E+00
      21    -1     0     0   501   502  0.000000000E+00  0.000000000E+00 -5.066024445E+02  5.066024445E+02  0.000000000E+00  0.00000E+00  9.000E+00
      25     1     1     2     0     0  4.076618556E+02  9.144579499E+01  2.798972885E+01  4.369884974E+02  1.250000000E+02  0.00000E+00  9.000E+00
      25     1     1     2     0     0 -4.651790237E+02 -1.117363217E+02 -8.969166607E+01  5.025396747E+02  1.250000000E+02  0.00000E+00  9.000E+00
      21     1     1     2   511   502  5.751716811E+01  2.029052669E+01  1.493361391E+02  1.613109188E+02  2.697398305E-06  0.00000E+00  9.000E+00
#rwgt            1           1   2.9238797068034759E-002          10      249233           0
</event>
<event>
      5   9999  3.19816E-02  4.78850E+01 -1.00000E+00  1.40155E-01
      21    -1     0     0   502   501  0.000000000E+00  0.000000000E+00  2.556906069E+03  2.556906069E+03  0.000000000E+00  0.00000E+00  9.000E+00
      21    -1     0     0   501   512  0.000000000E+00  0.000000000E+00 -3.495985142E+02  3.495985142E+02  0.000000000E+00  0.00000E+00  9.000E+00
      25     1     1     2     0     0  1.558542868E+02  4.041579980E+02  2.306017980E+03  2.349676184E+03  1.250000000E+02  0.00000E+00  9.000E+00
      25     1     1     2     0     0 -1.779349802E+02 -4.466482173E+02 -7.189289887E+01  5.019452919E+02  1.250000000E+02  0.00000E+00  9.000E+00
      21     1     1     2   502   512  2.208069343E+01  4.249021931E+01 -2.681752612E+01  5.488310730E+01  8.259061849E-07  0.00000E+00  9.000E+00
#rwgt            1           1   2.0802319002714228E-002          10      249350           0
</event>
<event>
      5   9999  3.19816E-02  1.72742E+02 -1.00000E+00  1.14015E-01
      21    -1     0     0   502   511  0.000000000E+00  0.000000000E+00  1.155299811E+03  1.155299811E+03  0.000000000E+00  0.00000E+00  9.000E+00
      21    -1     0     0   501   502  0.000000000E+00  0.000000000E+00 -5.850844331E+02  5.850844331E+02  0.000000000E+00  0.00000E+00  9.000E+00
      25     1     1     2     0     0 -1.246394581E+02 -7.400270072E+02  4.034064218E+02  8.611252563E+02  1.250000000E+02  0.00000E+00  9.000E+00
      25     1     1     2     0     0  2.078142170E+02  5.886276493E+02 -3.559830596E+00  6.366372050E+02  1.250000000E+02  0.00000E+00  9.000E+00
      21     1     1     2   501   511 -8.317475894E+01  1.513993578E+02  1.703687869E+02  2.426217831E+02  3.814697266E-06  0.00000E+00  9.000E+00
#rwgt            2          11   5.1831001908187405E-003          10      249512           0
</event>
<event>
      5   9999  3.19816E-02  3.32170E+00 -1.00000E+00  2.84059E-01
      21    -1     0     0   502   512  0.000000000E+00  0.000000000E+00  4.783120202E+02  4.783120202E+02  0.000000000E+00  0.00000E+00  9.000E+00
      21    -1     0     0   501   502  0.000000000E+00  0.000000000E+00 -3.856280801E+02  3.856280801E+02  0.000000000E+00  0.00000E+00  9.000E+00
      25     1     1     2     0     0  1.030376089E+02 -2.991630253E+02  2.964071510E+02  4.512177564E+02  1.250000000E+02  0.00000E+00  9.000E+00
      25     1     1     2     0     0 -1.054841080E+02  3.014098702E+02 -2.124368116E+02  4.033970821E+02  1.250000000E+02  0.00000E+00  9.000E+00
      21     1     1     2   501   512  2.446499109E+00 -2.246844910E+00  8.713600747E+00  9.325261815E+00  1.685873940E-07  0.00000E+00  9.000E+00
#rwgt            1           1   2.5801038899702762E-002          10      249532           0
</event>
<event>
      5   9999  3.19816E-02  1.99468E+02 -1.00000E+00  1.11690E-01
      21    -1     0     0   511   501  0.000000000E+00  0.000000000E+00  1.666455705E+02  1.666455705E+02  0.000000000E+00  0.00000E+00  9.000E+00
      21    -1     0     0   501   502  0.000000000E+00  0.000000000E+00 -1.325395278E+03  1.325395278E+03  0.000000000E+00  0.00000E+00  9.000E+00
      25     1     1     2     0     0 -2.659633897E+02  5.268152463E+01 -6.449860761E+02  7.107347649E+02  1.250000000E+02  0.00000E+00  9.000E+00
      25     1     1     2     0     0  1.307197031E+02 -1.992994551E+02 -5.158386676E+02  5.818268167E+02  1.250000000E+02  0.00000E+00  9.000E+00
      21     1     1     2   511   502  1.352436866E+02  1.466179304E+02  2.075035936E+00  1.994792672E+02  3.333599914E-06  0.00000E+00  9.000E+00
#rwgt            1           1   2.9169018104388447E-002          10      250067           0
</event>
<event>
      5   9999  3.20743E-02  3.36883E+01 -1.00000E+00  1.49623E-01
      21    -1     0     0   502   512  0.000000000E+00  0.000000000E+00  4.498679218E+02  4.498679218E+02  0.000000000E+00  0.00000E+00  9.000E+00
      21    -1     0     0   501   502  0.000000000E+00  0.000000000E+00 -6.479094814E+02  6.479094814E+02  0.000000000E+00  0.00000E+00  9.000E+00
      25     1     1     2     0     0 -3.655657133E+02 -2.583163766E+02 -1.044146611E+02  4.763329326E+02  1.250000000E+02  0.00000E+00  9.000E+00
      25     1     1     2     0     0  3.612116042E+02  2.917221145E+02 -1.917822615E+02  5.176688622E+02  1.250000000E+02  0.00000E+00  9.000E+00
      21     1     1     2   501   512  4.354109152E+00 -3.340573789E+01  9.815536312E+01  1.037756084E+02  0.000000000E+00  0.00000E+00  9.000E+00
#rwgt            1           1   3.1099652717139967E-002          10      250130           0
</event>
<event>
      5   9999  3.19816E-02  8.91859E+01 -1.00000E+00  1.26106E-01
      21    -1     0     0   502   501  0.000000000E+00  0.000000000E+00  6.902886454E+02  6.902886454E+02  0.000000000E+00  0.00000E+00  9.000E+00
       2    -1     0     0   501     0  0.000000000E+00  0.000000000E+00 -8.043243701E+02  8.043243701E+02  0.000000000E+00  0.00000E+00  9.000E+00
      25     1     1     2     0     0  2.265156579E+02  4.795548948E+02  1.828763091E+02  5.747616766E+02  1.250000000E+02  0.00000E+00  9.000E+00
      25     1     1     2     0     0 -1.836149537E+02 -4.013650663E+02  1.355110474E+02  4.783268878E+02  1.250000000E+02  0.00000E+00  9.000E+00
       2     1     1     2   502     0 -4.290070413E+01 -7.818982855E+01 -4.324230813E+02  4.415244511E+02  5.394796609E-06  0.00000E+00  9.000E+00
#rwgt            1           1   2.5022245115443049E-002          10      250295           0
</event>
<event>
      5   9999  3.19816E-02  7.83622E+01 -1.00000E+00  1.28786E-01
      21    -1     0     0   502   511  0.000000000E+00  0.000000000E+00  3.544019030E+02  3.544019030E+02  0.000000000E+00  0.00000E+00  9.000E+00
      21    -1     0     0   501   502  0.000000000E+00  0.000000000E+00 -3.664211163E+02  3.664211163E+02  0.000000000E+00  0.00000E+00  9.000E+00
      25     1     1     2     0     0 -1.616485931E+02  9.787148649E+01 -2.674171805E+02  3.504939999E+02  1.250000000E+02  0.00000E+00  9.000E+00
      25     1     1     2     0     0  9.388434557E+01 -5.851874665E+01  2.369185919E+02  2.898174136E+02  1.250000000E+02  0.00000E+00  9.000E+00
      21     1     1     2   501   511  6.776424753E+01 -3.935273984E+01  1.847937529E+01  8.051160591E+01  1.892388805E-06  0.00000E+00  9.000E+00
#rwgt            2          11   3.8509468869297680E-003          10      250386           0
</event>
<event>
      5   9999  3.19816E-02  7.50512E+01 -1.00000E+00  1.29706E-01
      21    -1     0     0   502   501  0.000000000E+00  0.000000000E+00  3.135545492E+02  3.135545492E+02  0.000000000E+00  0.00000E+00  9.000E+00
       2    -1     0     0   501     0  0.000000000E+00  0.000000000E+00 -1.217342352E+03  1.217342352E+03  0.000000000E+00  0.00000E+00  9.000E+00
      25     1     1     2     0     0 -4.736337086E+01  1.142526809E+02  2.720829902E+02  3.239615988E+02  1.250000000E+02  0.00000E+00  9.000E+00
      25     1     1     2     0     0 -2.697843510E+01 -1.245469863E+02 -5.939470050E+02  6.201917707E+02  1.250000000E+02  0.00000E+00  9.000E+00
       2     1     1     2   502     0  7.434180596E+01  1.029430544E+01 -5.819237878E+02  5.867435314E+02  7.629394531E-06  0.00000E+00  9.000E+00
#rwgt            1           1   2.9055363207446616E-002          10      250421           0
</event>
<event>
      5   9999  3.19816E-02  1.10772E+02 -1.00000E+00  1.21862E-01
      21    -1     0     0   511   501  0.000000000E+00  0.000000000E+00  5.567933435E+02  5.567933435E+02  0.000000000E+00  0.00000E+00  9.000E+00
      21    -1     0     0   501   502  0.000000000E+00  0.000000000E+00 -4.982429295E+02  4.982429295E+02  0.000000000E+00  0.00000E+00  9.000E+00
      25     1     1     2     0     0 -1.449124988E+02 -1.925291212E+02 -3.681768411E+02  4.574344556E+02  1.250000000E+02  0.00000E+00  9.000E+00
      25     1     1     2     0     0  2.375874991E+02  1.318513867E+02  2.539397644E+02  3.923557210E+02  1.250000000E+02  0.00000E+00  9.000E+00
      21     1     1     2   511   502 -9.267500028E+01  6.067773450E+01  1.727874907E+02  2.052460964E+02  2.697398305E-06  0.00000E+00  9.000E+00
#rwgt            1           1   2.8097316148898759E-002          10      250538           0
</event>
<event>
      5   9999  3.19816E-02  2.77810E+01 -1.00000E+00  1.55395E-01
      21    -1     0     0   512   501  0.000000000E+00  0.000000000E+00  3.736936034E+02  3.736936034E+02  0.000000000E+00  0.00000E+00  9.000E+00
      21    -1     0     0   501   502  0.000000000E+00  0.000000000E+00 -2.156421452E+02  2.156421452E+02  0.000000000E+00  0.00000E+00  9.000E+00
      25     1     1     2     0     0 -1.346815806E+00 -1.189961812E+02 -6.225969011E+01  1.834752682E+02  1.250000000E+02  0.00000E+00  9.000E+00
      25     1     1     2     0     0  1.257332175E+01  1.444078196E+02  7.826172711E+00  1.915671051E+02  1.250000000E+02  0.00000E+00  9.000E+00
      21     1     1     2   512   502 -1.122650594E+01 -2.541163839E+01  2.124849757E+02  2.142933753E+02  2.697398305E-06  0.00000E+00  9.000E+00
#rwgt            1           1   2.8827615489026362E-002          10      250614           0
</event>
<event>
      5   9999  3.19816E-02  2.52678E+01 -1.00000E+00  1.58405E-01
      21    -1     0     0   511   501  0.000000000E+00  0.000000000E+00  8.993938277E+01  8.993938277E+01  0.000000000E+00  0.00000E+00  9.000E+00
      21    -1     0     0   501   502  0.000000000E+00  0.000000000E+00 -9.617044856E+02  9.617044856E+02  0.000000000E+00  0.00000E+00  9.000E+00
      25     1     1     2     0     0 -8.439632967E+01  1.271691977E+02 -8.165871450E+01  2.135132103E+02  1.250000000E+02  0.00000E+00  9.000E+00
      25     1     1     2     0     0  1.096639114E+02 -1.272847535E+02 -7.848699386E+02  8.123259213E+02  1.250000000E+02  0.00000E+00  9.000E+00
      21     1     1     2   511   502 -2.526758171E+01  1.155558218E-01 -5.236449803E+00  2.580473687E+01  4.500051996E-07  0.00000E+00  9.000E+00
#rwgt            1           1   3.4277464505898192E-002          10      250804           0
</event>
<event>
      5   9999  3.19816E-02  1.55551E+01 -1.00000E+00  1.75910E-01
      21    -1     0     0   502   501  0.000000000E+00  0.000000000E+00  5.078546572E+02  5.078546572E+02  0.000000000E+00  0.00000E+00  9.000E+00
      21    -1     0     0   501   512  0.000000000E+00  0.000000000E+00 -5.497462443E+02  5.497462443E+02  0.000000000E+00  0.00000E+00  9.000E+00
      25     1     1     2     0     0 -3.373792423E+02  8.463967256E+01 -3.819617991E+02  5.315152333E+02  1.250000000E+02  0.00000E+00  9.000E+00
      25     1     1     2     0     0  3.426095531E+02 -6.999031844E+01  3.477320334E+02  5.087460247E+02  1.250000000E+02  0.00000E+00  9.000E+00
      21     1     1     2   502   512 -5.230310793E+00 -1.464935412E+01 -7.661821500E+00  1.733964347E+01  2.795705652E-07  0.00000E+00  9.000E+00
#rwgt            1           1   3.3586546490259758E-002          10      250981           0
</event>
<event>
      5   9999  3.19816E-02  7.13946E+00 -1.00000E+00  2.14350E-01
      21    -1     0     0   502   501  0.000000000E+00  0.000000000E+00  3.437739924E+02  3.437739924E+02  0.000000000E+00  0.00000E+00  9.000E+00
      21    -1     0     0   511   502  0.000000000E+00  0.000000000E+00 -1.273988994E+02  1.273988994E+02  0.000000000E+00  0.00000E+00  9.000E+00
      25     1     1     2     0     0 -6.640217511E+01 -1.274983405E+02  1.825089238E+02  2.638173288E+02  1.250000000E+02  0.00000E+00  9.000E+00
      25     1     1     2     0     0  6.902306680E+01  1.341393326E+02  3.729913898E+01  1.994336232E+02  1.250000000E+02  0.00000E+00  9.000E+00
      21     1     1     2   511   501 -2.620891687E+00 -6.640992103E+00 -3.432969717E+00  7.921939815E+00  1.332800375E-07  0.00000E+00  9.000E+00
#rwgt            1           1   2.8815138806093144E-002          10      251153           0
</event>
<event>
      5   9999  3.19816E-02  1.38250E+02 -1.00000E+00  1.17815E-01
      21    -1     0     0   502   501  0.000000000E+00  0.000000000E+00  2.634865481E+03  2.634865481E+03  0.000000000E+00  0.00000E+00  9.000E+00
      21    -1     0     0   512   502  0.000000000E+00  0.000000000E+00 -1.004720863E+03  1.004720863E+03  0.000000000E+00  0.00000E+00  9.000E+00
      25     1     1     2     0     0  5.274144656E+00 -1.018940178E+03  5.164221776E+02  1.149166554E+03  1.250000000E+02  0.00000E+00  9.000E+00
      25     1     1     2     0     0 -1.019884206E+02  1.117730578E+03  1.614859114E+03  1.970562925E+03  1.250000000E+02  0.00000E+00  9.000E+00
      21     1     1     2   512   501  9.671427593E+01 -9.879039974E+01 -5.011366738E+02  5.198568650E+02  9.344061824E-06  0.00000E+00  9.000E+00
#rwgt            1           1   2.0837171009343944E-002          10      251391           0
</event>
<event>
      5   9999  3.19816E-02  6.71272E+01 -1.00000E+00  1.32149E-01
      21    -1     0     0   502   501  0.000000000E+00  0.000000000E+00  1.126201722E+02  1.126201722E+02  0.000000000E+00  0.00000E+00  9.000E+00
      21    -1     0     0   511   502  0.000000000E+00  0.000000000E+00 -1.022590555E+03  1.022590555E+03  0.000000000E+00  0.00000E+00  9.000E+00
      25     1     1     2     0     0  2.355324535E+02  1.585372997E+02 -3.618301973E+02  4.766085435E+02  1.250000000E+02  0.00000E+00  9.000E+00
      25     1     1     2     0     0 -1.824372890E+02 -1.996099848E+02 -4.519414110E+02  5.412980228E+02  1.250000000E+02  0.00000E+00  9.000E+00
      21     1     1     2   511   501 -5.309516449E+01  4.107268510E+01 -9.619877415E+01  1.173041606E+02  0.000000000E+00  0.00000E+00  9.000E+00
#rwgt            1           1   2.8908255896211169E-002          10      251548           0
</event>
<event>
      5   9999  3.19816E-02  9.09295E+01 -1.00000E+00  1.25714E-01
      21    -1     0     0   502   501  0.000000000E+00  0.000000000E+00  4.754456861E+02  4.754456861E+02  0.000000000E+00  0.00000E+00  9.000E+00
      21    -1     0     0   501   512  0.000000000E+00  0.000000000E+00 -3.092128861E+02  3.092128861E+02  0.000000000E+00  0.00000E+00  9.000E+00
      25     1     1     2     0     0  5.508591602E+01 -1.494337484E+02  3.223832633E+02  3.806847406E+02  1.250000000E+02  0.00000E+00  9.000E+00
      25     1     1     2     0     0 -1.106014148E+02  2.214490437E+02 -1.432981432E+02  3.121405289E+02  1.250000000E+02  0.00000E+00  9.000E+00
      21     1     1     2   502   512  5.551549877E+01 -7.201529533E+01 -1.285232005E+01  9.183330276E+01  1.535904256E-06  0.00000E+00  9.000E+00
#rwgt            1           1   2.9004699363115137E-002          10      251619           0
</event>
<event>
      5   9999  3.19816E-02  2.45664E+02 -1.00000E+00  1.08491E-01
      -3    -1     0     0     0   501  0.000000000E+00  0.000000000E+00  1.368107468E+03  1.368107468E+03  0.000000000E+00  0.00000E+00  9.000E+00
      21    -1     0     0   501   502  0.000000000E+00  0.000000000E+00 -9.905043523E+02  9.905043523E+02  0.000000000E+00  0.00000E+00  9.000E+00
      25     1     1     2     0     0  2.496512786E+02  3.547347184E+02 -3.846149423E+02  5.930566037E+02  1.250000000E+02  0.00000E+00  9.000E+00
      25     1     1     2     0     0 -3.644423725E+01 -4.767733048E+02 -3.633920010E+02  6.134490305E+02  1.250000000E+02  0.00000E+00  9.000E+00
      -3     1     1     2     0   502 -2.132070414E+02  1.220385864E+02  1.125610059E+03  1.152106186E+03  1.525878906E-05  0.00000E+00  9.000E+00
#rwgt            1           1   2.6051755126706565E-002          10      251673           0
</event>
<event>
      5   9999  3.19816E-02  3.52694E+01 -1.00000E+00  1.48314E-01
       2    -1     0     0   502     0  0.000000000E+00  0.000000000E+00  1.008287344E+03  1.008287344E+03  0.000000000E+00  0.00000E+00  9.000E+00
      21    -1     0     0   501   502  0.000000000E+00  0.000000000E+00 -4.064918993E+02  4.064918993E+02  0.000000000E+00  0.00000E+00  9.000E+00
      25     1     1     2     0     0  2.315951909E+02  4.712525142E+02  2.305117162E+02  5.869207066E+02  1.250000000E+02  0.00000E+00  9.000E+00
      25     1     1     2     0     0 -2.278868479E+02 -4.361786117E+02  5.624857919E+01  5.108552627E+02  1.250000000E+02  0.00000E+00  9.000E+00
       2     1     1     2   501     0 -3.708342966E+00 -3.507390250E+01  3.150351491E+02  3.170032738E+02  5.394796609E-06  0.00000E+00  9.000E+00
#rwgt            1           1   3.0075795197820193E-002          10      251745           0
</event>
<event>
      5   9999  3.19816E-02  7.47436E+01 -1.00000E+00  1.29795E-01
      21    -1     0     0   511   501  0.000000000E+00  0.000000000E+00  3.615596477E+02  3.615596477E+02  0.000000000E+00  0.00000E+00  9.000E+00
      21    -1     0     0   501   502  0.000000000E+00  0.000000000E+00 -5.443925090E+02  5.443925090E+02  0.000000000E+00  0.00000E+00  9.000E+00
      25     1     1     2     0     0  1.130867318E+02  4.989115712E+01 -4.606769752E+02  4.930780993E+02  1.250000000E+02  0.00000E+00  9.000E+00
      25     1     1     2     0     0 -1.876870066E+02 -4.526403319E+01  1.977737899E+02  3.033392772E+02  1.250000000E+02  0.00000E+00  9.000E+00
      21     1     1     2   511   502  7.460027481E+01 -4.627123929E+00  8.007032408E+01  1.095347802E+02  1.651812370E-06  0.00000E+00  9.000E+00
#rwgt            1           1   2.9229047337538023E-002          10      251918           0
</event>
<event>
      5   9999  3.19816E-02  2.77635E+02 -1.00000E+00  1.06697E-01
      21    -1     0     0   502   501  0.000000000E+00  0.000000000E+00  3.509379440E+02  3.509379440E+02  0.000000000E+00  0.00000E+00  9.000E+00
       2    -1     0     0   501     0  0.000000000E+00  0.000000000E+00 -3.422923268E+03  3.422923268E+03  0.000000000E+00  0.00000E+00  9.000E+00
      25     1     1     2     0     0 -6.112573575E+01  3.381088976E+02 -8.389017727E+01  3.751220389E+02  1.250000000E+02  0.00000E+00  9.000E+00
      25     1     1     2     0     0  1.457775703E+02 -7.369447723E+01  1.460856790E+02  2.522855557E+02  1.250000000E+02  0.00000E+00  9.000E+00
       2     1     1     2   502     0 -8.465183456E+01 -2.644144204E+02 -3.134180825E+03  3.146453617E+03  4.315837288E-05  0.00000E+00  9.000E+00
#rwgt            2          13   1.5164443626053473E-002          10      252093           0
</event>
<event>
      5   9999  3.19816E-02  2.04804E+01 -1.00000E+00  1.65523E-01
       2    -1     0     0   502     0  0.000000000E+00  0.000000000E+00  2.082139560E+03  2.082139560E+03  0.000000000E+00  0.00000E+00  9.000E+00
      21    -1     0     0   501   502  0.000000000E+00  0.000000000E+00 -3.706455263E+02  3.706455263E+02  0.000000000E+00  0.00000E+00  9.000E+00
      25     1     1     2     0     0 -9.386899763E+01  3.326540662E+02 -1.377217119E+02  3.925078170E+02  1.250000000E+02  0.00000E+00  9.000E+00
      25     1     1     2     0     0  9.031360296E+01 -3.528234786E+02  2.459911701E+02  4.569218858E+02  1.250000000E+02  0.00000E+00  9.000E+00
       2     1     1     2   501     0  3.555394666E+00  2.016941241E+01  1.603224576E+03  1.603355384E+03  2.157918644E-05  0.00000E+00  9.000E+00
#rwgt            1           1   3.1188049824592615E-002          10      252112           0
</event>
<event>
      5   9999  3.19816E-02  5.78448E+01 -1.00000E+00  1.35558E-01
      21    -1     0     0   502   511  0.000000000E+00  0.000000000E+00  1.271096964E+03  1.271096964E+03  0.000000000E+00  0.00000E+00  9.000E+00
      21    -1     0     0   501   502  0.000000000E+00  0.000000000E+00 -2.328527732E+02  2.328527732E+02  0.000000000E+00  0.00000E+00  9.000E+00
      25     1     1     2     0     0  4.597392206E+01 -1.351267359E+02 -1.744533909E+02  2.577437135E+02  1.250000000E+02  0.00000E+00  9.000E+00
      25     1     1     2     0     0 -9.431154127E+01  1.668993446E+02  9.427094271E+02  9.700907803E+02  1.250000000E+02  0.00000E+00  9.000E+00
      21     1     1     2   501   511  4.833761922E+01 -3.177260871E+01  2.699881546E+02  2.761152435E+02  3.814697266E-06  0.00000E+00  9.000E+00
#rwgt            1           1   2.1872690118265058E-002          10      252290           0
</event>
<event>
      5   9999  3.19816E-02  7.30466E+01 -1.00000E+00  1.30290E-01
      21    -1     0     0   502   501  0.000000000E+00  0.000000000E+00  4.997711334E+02  4.997711334E+02  0.000000000E+00  0.00000E+00  9.000E+00
      21    -1     0     0   512   502  0.000000000E+00  0.000000000E+00 -3.078861155E+02  3.078861155E+02  0.000000000E+00  0.00000E+00  9.000E+00
      25     1     1     2     0     0 -2.232987215E+02  2.004130294E+02  2.163095438E+02  3.904388814E+02  1.250000000E+02  0.00000E+00  9.000E+00
      25     1     1     2     0     0  2.779418699E+02 -1.519368579E+02 -1.082583583E+00  3.405329115E+02  1.250000000E+02  0.00000E+00  9.000E+00
      21     1     1     2   512   501 -5.464314849E+01 -4.847617151E+01 -2.334194238E+01  7.668545596E+01  1.261592536E-06  0.00000E+00  9.000E+00
#rwgt            1           1   2.7798498951163479E-002          10      252396           0
</event>
<event>
      5   9999  3.19816E-02  1.42154E+02 -1.00000E+00  1.17326E-01
       1    -1     0     0   502     0  0.000000000E+00  0.000000000E+00  1.467456704E+03  1.467456704E+03  0.000000000E+00  0.00000E+00  9.000E+00
      21    -1     0     0   501   502  0.000000000E+00  0.000000000E+00 -6.074781295E+01  6.074781295E+01  0.000000000E+00  0.00000E+00  9.000E+00
      25     1     1     2     0     0  2.538370607E+01 -1.786875937E+01  1.372050132E+02  1.881856550E+02  1.250000000E+02  0.00000E+00  9.000E+00
      25     1     1     2     0     0  7.938795515E+01 -7.820737972E+01  1.988603842E+02  2.599794109E+02  1.250000000E+02  0.00000E+00  9.000E+00
       1     1     1     2   501     0 -1.047716612E+02  9.607613908E+01  1.070643494E+03  1.080039452E+03  0.000000000E+00  0.00000E+00  9.000E+00
#rwgt            1           1   1.7107505698036000E-003          10      252489           0
</event>
<event>
      5   9999  3.19816E-02  2.78998E+01 -1.00000E+00  1.55262E-01
      21    -1     0     0   502   511  0.000000000E+00  0.000000000E+00  1.197744636E+02  1.197744636E+02  0.000000000E+00  0.00000E+00  9.000E+00
      21    -1     0     0   501   502  0.000000000E+00  0.000000000E+00 -4.460717744E+02  4.460717744E+02  0.000000000E+00  0.00000E+00  9.000E+00
      25     1     1     2     0     0  4.565399627E+01 -1.276185022E+02 -3.185619391E+02  3.680726539E+02  1.250000000E+02  0.00000E+00  9.000E+00
      25     1     1     2     0     0 -2.210633720E+01  1.126550071E+02 -6.994473018E+00  1.698639556E+02  1.250000000E+02  0.00000E+00  9.000E+00
      21     1     1     2   501   511 -2.354765907E+01  1.496349513E+01 -7.408986690E-01  2.790962853E+01  3.338658288E-07  0.00000E+00  9.000E+00
#rwgt            1           1   2.7013369440706557E-002          10      252539           0
</event>
<event>
      5   9999  3.19816E-02  1.62756E+02 -1.00000E+00  1.15006E-01
      21    -1     0     0   512   501  0.000000000E+00  0.000000000E+00  9.437403096E+02  9.437403096E+02  0.000000000E+00  0.00000E+00  9.000E+00
      21    -1     0     0   501   502  0.000000000E+00  0.000000000E+00 -6.319899753E+02  6.319899753E+02  0.000000000E+00  0.00000E+00  9.000E+00
      25     1     1     2     0     0  2.254328674E+02  5.750577902E+02  3.841153906E+02  7.380251168E+02  1.250000000E+02  0.00000E+00  9.000E+00
      25     1     1     2     0     0 -2.967854824E+02 -4.287764335E+02 -2.543938097E+02  5.935251156E+02  1.250000000E+02  0.00000E+00  9.000E+00
      21     1     1     2   512   502  7.135261492E+01 -1.462813566E+02  1.820287534E+02  2.441800525E+02  3.814697266E-06  0.00000E+00  9.000E+00
#rwgt            1           1   3.0329070693195213E-002          10      252675           0
</event>
<event>
      5   9999  3.19816E-02  7.69386E+02 -1.00000E+00  9.38103E-02
      21    -1     0     0   502   501  0.000000000E+00  0.000000000E+00  2.708657836E+03  2.708657836E+03  0.000000000E+00  0.00000E+00  9.000E+00
      21    -1     0     0   511   502  0.000000000E+00  0.000000000E+00 -8.180507620E+02  8.180507620E+02  0.000000000E+00  0.00000E+00  9.000E+00
      25     1     1     2     0     0 -3.889382237E+02 -7.100541604E+01  4.555993953E+02  6.160442517E+02  1.250000000E+02  0.00000E+00  9.000E+00
      25     1     1     2     0     0  6.844565657E+01 -6.284515002E+02  1.903666433E+03  2.009777844E+03  1.250000000E+02  0.00000E+00  9.000E+00
      21     1     1     2   511   501  3.204925672E+02  6.994569162E+02 -4.686587536E+02  9.008865026E+02  9.344061824E-06  0.00000E+00  9.000E+00
#rwgt            2          11   3.3080321171277626E-003          10      252805           0
</event>
<event>
      5   9999  3.19816E-02  9.15354E+01 -1.00000E+00  1.25581E-01
      21    -1     0     0   502   512  0.000000000E+00  0.000000000E+00  1.294888680E+03  1.294888680E+03  0.000000000E+00  0.00000E+00  9.000E+00
      21    -1     0     0   501   502  0.000000000E+00  0.000000000E+00 -9.654244059E+01  9.654244059E+01  0.000000000E+00  0.00000E+00  9.000E+00
      25     1     1     2     0     0  1.599374454E+02  1.617772813E+02  3.124966025E+02  4.062400789E+02  1.250000000E+02  0.00000E+00  9.000E+00
      25     1     1     2     0     0 -2.449753132E+02 -1.956488428E+02  6.547430412E+02  7.366171487E+02  1.250000000E+02  0.00000E+00  9.000E+00
      21     1     1     2   501   512  8.503786784E+01  3.387156153E+01  2.311065957E+02  2.485738929E+02  2.697398305E-06  0.00000E+00  9.000E+00
#rwgt            1           1   2.7656159398970540E-002          10      252825           0
</event>
<event>
      5   9999  3.19816E-02  3.63928E+01 -1.00000E+00  1.47433E-01
      21    -1     0     0   502   501  0.000000000E+00  0.000000000E+00  1.260299003E+03  1.260299003E+03  0.000000000E+00  0.00000E+00  9.000E+00
      21    -1     0     0   501   511  0.000000000E+00  0.000000000E+00 -1.123508205E+03  1.123508205E+03  0.000000000E+00  0.00000E+00  9.000E+00
      25     1     1     2     0     0 -3.993438912E+02 -3.049869223E+02 -8.924946946E+02  1.031825734E+03  1.250000000E+02  0.00000E+00  9.000E+00
      25     1     1     2     0     0  4.056329453E+02  2.691416750E+02  1.134396777E+03  1.240748313E+03  1.250000000E+02  0.00000E+00  9.000E+00
      21     1     1     2   502   511 -6.289054084E+00  3.584524730E+01 -1.051112845E+02  1.112331609E+02  0.000000000E+00  0.00000E+00  9.000E+00
#rwgt            1           1   2.9804770987321309E-002          10      252924           0
</event>
<event>
      5   9999  3.19816E-02  1.90407E+01 -1.00000E+00  1.68150E-01
      21    -1     0     0   512   501  0.000000000E+00  0.000000000E+00  1.951370182E+02  1.951370182E+02  0.000000000E+00  0.00000E+00  9.000E+00
      21    -1     0     0   501   502  0.000000000E+00  0.000000000E+00 -9.170119613E+02  9.170119613E+02  0.000000000E+00  0.00000E+00  9.000E+00
      25     1     1     2     0     0  2.129215804E+01 -3.606887391E+01 -1.174975915E+02  1.765927622E+02  1.250000000E+02  0.00000E+00  9.000E+00
      25     1     1     2     0     0 -1.038137652E+01  5.167343345E+01 -7.634192784E+02  7.753785600E+02  1.250000000E+02  0.00000E+00  9.000E+00
      21     1     1     2   512   502 -1.091078152E+01 -1.560455954E+01  1.590419267E+02  1.601776573E+02  3.303624740E-06  0.00000E+00  9.000E+00
#rwgt            1           1   2.2182442589010663E-002          10      253125           0
</event>
<event>
      5   9999  3.19816E-02  8.68574E+01 -1.00000E+00  1.26644E-01
      21    -1     0     0   502   501  0.000000000E+00  0.000000000E+00  6.070592996E+02  6.070592996E+02  0.000000000E+00  0.00000E+00  9.000E+00
      21    -1     0     0   501   511  0.000000000E+00  0.000000000E+00 -3.699412401E+02  3.699412401E+02  0.000000000E+00  0.00000E+00  9.000E+00
      25     1     1     2     0     0  1.933156255E+01  3.010971909E+02  3.906168455E+02  5.091559168E+02  1.250000000E+02  0.00000E+00  9.000E+00
      25     1     1     2     0     0 -9.123346070E+01 -2.523701126E+02 -5.321681309E+00  2.960870452E+02  1.250000000E+02  0.00000E+00  9.000E+00
      21     1     1     2   502   511  7.190189815E+01 -4.872707832E+01 -1.481771047E+02  1.717575776E+02  1.907348633E-06  0.00000E+00  9.000E+00
#rwgt            1           1   2.7103792289765768E-002          10      253313           0
</event>
<event>
      5   9999  3.19816E-02  1.23901E+02 -1.00000E+00  1.19782E-01
      21    -1     0     0   502   501  0.000000000E+00  0.000000000E+00  5.420130502E+02  5.420130502E+02  0.000000000E+00  0.00000E+00  9.000E+00
      21    -1     0     0   512   502  0.000000000E+00  0.000000000E+00 -7.364387568E+02  7.364387568E+02  0.000000000E+00  0.00000E+00  9.000E+00
      25     1     1     2     0     0 -1.573143081E+02 -1.444182727E+02 -4.472353400E+02  5.111251103E+02  1.250000000E+02  0.00000E+00  9.000E+00
      25     1     1     2     0     0  2.807628749E+02  1.549959728E+02  4.301986190E+02  5.509513548E+02  1.250000000E+02  0.00000E+00  9.000E+00
      21     1     1     2   512   501 -1.234485668E+02 -1.057770013E+01 -1.773889856E+02  2.163753420E+02  1.907348633E-06  0.00000E+00  9.000E+00
#rwgt            2          11   3.8578797498777582E-003          10      253407           0
</event>
<event>
      5   9999  3.19816E-02  6.22363E+01 -1.00000E+00  1.33860E-01
      21    -1     0     0   511   501  0.000000000E+00  0.000000000E+00  2.286741295E+02  2.286741295E+02  0.000000000E+00  0.00000E+00  9.000E+00
      21    -1     0     0   501   502  0.000000000E+00  0.000000000E+00 -1.019239240E+03  1.019239240E+03  0.000000000E+00  0.00000E+00  9.000E+00
      25     1     1     2     0     0  1.614914609E+02  3.622410230E+01  2.128793725E+01  2.084942537E+02  1.250000000E+02  0.00000E+00  9.000E+00
      25     1     1     2     0     0 -1.491230775E+02  2.477083885E+01 -9.057624687E+02  9.267588341E+02  1.250000000E+02  0.00000E+00  9.000E+00
      21     1     1     2   511   502 -1.236838339E+01 -6.099494115E+01  9.390942096E+01  1.126602818E+02  3.303624740E-06  0.00000E+00  9.000E+00
#rwgt            1           1   2.6479417315953529E-002          10      253427           0
</event>
<event>
      5   9999  3.19816E-02  5.51772E+01 -1.00000E+00  1.36677E-01
       2    -1     0     0   502     0  0.000000000E+00  0.000000000E+00  7.153460512E+02  7.153460512E+02  0.000000000E+00  0.00000E+00  9.000E+00
      21    -1     0     0   501   502  0.000000000E+00  0.000000000E+00 -1.363832791E+03  1.363832791E+03  0.000000000E+00  0.00000E+00  9.000E+00
      25     1     1     2     0     0 -1.881331895E+02  4.090331981E+02  5.857003498E+01  4.709115662E+02  1.250000000E+02  0.00000E+00  9.000E+00
      25     1     1     2     0     0  1.892270100E+02 -3.538668169E+02 -1.117606691E+03  1.194026089E+03  1.250000000E+02  0.00000E+00  9.000E+00
       2     1     1     2   501     0 -1.093820488E+00 -5.516638128E+01  4.105499170E+02  4.142411863E+02  5.394796609E-06  0.00000E+00  9.000E+00
#rwgt            1           1   2.6714725935784230E-002          10      253504           0
</event>
<event>
      5   9999  3.19816E-02  2.30987E+01 -1.00000E+00  1.61368E-01
      21    -1     0     0   511   501  0.000000000E+00  0.000000000E+00  7.299670721E+02  7.299670721E+02  0.000000000E+00  0.00000E+00  9.000E+00
      21    -1     0     0   501   502  0.000000000E+00  0.000000000E+00 -1.325455016E+02  1.325455016E+02  0.000000000E+00  0.00000E+00  9.000E+00
      25     1     1     2     0     0 -8.956942714E+01  2.329659104E+02  3.646240381E+02  4.592074551E+02  1.250000000E+02  0.00000E+00  9.000E+00
      25     1     1     2     0     0  8.451733319E+01 -2.555053837E+02  1.835646026E+02  3.489228339E+02  1.250000000E+02  0.00000E+00  9.000E+00
      21     1     1     2   511   502  5.052093943E+00  2.253947330E+01  4.923292984E+01  5.438228471E+01  9.536743164E-07  0.00000E+00  9.000E+00
#rwgt            1           1   2.9638034104988154E-002          10      253655           0
</event>
<event>
      5   9999  3.19816E-02  2.36189E+01 -1.00000E+00  1.60622E-01
      21    -1     0     0   502   501  0.000000000E+00  0.000000000E+00  4.285986733E+02  4.285986733E+02  0.000000000E+00  0.00000E+00  9.000E+00
      21    -1     0     0   512   502  0.000000000E+00  0.000000000E+00 -7.189099173E+01  7.189099173E+01  0.000000000E+00  0.00000E+00  9.000E+00
      25     1     1     2     0     0  3.025986856E+01 -8.186050589E+01  1.392096832E+02  2.064488749E+02  1.250000000E+02  0.00000E+00  9.000E+00
      25     1     1     2     0     0 -3.781239485E+01  1.042393564E+02  2.117396460E+02  2.697300471E+02  1.250000000E+02  0.00000E+00  9.000E+00
      21     1     1     2   512   501  7.552526289E+00 -2.237885047E+01  5.758352315E+00  2.431074295E+01  2.528810911E-07  0.00000E+00  9.000E+00
#rwgt            1           1   2.4131478484652934E-002          10      253791           0
</event>
<event>
      5   9999  3.19816E-02  2.05763E+01 -1.00000E+00  1.65357E-01
      21    -1     0     0   502   501  0.000000000E+00  0.000000000E+00  1.823981516E+02  1.823981516E+02  0.000000000E+00  0.00000E+00  9.000E+00
      21    -1     0     0   511   502  0.000000000E+00  0.000000000E+00 -9.280751860E+02  9.280751860E+02  0.000000000E+00  0.00000E+00  9.000E+00
      25     1     1     2     0     0 -2.627304893E+02  8.634953172E+01 -6.823869567E+02  7.468336564E+02  1.250000000E+02  0.00000E+00  9.000E+00
      25     1     1     2     0     0  2.569386128E+02 -6.660516514E+01  3.850386231E+00  2.934169801E+02  1.250000000E+02  0.00000E+00  9.000E+00
      21     1     1     2   511   501  5.791876571E+00 -1.974436657E+01 -6.714046394E+01  7.022270106E+01  0.000000000E+00  0.00000E+00  9.000E+00
#rwgt            1           1   2.8106188349213124E-002          10      253866           0
</event>
<event>
      5   9999  3.19816E-02  5.70733E+01 -1.00000E+00  1.35874E-01
      21    -1     0     0   502   512  0.000000000E+00  0.000000000E+00  9.997234529E+02  9.997234529E+02  0.000000000E+00  0.00000E+00  9.000E+00
      21    -1     0     0   501   502  0.000000000E+00  0.000000000E+00 -5.143954776E+02  5.143954776E+02  0.000000000E+00  0.00000E+00  9.000E+00
      25     1     1     2     0     0  4.042528230E+02 -5.276331298E+02  4.235773261E+02  7.980349715E+02  1.250000000E+02  0.00000E+00  9.000E+00
      25     1     1     2     0     0 -3.758757254E+02  4.781144558E+02 -1.423624837E+01  6.210504525E+02  1.250000000E+02  0.00000E+00  9.000E+00
      21     1     1     2   501   512 -2.837709763E+01  4.951867403E+01  7.598689760E+01  9.503350649E+01  9.536743164E-07  0.00000E+00  9.000E+00
#rwgt            1           1   2.9944214404065455E-002          10      254036           0
</event>
<event>
      5   9999  3.19816E-02  6.99732E+01 -1.00000E+00  1.31229E-01
      21    -1     0     0   502   501  0.000000000E+00  0.000000000E+00  7.403184650E+02  7.403184650E+02  0.000000000E+00  0.00000E+00  9.000E+00
      21    -1     0     0   511   502  0.000000000E+00  0.000000000E+00 -3.364309950E+02  3.364309950E+02  0.000000000E+00  0.00000E+00  9.000E+00
      25     1     1     2     0     0  4.432457998E+02  5.053643437E+01  3.959917411E+02  6.094712703E+02  1.250000000E+02  0.00000E+00  9.000E+00
      25     1     1     2     0     0 -3.732851132E+02 -4.921181390E+01 -1.140359937E+00  3.967239327E+02  1.250000000E+02  0.00000E+00  9.000E+00
      21     1     1     2   511   501 -6.996068662E+01 -1.324620472E+00  9.036088810E+00  7.055425709E+01  1.727506727E-06  0.00000E+00  9.000E+00
#rwgt            1           1   2.8416246399871215E-002          10      254201           0
</event>
<event>
      5   9999  3.19816E-02  3.24492E+02 -1.00000E+00  1.04496E-01
       2    -1     0     0   502     0  0.000000000E+00  0.000000000E+00  4.349960085E+03  4.349960085E+03  0.000000000E+00  0.00000E+00  9.000E+00
      21    -1     0     0   501   502  0.000000000E+00  0.000000000E+00 -8.971476462E+02  8.971476462E+02  0.000000000E+00  0.00000E+00  9.000E+00
      25     1     1     2     0     0  1.548610167E+02 -8.923683071E+01  3.362110829E+01  2.206819553E+02  1.250000000E+02  0.00000E+00  9.000E+00
      25     1     1     2     0     0 -2.978158135E+02 -2.020688905E+02 -7.518031582E+02  8.428280275E+02  1.250000000E+02  0.00000E+00  9.000E+00
       2     1     1     2   501     0  1.429547968E+02  2.913057212E+02  4.170994488E+03  4.183597748E+03  0.000000000E+00  0.00000E+00  9.000E+00
#rwgt            2          18   8.7777121432628027E-003          10      254518           0
</event>
<event>
      5   9999  3.19816E-02  2.18876E+02 -1.00000E+00  1.10241E-01
       2    -1     0     0   502     0  0.000000000E+00  0.000000000E+00  5.991545583E+02  5.991545583E+02  0.000000000E+00  0.00000E+00  9.000E+00
      21    -1     0     0   501   502  0.000000000E+00  0.000000000E+00 -4.754866622E+02  4.754866622E+02  0.000000000E+00  0.00000E+00  9.000E+00
      25     1     1     2     0     0  7.246022993E+01  1.257782255E+02 -8.459987884E+01  2.094105691E+02  1.250000000E+02  0.00000E+00  9.000E+00
      25     1     1     2     0     0 -1.951398231E+02 -3.070411299E+02 -1.759760005E+02  4.230205181E+02  1.250000000E+02  0.00000E+00  9.000E+00
       2     1     1     2   501     0  1.226795932E+02  1.812629043E+02  3.842437754E+02  4.422101333E+02  5.394796609E-06  0.00000E+00  9.000E+00
#rwgt            2          18   8.3377624538555730E-004          10      254582           0
</event>
<event>
      5   9999  3.19816E-02  5.00339E+01 -1.00000E+00  1.39059E-01
      21    -1     0     0   511   501  0.000000000E+00  0.000000000E+00  1.284141052E+03  1.284141052E+03  0.000000000E+00  0.00000E+00  9.000E+00
      21    -1     0     0   501   502  0.000000000E+00  0.000000000E+00 -3.066150143E+01  3.066150143E+01  0.000000000E+00  0.00000E+00  9.000E+00
      25     1     1     2     0     0  6.914246325E+01 -7.284181410E+01  7.145807375E+02  7.323504902E+02  1.250000000E+02  0.00000E+00  9.000E+00
      25     1     1     2     0     0 -1.913958005E+01  7.108045277E+01  2.482412875E+02  2.875195491E+02  1.250000000E+02  0.00000E+00  9.000E+00
      21     1     1     2   511   502 -5.000288320E+01  1.761361328E+00  2.906575260E+02  2.949325146E+02  5.394796609E-06  0.00000E+00  9.000E+00
#rwgt            1           1   3.0684895925155380E-002          10      254601           0
</event>
<event>
      5   9999  3.19816E-02  1.22006E+02 -1.00000E+00  1.20063E-01
      21    -1     0     0   502   501  0.000000000E+00  0.000000000E+00  6.509776473E+01  6.509776473E+01  0.000000000E+00  0.00000E+00  9.000E+00
      21    -1     0     0   512   502  0.000000000E+00  0.000000000E+00 -3.254335442E+03  3.254335442E+03  0.000000000E+00  0.00000E+00  9.000E+00
      25     1     1     2     0     0  6.096665905E+01 -7.007760867E+01 -5.348929214E+01  1.646630169E+02  1.250000000E+02  0.00000E+00  9.000E+00
      25     1     1     2     0     0 -1.155283357E+02 -3.904894062E+01 -9.704646650E+02  9.860518658E+02  1.250000000E+02  0.00000E+00  9.000E+00
      21     1     1     2   512   501  5.456167662E+01  1.091265493E+02 -2.165283720E+03  2.168718324E+03  0.000000000E+00  0.00000E+00  9.000E+00
#rwgt            1           1   2.6528084182335463E-002          10      254698           0
</event>
<event>
      5   9999  3.19816E-02  2.01779E+01 -1.00000E+00  1.66052E-01
      21    -1     0     0   502   501  0.000000000E+00  0.000000000E+00  3.866480890E+02  3.866480890E+02  0.000000000E+00  0.00000E+00  9.000E+00
       2    -1     0     0   501     0  0.000000000E+00  0.000000000E+00 -9.053222895E+02  9.053222895E+02  0.000000000E+00  0.00000E+00  9.000E+00
      25     1     1     2     0     0 -1.564511358E+02 -1.501907852E+02  2.617088674E+02  3.621474301E+02  1.250000000E+02  0.00000E+00  9.000E+00
      25     1     1     2     0     0  1.363368387E+02  1.517920438E+02 -1.173883730E+02  2.665212717E+02  1.250000000E+02  0.00000E+00  9.000E+00
       2     1     1     2   502     0  2.011429716E+01 -1.601258517E+00 -6.629946948E+02  6.633016767E+02  0.000000000E+00  0.00000E+00  9.000E+00
#rwgt            1           1   2.8185151079814636E-002          10      254755           0
</event>
<event>
      5   9999  3.19816E-02  4.44848E+01 -1.00000E+00  1.42035E-01
      21    -1     0     0   502   501  0.000000000E+00  0.000000000E+00  5.213814200E+02  5.213814200E+02  0.000000000E+00  0.00000E+00  9.000E+00
      -5    -1     0     0     0   502  0.000000000E+00  0.000000000E+00 -1.818025870E+02  1.818025870E+02  0.000000000E+00  0.00000E+00  9.000E+00
      25     1     1     2     0     0  3.239755859E+00  1.418768363E+02  2.975158325E+02  3.525339746E+02  1.250000000E+02  0.00000E+00  9.000E+00
      25     1     1     2     0     0  4.046061060E+01 -1.335598014E+02  1.460471371E+02  2.375500953E+02  1.250000000E+02  0.00000E+00  9.000E+00
      -5     1     1     2     0   501 -4.370036646E+01 -8.317034903E+00 -1.039841365E+02  1.130999370E+02  1.348699152E-06  0.00000E+00  9.000E+00
#rwgt            1           1   2.8965870389298310E-002          10      254928           0
</event>
<event>
      5   9999  3.19816E-02  4.71293E+01 -1.00000E+00  1.40557E-01
      21    -1     0     0   511   501  0.000000000E+00  0.000000000E+00  1.510420936E+03  1.510420936E+03  0.000000000E+00  0.00000E+00  9.000E+00
      21    -1     0     0   501   502  0.000000000E+00  0.000000000E+00 -7.985707642E+01  7.985707642E+01  0.000000000E+00  0.00000E+00  9.000E+00
      25     1     1     2     0     0 -2.338907770E+02 -3.238282869E+01  2.662543677E+02  3.771868654E+02  1.250000000E+02  0.00000E+00  9.000E+00
      25     1     1     2     0     0  2.125132508E+02  7.438486222E+01  6.907866795E+02  7.372287475E+02  1.250000000E+02  0.00000E+00  9.000E+00
      21     1     1     2   511   502  2.137752618E+01 -4.200203352E+01  4.735228124E+02  4.758623996E+02  7.629394531E-06  0.00000E+00  9.000E+00
#rwgt            1           1   2.8821658434833523E-002          10      254994           0
</event>
<event>
      5   9999  3.19816E-02  3.36378E+01 -1.00000E+00  1.49666E-01
      21    -1     0     0   502   501  0.000000000E+00  0.000000000E+00  6.647979351E+02  6.647979351E+02  0.000000000E+00  0.00000E+00  9.000E+00
       1    -1     0     0   501     0  0.000000000E+00  0.000000000E+00 -1.137921140E+03  1.137921140E+03  0.000000000E+00  0.00000E+00  9.000E+00
      25     1     1     2     0     0 -4.568376056E+02 -6.580969642E+02 -4.505951010E+02  9.276061434E+02  1.250000000E+02  0.00000E+00  9.000E+00
      25     1     1     2     0     0  4.644685116E+02  6.253361281E+02  5.475972617E+01  7.908222929E+02  1.250000000E+02  0.00000E+00  9.000E+00
       1     1     1     2   502     0 -7.630905994E+00  3.276083610E+01 -7.728783028E+01  8.429063897E+01  1.651812370E-06  0.00000E+00  9.000E+00
#rwgt            1           1   2.7263646683008052E-002          10      255071           0
</event>
<event>
      5   9999  3.19816E-02  4.56528E+01 -1.00000E+00  1.41367E-01
      21    -1     0     0   511   501  0.000000000E+00  0.000000000E+00  5.605451857E+01  5.605451857E+01  0.000000000E+00  0.00000E+00  9.000E+00
      21    -1     0     0   501   502  0.000000000E+00  0.000000000E+00 -2.198505803E+03  2.198505803E+03  0.000000000E+00  0.00000E+00  9.000E+00
      25     1     1     2     0     0 -6.211791374E+01  7.790617616E+01 -1.994220398E+03  2.000616906E+03  1.250000000E+02  0.00000E+00  9.000E+00
      25     1     1     2     0     0  1.655331943E+01 -7.506911318E+01 -6.822852859E+01  1.618317529E+02  1.250000000E+02  0.00000E+00  9.000E+00
      21     1     1     2   511   502  4.556459431E+01 -2.837062978E+00 -8.000235721E+01  9.211166235E+01  2.132480600E-06  0.00000E+00  9.000E+00
#rwgt            1           1   9.3200856137786392E-002          10      255228           0
</event>
<event>
      5   9999  3.19816E-02  2.87257E+01 -1.00000E+00  1.54361E-01
      21    -1     0     0   502   512  0.000000000E+00  0.000000000E+00  1.384353693E+02  1.384353693E+02  0.000000000E+00  0.00000E+00  9.000E+00
      21    -1     0     0   501   502  0.000000000E+00  0.000000000E+00 -4.280356043E+02  4.280356043E+02  0.000000000E+00  0.00000E+00  9.000E+00
      25     1     1     2     0     0  1.203927496E+02  1.002314234E+02 -2.152410797E+02  2.940994301E+02  1.250000000E+02  0.00000E+00  9.000E+00
      25     1     1     2     0     0 -9.508389041E+01 -8.664370754E+01 -1.218688892E+02  2.168527252E+02  1.250000000E+02  0.00000E+00  9.000E+00
      21     1     1     2   501   512 -2.530885919E+01 -1.358771588E+01  4.750973387E+01  5.551881833E+01  1.168007728E-06  0.00000E+00  9.000E+00
#rwgt            1           1   2.5859813066951769E-002          10      255345           0
</event>
<event>
      5   9999  3.19816E-02  9.31366E+01 -1.00000E+00  1.25233E-01
      21    -1     0     0   502   501  0.000000000E+00  0.000000000E+00  1.742155953E+03  1.742155953E+03  0.000000000E+00  0.00000E+00  9.000E+00
      21    -1     0     0   511   502  0.000000000E+00  0.000000000E+00 -7.896447413E+01  7.896447413E+01  0.000000000E+00  0.00000E+00  9.000E+00
      25     1     1     2     0     0 -1.401183013E+02  2.066776209E+02  5.338186567E+02  6.024418109E+02  1.250000000E+02  0.00000E+00  9.000E+00
      25     1     1     2     0     0  7.891270438E+01 -2.768794251E+02  1.051280906E+03  1.097135349E+03  1.250000000E+02  0.00000E+00  9.000E+00
      21     1     1     2   511   501  6.120559696E+01  7.020180422E+01  7.809191647E+01  1.215432673E+02  2.523185073E-06  0.00000E+00  9.000E+00
#rwgt            1           1   2.8297562977294671E-002          10      255452           0
</event>
<event>
      5   9999  3.19816E-02  4.55572E+01 -1.00000E+00  1.41421E-01
      21    -1     0     0   502   501  0.000000000E+00  0.000000000E+00  8.454341105E+01  8.454341105E+01  0.000000000E+00  0.00000E+00  9.000E+00
      21    -1     0     0   501   512  0.000000000E+00  0.000000000E+00 -7.813834260E+02  7.813834260E+02  0.000000000E+00  0.00000E+00  9.000E+00
      25     1     1     2     0     0 -1.677189491E+01  1.615027615E+02 -3.139935431E+02  3.749418402E+02  1.250000000E+02  0.00000E+00  9.000E+00
      25     1     1     2     0     0 -1.840681047E+01 -1.904496192E+02 -2.037479863E+02  3.061831315E+02  1.250000000E+02  0.00000E+00  9.000E+00
      21     1     1     2   502   512  3.517870538E+01  2.894685771E+01 -1.790984856E+02  1.848018653E+02  3.303624740E-06  0.00000E+00  9.000E+00
#rwgt            1           1   2.3458186051158573E-002          10      255517           0
</event>
<event>
      5   9999  3.19816E-02  6.31539E+01 -1.00000E+00  1.33525E-01
       2    -1     0     0   502     0  0.000000000E+00  0.000000000E+00  2.235760540E+03  2.235760540E+03  0.000000000E+00  0.00000E+00  9.000E+00
      21    -1     0     0   501   502  0.000000000E+00  0.000000000E+00 -2.887066892E+02  2.887066892E+02  0.000000000E+00  0.00000E+00  9.000E+00
      25     1     1     2     0     0  1.245689131E+02  5.368817922E+02  2.620533774E+02  6.229417674E+02  1.250000000E+02  0.00000E+00  9.000E+00
      25     1     1     2     0     0 -1.511544550E+02 -5.941672493E+02  8.065069630E+02  1.020764846E+03  1.250000000E+02  0.00000E+00  9.000E+00
       2     1     1     2   501     0  2.658554195E+01  5.728545713E+01  8.784935108E+02  8.807606163E+02  0.000000000E+00  0.00000E+00  9.000E+00
#rwgt            1           1   2.9175390522364848E-002          10      255608           0
</event>
<event>
      5   9999  3.19816E-02  3.98821E+01 -1.00000E+00  1.44920E-01
      21    -1     0     0   502   501  0.000000000E+00  0.000000000E+00  2.919909564E+02  2.919909564E+02  0.000000000E+00  0.00000E+00  9.000E+00
      21    -1     0     0   501   511  0.000000000E+00  0.000000000E+00 -7.832328857E+02  7.832328857E+02  0.000000000E+00  0.00000E+00  9.000E+00
      25     1     1     2     0     0 -2.006306452E+02 -3.442587060E+02 -2.165494015E+02  4.704097743E+02  1.250000000E+02  0.00000E+00  9.000E+00
      25     1     1     2     0     0  1.689229945E+02  3.200676231E+02 -6.134535259E+01  3.877712131E+02  1.250000000E+02  0.00000E+00  9.000E+00
      21     1     1     2   502   511  3.170765076E+01  2.419108299E+01 -2.133471752E+02  2.170428547E+02  2.697398305E-06  0.00000E+00  9.000E+00
#rwgt            1           1   2.6701540312123278E-002          10      255737           0
</event>
<event>
      5   9999  3.19816E-02  3.56074E+01 -1.00000E+00  1.48045E-01
      21    -1     0     0   502   501  0.000000000E+00  0.000000000E+00  1.185447872E+02  1.185447872E+02  0.000000000E+00  0.00000E+00  9.000E+00
       1    -1     0     0   501     0  0.000000000E+00  0.000000000E+00 -3.053354277E+03  3.053354277E+03  0.000000000E+00  0.00000E+00  9.000E+00
      25     1     1     2     0     0 -7.341065511E+01 -2.167988142E+02 -1.804607293E+02  3.171465354E+02  1.250000000E+02  0.00000E+00  9.000E+00
      25     1     1     2     0     0  4.574680631E+01  1.943801785E+02 -2.270068553E+02  3.271598026E+02  1.250000000E+02  0.00000E+00  9.000E+00
       1     1     1     2   502     0  2.766384879E+01  2.241863571E+01 -2.527341905E+03  2.527592726E+03  4.315837288E-05  0.00000E+00  9.000E+00
#rwgt            1           1   2.9813117341127918E-002          10      255837           0
</event>
<event>
      5   9999  3.19816E-02  2.48856E+01 -1.00000E+00  1.58900E-01
       1    -1     0     0   502     0  0.000000000E+00  0.000000000E+00  3.141693951E+02  3.141693951E+02  0.000000000E+00  0.00000E+00  9.000E+00
      21    -1     0     0   501   502  0.000000000E+00  0.000000000E+00 -6.053710073E+02  6.053710073E+02  0.000000000E+00  0.00000E+00  9.000E+00
      25     1     1     2     0     0  3.442448364E+01  2.658504819E+02 -2.005426893E+02  3.573568161E+02  1.250000000E+02  0.00000E+00  9.000E+00
      25     1     1     2     0     0 -3.997057991E+01 -2.415907967E+02 -2.675031157E+02  3.835970246E+02  1.250000000E+02  0.00000E+00  9.000E+00
       1     1     1     2   501     0  5.546096269E+00 -2.425968514E+01  1.768441928E+02  1.785865617E+02  3.303624740E-06  0.00000E+00  9.000E+00
#rwgt            1           1   2.6921301822218534E-002          10      255919           0
</event>
<event>
      5   9999  3.19816E-02  5.19645E+02 -1.00000E+00  9.83788E-02
      21    -1     0     0   502   501  0.000000000E+00  0.000000000E+00  1.738151948E+03  1.738151948E+03  0.000000000E+00  0.00000E+00  9.000E+00
      -4    -1     0     0     0   502  0.000000000E+00  0.000000000E+00 -2.769455753E+02  2.769455753E+02  0.000000000E+00  0.00000E+00  9.000E+00
      25     1     1     2     0     0 -3.640058625E+01 -4.377040660E+02  5.961288130E+02  7.509356922E+02  1.250000000E+02  0.00000E+00  9.000E+00
      25     1     1     2     0     0  3.549966773E+02  2.718259554E+01  5.115343649E+02  6.356523742E+02  1.250000000E+02  0.00000E+00  9.000E+00
      -4     1     1     2     0   501 -3.185960910E+02  4.105214705E+02  3.535431951E+02  6.285094571E+02  3.814697266E-06  0.00000E+00  9.000E+00
#rwgt            2           7   2.7099179629216618E-005          10      256029           0
</event>
<event>
      5   9999  3.19816E-02  1.18305E+02 -1.00000E+00  1.20631E-01
      21    -1     0     0   502   511  0.000000000E+00  0.000000000E+00  2.284743874E+03  2.284743874E+03  0.000000000E+00  0.00000E+00  9.000E+00
      21    -1     0     0   501   502  0.000000000E+00  0.000000000E+00 -7.994856257E+01  7.994856257E+01  0.000000000E+00  0.00000E+00  9.000E+00
      25     1     1     2     0     0 -5.152239257E+00 -1.798674616E+02  1.426170748E+03  1.442902233E+03  1.250000000E+02  0.00000E+00  9.000E+00
      25     1     1     2     0     0  4.646644847E+01  2.907242390E+02  3.371167809E+02  4.647068301E+02  1.250000000E+02  0.00000E+00  9.000E+00
      21     1     1     2   501   511 -4.131420921E+01 -1.108567774E+02  4.415077817E+02  4.570833735E+02  9.344061824E-06  0.00000E+00  9.000E+00
#rwgt            1           1   3.4635304571752727E-002          10      256048           0
</event>
<event>
      5   9999  3.19816E-02  1.68138E+02 -1.00000E+00  1.14462E-01
      21    -1     0     0   502   501  0.000000000E+00  0.000000000E+00  9.516285048E+01  9.516285048E+01  0.000000000E+00  0.00000E+00  9.000E+00
      21    -1     0     0   512   502  0.000000000E+00  0.000000000E+00 -1.256647718E+03  1.256647718E+03  0.000000000E+00  0.00000E+00  9.000E+00
      25     1     1     2     0     0  6.862548326E+01 -9.095835412E+00 -5.970455080E+00  1.430134172E+02  1.250000000E+02  0.00000E+00  9.000E+00
      25     1     1     2     0     0  5.499474848E+01 -1.048705673E+02 -7.556886663E+02  7.750565261E+02  1.250000000E+02  0.00000E+00  9.000E+00
      21     1     1     2   512   501 -1.236202317E+02  1.139664027E+02 -3.998257459E+02  4.337406250E+02  0.000000000E+00  0.00000E+00  9.000E+00
#rwgt            1           1   2.9641290175873952E-002          10      256114           0
</event>
<event>
      5   9999  3.19816E-02  1.72923E+02 -1.00000E+00  1.13997E-01
      21    -1     0     0   502   501  0.000000000E+00  0.000000000E+00  1.647787614E+03  1.647787614E+03  0.000000000E+00  0.00000E+00  9.000E+00
       2    -1     0     0   501     0  0.000000000E+00  0.000000000E+00 -1.854815286E+03  1.854815286E+03  0.000000000E+00  0.00000E+00  9.000E+00
      25     1     1     2     0     0  3.648050546E+02  1.380176502E+02  1.397533379E+03  1.456315950E+03  1.250000000E+02  0.00000E+00  9.000E+00
      25     1     1     2     0     0 -4.885755600E+02 -1.725718998E+01 -7.875865013E+01  5.107169602E+02  1.250000000E+02  0.00000E+00  9.000E+00
       2     1     1     2   502     0  1.237705054E+02 -1.207604602E+02 -1.525802402E+03  1.535569990E+03  0.000000000E+00  0.00000E+00  9.000E+00
#rwgt            2          13   1.1543226383413740E-002          10      256391           0
</event>
<event>
      5   9999  3.19816E-02  6.50411E+01 -1.00000E+00  1.32857E-01
      21    -1     0     0   502   511  0.000000000E+00  0.000000000E+00  1.733737682E+03  1.733737682E+03  0.000000000E+00  0.00000E+00  9.000E+00
      21    -1     0     0   501   502  0.000000000E+00  0.000000000E+00 -7.450761690E+02  7.450761690E+02  0.000000000E+00  0.00000E+00  9.000E+00
      25     1     1     2     0     0 -3.265142961E+02 -3.954990094E+02  1.451220244E+03  1.544246175E+03  1.250000000E+02  0.00000E+00  9.000E+00
      25     1     1     2     0     0  3.587363511E+02  4.519975828E+02 -5.623922118E+02  8.154162031E+02  1.250000000E+02  0.00000E+00  9.000E+00
      21     1     1     2   501   511 -3.222205492E+01 -5.649857337E+01  9.983348097E+01  1.191514731E+02  1.907348633E-06  0.00000E+00  9.000E+00
#rwgt            1           1   2.7468309809086777E-002          10      256425           0
</event>
<event>
      5   9999  3.19816E-02  4.19757E+02 -1.00000E+00  1.01059E-01
      21    -1     0     0   502   501  0.000000000E+00  0.000000000E+00  2.634331024E+02  2.634331024E+02  0.000000000E+00  0.00000E+00  9.000E+00
      21    -1     0     0   501   512  0.000000000E+00  0.000000000E+00 -1.465210808E+03  1.465210808E+03  0.000000000E+00  0.00000E+00  9.000E+00
      25     1     1     2     0     0  2.265637660E+02 -4.525220591E+01  4.939521632E+00  2.627323754E+02  1.250000000E+02  0.00000E+00  9.000E+00
      25     1     1     2     0     0 -8.965988286E+01 -3.515512117E+02 -7.691554436E+02  8.595651490E+02  1.250000000E+02  0.00000E+00  9.000E+00
      21     1     1     2   502   512 -1.369038831E+02  3.968034176E+02 -4.375617841E+02  6.063463864E+02  5.394796609E-06  0.00000E+00  9.000E+00
#rwgt            2          11   2.3631763452456496E-003          10      256568           0
</event>
<event>
      5   9999  3.19816E-02  6.18114E+01 -1.00000E+00  1.34017E-01
      21    -1     0     0   502   501  0.000000000E+00  0.000000000E+00  1.518872585E+03  1.518872585E+03  0.000000000E+00  0.00000E+00  9.000E+00
      21    -1     0     0   501   511  0.000000000E+00  0.000000000E+00 -8.138063769E+02  8.138063769E+02  0.000000000E+00  0.00000E+00  9.000E+00
      25     1     1     2     0     0 -7.133658063E+02 -2.533222267E+02  1.342724379E+02  7.789204142E+02  1.250000000E+02  0.00000E+00  9.000E+00
      25     1     1     2     0     0  7.141093830E+02  1.915153324E+02  9.269585937E+02  1.192269922E+03  1.250000000E+02  0.00000E+00  9.000E+00
      21     1     1     2   502   511 -7.435766736E-01  6.180689422E+01 -3.561648232E+02  3.614886255E+02  8.529922400E-06  0.00000E+00  9.000E+00
#rwgt            1           1   2.7955555866924133E-002          10      256588           0
</event>
<event>
      5   9999  3.19816E-02  2.49452E+02 -1.00000E+00  1.08263E-01
       2    -1     0     0   502     0  0.000000000E+00  0.000000000E+00  3.166402363E+02  3.166402363E+02  0.000000000E+00  0.00000E+00  9.000E+00
      21    -1     0     0   501   502  0.000000000E+00  0.000000000E+00 -7.491447135E+02  7.491447135E+02  0.000000000E+00  0.00000E+00  9.000E+00
      25     1     1     2     0     0  5.296592599E+00  1.513652519E+02 -1.362096867E+01  1.968502583E+02  1.250000000E+02  0.00000E+00  9.000E+00
      25     1     1     2     0     0 -1.751977234E+02 -3.340117389E+02 -1.921763710E+01  3.978095041E+02  1.250000000E+02  0.00000E+00  9.000E+00
       2     1     1     2   501     0  1.699011308E+02  1.826464869E+02 -3.996658715E+02  4.711251874E+02  5.394796609E-06  0.00000E+00  9.000E+00
#rwgt            1           1   2.8488887894791017E-002          10      256700           0
</event>
<event>
      5   9999  3.19816E-02  1.54297E+02 -1.00000E+00  1.15910E-01
      21    -1     0     0   511   501  0.000000000E+00  0.000000000E+00  1.248525957E+03  1.248525957E+03  0.000000000E+00  0.00000E+00  9.000E+00
      21    -1     0     0   501   502  0.000000000E+00  0.000000000E+00 -8.039144260E+02  8.039144260E+02  0.000000000E+00  0.00000E+00  9.000E+00
      25     1     1     2     0     0 -4.410492692E+02  2.040085890E+02 -6.595084419E+00  5.018091842E+02  1.250000000E+02  0.00000E+00  9.000E+00
      25     1     1     2     0     0  2.922071567E+02 -1.633444561E+02 -4.846480438E+02  6.021421428E+02  1.250000000E+02  0.00000E+00  9.000E+00
      21     1     1     2   511   502  1.488421125E+02 -4.066413288E+01  9.358546589E+02  9.484890557E+02  1.078959322E-05  0.00000E+00  9.000E+00
#rwgt            1           1   2.6706077125420672E-002          10      256741           0
</event>
<event>
      5   9999  3.19816E-02  1.76795E+02 -1.00000E+00  1.13633E-01
      21    -1     0     0   502   501  0.000000000E+00  0.000000000E+00  3.264637480E+02  3.264637480E+02  0.000000000E+00  0.00000E+00  9.000E+00
      21    -1     0     0   512   502  0.000000000E+00  0.000000000E+00 -6.723570075E+02  6.723570075E+02  0.000000000E+00  0.00000E+00  9.000E+00
      25     1     1     2     0     0 -1.653399458E+02 -1.233798968E+02 -2.452143816E+02  3.439694602E+02  1.250000000E+02  0.00000E+00  9.000E+00
      25     1     1     2     0     0 -9.076501039E+00  1.522829144E+02  2.157945044E+02  2.923435257E+02  1.250000000E+02  0.00000E+00  9.000E+00
      21     1     1     2   512   501  1.744164468E+02 -2.890301760E+01 -3.164733822E+02  3.625077696E+02  3.814697266E-06  0.00000E+00  9.000E+00
#rwgt            2          11   2.9432952929736187E-003          10      256955           0
</event>
<event>
      5   9999  3.19816E-02  3.85214E+01 -1.00000E+00  1.45862E-01
      21    -1     0     0   502   511  0.000000000E+00  0.000000000E+00  6.099181336E+02  6.099181336E+02  0.000000000E+00  0.00000E+00  9.000E+00
      21    -1     0     0   501   502  0.000000000E+00  0.000000000E+00 -3.192831529E+02  3.192831529E+02  0.000000000E+00  0.00000E+00  9.000E+00
      25     1     1     2     0     0  1.317998571E+01  3.085233113E+02 -1.314930633E+02  3.581560712E+02  1.250000000E+02  0.00000E+00  9.000E+00
      25     1     1     2     0     0 -5.141394519E+01 -3.132202046E+02  3.469312253E+02  4.865558195E+02  1.250000000E+02  0.00000E+00  9.000E+00
      21     1     1     2   501   511  3.823395948E+01  4.696893278E+00  7.519681869E+01  8.448939581E+01  9.536743164E-07  0.00000E+00  9.000E+00
#rwgt            1           1   2.8120895121981491E-002          10      256990           0
</event>
<event>
      5   9999  3.19816E-02  5.21715E+01 -1.00000E+00  1.38030E-01
      21    -1     0     0   502   512  0.000000000E+00  0.000000000E+00  2.801055337E+02  2.801055337E+02  0.000000000E+00  0.00000E+00  9.000E+00
      21    -1     0     0   501   502  0.000000000E+00  0.000000000E+00 -1.775989003E+02  1.775989003E+02  0.000000000E+00  0.00000E+00  9.000E+00
      25     1     1     2     0     0  1.236672269E+02 -4.871395159E+01  1.145684369E+01  1.828192861E+02  1.250000000E+02  0.00000E+00  9.000E+00
      25     1     1     2     0     0 -1.203751163E+02  1.007815084E+02  4.583432953E+01  2.058467071E+02  1.250000000E+02  0.00000E+00  9.000E+00
      21     1     1     2   501   512 -3.292110624E+00 -5.206755683E+01  4.521546017E+01  6.903844078E+01  8.259061849E-07  0.00000E+00  9.000E+00
#rwgt            1           1   2.5376046118339112E-002          10      257175           0
</event>
<event>
      5   9999  3.19816E-02  5.17271E+00 -1.00000E+00  2.35968E-01
      21    -1     0     0   502   501  0.000000000E+00  0.000000000E+00  3.147424365E+02  3.147424365E+02  0.000000000E+00  0.00000E+00  9.000E+00
       2    -1     0     0   501     0  0.000000000E+00  0.000000000E+00 -9.047352017E+02  9.047352017E+02  0.000000000E+00  0.00000E+00  9.000E+00
      25     1     1     2     0     0 -1.064126074E+02 -5.106826736E+00  1.381376409E+02  2.146083189E+02  1.250000000E+02  0.00000E+00  9.000E+00
      25     1     1     2     0     0  1.032886192E+02  9.229644599E+00  9.069852408E+01  1.860240508E+02  1.250000000E+02  0.00000E+00  9.000E+00
       2     1     1     2   502     0  3.123988126E+00 -4.122817863E+00 -8.188289302E+02  8.188452685E+02  1.078959322E-05  0.00000E+00  9.000E+00
#rwgt            1           1   2.5361699798328648E-002          10      257269           0
</event>
<event>
      5   9999  3.19816E-02  2.56465E+02 -1.00000E+00  1.07853E-01
      21    -1     0     0   502   501  0.000000000E+00  0.000000000E+00  7.910378450E+02  7.910378450E+02  0.000000000E+00  0.00000E+00  9.000E+00
      21    -1     0     0   501   511  0.000000000E+00  0.000000000E+00 -3.531723796E+02  3.531723796E+02  0.000000000E+00  0.00000E+00  9.000E+00
      25     1     1     2     0     0 -1.253174854E+02 -1.753769068E+02 -9.113294616E+01  2.653144276E+02  1.250000000E+02  0.00000E+00  9.000E+00
      25     1     1     2     0     0 -9.992333616E+01  2.980184828E+02  5.223879461E+02  6.223454470E+02  1.250000000E+02  0.00000E+00  9.000E+00
      21     1     1     2   502   511  2.252408215E+02 -1.226415760E+02  6.610465379E+00  2.565503500E+02  1.186117455E-06  0.00000E+00  9.000E+00
#rwgt            2          11   3.5104909404651439E-003          10      257631           0
</event>
<event>
      5   9999  3.19816E-02  2.02654E+02 -1.00000E+00  1.11440E-01
      -1    -1     0     0     0   501  0.000000000E+00  0.000000000E+00  2.658962427E+02  2.658962427E+02  0.000000000E+00  0.00000E+00  9.000E+00
      21    -1     0     0   501   502  0.000000000E+00  0.000000000E+00 -1.379960534E+03  1.379960534E+03  0.000000000E+00  0.00000E+00  9.000E+00
      25     1     1     2     0     0  1.438880373E+02  6.456687465E+01 -9.688720375E+02  9.895507433E+02  1.250000000E+02  0.00000E+00  9.000E+00
      25     1     1     2     0     0 -3.211391651E+02 -1.628045412E+02 -2.202558699E+02  4.401969221E+02  1.250000000E+02  0.00000E+00  9.000E+00
      -1     1     1     2     0   502  1.772511278E+02  9.823766656E+01  7.506361618E+01  2.161091112E+02  4.156969970E-06  0.00000E+00  9.000E+00
#rwgt            1           1   2.7583454318976162E-002          10      257681           0
</event>
<event>
      5   9999  3.19816E-02  4.42251E+01 -1.00000E+00  1.42186E-01
      21    -1     0     0   502   501  0.000000000E+00  0.000000000E+00  5.485508780E+02  5.485508780E+02  0.000000000E+00  0.00000E+00  9.000E+00
      21    -1     0     0   511   502  0.000000000E+00  0.000000000E+00 -4.733784812E+02  4.733784812E+02  0.000000000E+00  0.00000E+00  9.000E+00
      25     1     1     2     0     0  1.170733001E+02  2.942475056E+02  5.035514735E+01  3.441633232E+02  1.250000000E+02  0.00000E+00  9.000E+00
      25     1     1     2     0     0 -1.474379125E+02 -3.264010667E+02  2.460529345E+02  4.521533379E+02  1.250000000E+02  0.00000E+00  9.000E+00
      21     1     1     2   511   501  3.036461246E+01  3.215356111E+01 -2.212356851E+02  2.256126981E+02  3.814697266E-06  0.00000E+00  9.000E+00
#rwgt            1           1   2.7979051197141381E-002          10      257722           0
</event>
<event>
      5   9999  3.19816E-02  4.32406E+01 -1.00000E+00  1.42773E-01
      21    -1     0     0   502   512  0.000000000E+00  0.000000000E+00  2.378655970E+02  2.378655970E+02  0.000000000E+00  0.00000E+00  9.000E+00
      21    -1     0     0   501   502  0.000000000E+00  0.000000000E+00 -1.211996045E+03  1.211996045E+03  0.000000000E+00  0.00000E+00  9.000E+00
      25     1     1     2     0     0 -2.201700446E+02  2.478356022E+02 -8.025097658E+01  3.632665047E+02  1.250000000E+02  0.00000E+00  9.000E+00
      25     1     1     2     0     0  1.804222766E+02 -2.308101381E+02 -9.578286582E+02  1.009398958E+03  1.250000000E+02  0.00000E+00  9.000E+00
      21     1     1     2   501   512  3.974776800E+01 -1.702546406E+01  6.394918725E+01  7.719617891E+01  1.784161275E-06  0.00000E+00  9.000E+00
#rwgt            1           1   2.7001982304424535E-002          10      257850           0
</event>
<event>
      5   9999  3.19816E-02  1.08080E+01 -1.00000E+00  1.91935E-01
      21    -1     0     0   502   501  0.000000000E+00  0.000000000E+00  4.438531681E+02  4.438531681E+02  0.000000000E+00  0.00000E+00  9.000E+00
      21    -1     0     0   511   502  0.000000000E+00  0.000000000E+00 -2.482327018E+02  2.482327018E+02  0.000000000E+00  0.00000E+00  9.000E+00
      25     1     1     2     0     0  1.177351155E+02 -1.522459300E+02  2.585353054E+02  3.456962319E+02  1.250000000E+02  0.00000E+00  9.000E+00
      25     1     1     2     0     0 -1.099552649E+02  1.447434617E+02  5.550398258E+01  2.274786189E+02  1.250000000E+02  0.00000E+00  9.000E+00
      21     1     1     2   511   501 -7.779850663E+00  7.502468343E+00 -1.184188217E+02  1.189110190E+02  0.000000000E+00  0.00000E+00  9.000E+00
#rwgt            1           1   2.8104011128899025E-002          10      257953           0
</event>
<event>
      5   9999  3.19816E-02  7.72257E+01 -1.00000E+00  1.29096E-01
      21    -1     0     0   512   501  0.000000000E+00  0.000000000E+00  2.195355469E+02  2.195355469E+02  0.000000000E+00  0.00000E+00  9.000E+00
      21    -1     0     0   501   502  0.000000000E+00  0.000000000E+00 -6.312010372E+02  6.312010372E+02  0.000000000E+00  0.00000E+00  9.000E+00
      25     1     1     2     0     0  2.515885314E+02  8.599846731E+01 -5.914829049E+01  2.996932528E+02  1.250000000E+02  0.00000E+00  9.000E+00
      25     1     1     2     0     0 -2.000401746E+02 -1.435012970E+02 -3.794360486E+02  4.692604913E+02  1.250000000E+02  0.00000E+00  9.000E+00
      21     1     1     2   512   502 -5.154835677E+01  5.750282966E+01  2.691884884E+01  8.178284006E+01  8.920806376E-07  0.00000E+00  9.000E+00
#rwgt            1           1   2.7890372520802318E-002          10      258178           0
</event>
<event>
      5   9999  3.19816E-02  1.28346E+01 -1.00000E+00  1.84009E-01
      21    -1     0     0   502   501  0.000000000E+00  0.000000000E+00  4.356172955E+02  4.356172955E+02  0.000000000E+00  0.00000E+00  9.000E+00
      21    -1     0     0   501   511  0.000000000E+00  0.000000000E+00 -5.347746788E+02  5.347746788E+02  0.000000000E+00  0.00000E+00  9.000E+00
      25     1     1     2     0     0  2.456061950E+02 -1.314063151E+01 -3.824386570E+02  4.715712095E+02  1.250000000E+02  0.00000E+00  9.000E+00
      25     1     1     2     0     0 -2.385515754E+02  2.386258112E+01  3.435606770E+02  4.371901368E+02  1.250000000E+02  0.00000E+00  9.000E+00
      21     1     1     2   502   511 -7.054619553E+00 -1.072194961E+01 -6.027940324E+01  6.163062807E+01  9.536743164E-07  0.00000E+00  9.000E+00
#rwgt            1           1   2.7889487698645261E-002          10      258289           0
</event>
<event>
      5   9999  3.19816E-02  3.65307E+01 -1.00000E+00  1.47327E-01
      21    -1     0     0   502   501  0.000000000E+00  0.000000000E+00  2.041863034E+02  2.041863034E+02  0.000000000E+00  0.00000E+00  9.000E+00
      21    -1     0     0   501   512  0.000000000E+00  0.000000000E+00 -2.715189958E+02  2.715189958E+02  0.000000000E+00  0.00000E+00  9.000E+00
      25     1     1     2     0     0 -5.440174017E+01  1.316676060E+02 -9.303060750E+01  2.111293483E+02  1.250000000E+02  0.00000E+00  9.000E+00
      25     1     1     2     0     0  8.919434131E+01 -1.205336435E+02  6.979141958E+01  2.073157784E+02  1.250000000E+02  0.00000E+00  9.000E+00
      21     1     1     2   502   512 -3.479260114E+01 -1.113396246E+01 -4.409350449E+01  5.726017248E+01  8.259061849E-07  0.00000E+00  9.000E+00
#rwgt            1           1   3.0057464893735182E-002          10      258579           0
</event>
<event>
      5   9999  3.19816E-02  7.19472E+02 -1.00000E+00  9.45603E-02
      21    -1     0     0   511   501  0.000000000E+00  0.000000000E+00  9.053742986E+02  9.053742986E+02  0.000000000E+00  0.00000E+00  9.000E+00
      21    -1     0     0   501   502  0.000000000E+00  0.000000000E+00 -1.088704902E+03  1.088704902E+03  0.000000000E+00  0.00000E+00  9.000E+00
      25     1     1     2     0     0 -3.778998618E+02 -5.614876564E+02 -1.053618986E+02  6.962778350E+02  1.250000000E+02  0.00000E+00  9.000E+00
      25     1     1     2     0     0 -8.405116276E+01  9.907601292E+00 -4.593350720E+02  4.835043608E+02  1.250000000E+02  0.00000E+00  9.000E+00
      21     1     1     2   511   502  4.619510245E+02  5.515800552E+02  3.813663670E+02  8.142970049E+02  9.344061824E-06  0.00000E+00  9.000E+00
#rwgt            2          11   2.2824547648622501E-003          10      258645           0
</event>
<event>
      5   9999  3.19816E-02  2.81486E+01 -1.00000E+00  1.54986E-01
      21    -1     0     0   502   501  0.000000000E+00  0.000000000E+00  1.080696964E+03  1.080696964E+03  0.000000000E+00  0.00000E+00  9.000E+00
       2    -1     0     0   501     0  0.000000000E+00  0.000000000E+00 -1.148692186E+03  1.148692186E+03  0.000000000E+00  0.00000E+00  9.000E+00
      25     1     1     2     0     0 -4.437019762E+02  4.431846048E-01  7.563865638E+02  8.857862462E+02  1.250000000E+02  0.00000E+00  9.000E+00
      25     1     1     2     0     0  4.367415262E+02  2.683123797E+01  5.979252883E+01  4.589806342E+02  1.250000000E+02  0.00000E+00  9.000E+00
       2     1     1     2   502     0  6.960449983E+00 -2.727442257E+01 -8.841743145E+02  8.846222699E+02  1.078959322E-05  0.00000E+00  9.000E+00
#rwgt            1           1   2.9878127764293199E-002          10      258695           0
</event>
<event>
      5   9999  3.19816E-02  9.62652E+01 -1.00000E+00  1.24576E-01
      21    -1     0     0   511   501  0.000000000E+00  0.000000000E+00  1.517412682E+03  1.517412682E+03  0.000000000E+00  0.00000E+00  9.000E+00
      21    -1     0     0   501   502  0.000000000E+00  0.000000000E+00 -1.878841798E+02  1.878841798E+02  0.000000000E+00  0.00000E+00  9.000E+00
      25     1     1     2     0     0  3.541644334E+02  8.780067600E+01  1.000663069E+03  1.072423882E+03  1.250000000E+02  0.00000E+00  9.000E+00
      25     1     1     2     0     0 -2.919498973E+02 -1.612605086E+02  7.862576435E+01  3.647556784E+02  1.250000000E+02  0.00000E+00  9.000E+00
      21     1     1     2   511   502 -6.221453609E+01  7.345983258E+01  2.502396683E+02  2.681173010E+02  3.814697266E-06  0.00000E+00  9.000E+00
#rwgt            1           1   2.6720671790866974E-002          10      258852           0
</event>
<event>
      5   9999  3.19816E-02  8.23553E+01 -1.00000E+00  1.27742E-01
      21    -1     0     0   502   501  0.000000000E+00  0.000000000E+00  1.123069099E+03  1.123069099E+03  0.000000000E+00  0.00000E+00  9.000E+00
      21    -1     0     0   501   512  0.000000000E+00  0.000000000E+00 -1.367005020E+02  1.367005020E+02  0.000000000E+00  0.00000E+00  9.000E+00
      25     1     1     2     0     0  7.801448021E+01 -7.323706666E+01  8.493764167E+02  8.651677434E+02  1.250000000E+02  0.00000E+00  9.000E+00
      25     1     1     2     0     0 -8.704920491E+01  1.550953274E+02  1.964697982E+02  2.930145154E+02  1.250000000E+02  0.00000E+00  9.000E+00
      21     1     1     2   502   512  9.034724707E+00 -8.185826071E+01 -5.947761781E+01  1.015873423E+02  2.236564522E-06  0.00000E+00  9.000E+00
#rwgt            1           1   3.6642768456541061E-002          10      258961           0
</event>
<event>
      5   9999  3.19816E-02  6.36603E+01 -1.00000E+00  1.33343E-01
      21    -1     0     0   502   501  0.000000000E+00  0.000000000E+00  3.553274490E+02  3.553274490E+02  0.000000000E+00  0.00000E+00  9.000E+00
      21    -1     0     0   501   511  0.000000000E+00  0.000000000E+00 -2.962682635E+02  2.962682635E+02  0.000000000E+00  0.00000E+00  9.000E+00
      25     1     1     2     0     0 -3.745700446E+01 -2.410708166E+02  1.232825640E+02  3.005690543E+02  1.250000000E+02  0.00000E+00  9.000E+00
      25     1     1     2     0     0  1.002764383E+02  2.307583428E+02 -4.498660290E+01  2.845234108E+02  1.250000000E+02  0.00000E+00  9.000E+00
      21     1     1     2   502   511 -6.281943388E+01  1.031247385E+01 -1.923677563E+01  6.650324749E+01  7.907449699E-07  0.00000E+00  9.000E+00
#rwgt            1           1   2.9920070003192446E-002          10      259055           0
</event>
<event>
      5   9999  3.19816E-02  1.22925E+02 -1.00000E+00  1.19926E-01
      21    -1     0     0   502   512  0.000000000E+00  0.000000000E+00  3.883138939E+02  3.883138939E+02  0.000000000E+00  0.00000E+00  9.000E+00
      21    -1     0     0   501   502  0.000000000E+00  0.000000000E+00 -9.663485662E+02  9.663485662E+02  0.000000000E+00  0.00000E+00  9.000E+00
      25     1     1     2     0     0  2.377709733E+02  3.572967178E+01 -4.652477711E+02  5.384163201E+02  1.250000000E+02  0.00000E+00  9.000E+00
      25     1     1     2     0     0 -3.198106307E+02  5.581278724E+01 -3.841999508E+02  5.182938442E+02  1.250000000E+02  0.00000E+00  9.000E+00
      21     1     1     2   501   512  8.203965741E+01 -9.154245902E+01  2.714130495E+02  2.979522959E+02  0.000000000E+00  0.00000E+00  9.000E+00
#rwgt            1           1   3.3431610626834495E-002          10      259122           0
</event>
<event>
      5   9999  3.19816E-02  1.15494E+02 -1.00000E+00  1.21078E-01
      21    -1     0     0   511   501  0.000000000E+00  0.000000000E+00  4.419462002E+02  4.419462002E+02  0.000000000E+00  0.00000E+00  9.000E+00
      21    -1     0     0   501   502  0.000000000E+00  0.000000000E+00 -1.861706102E+02  1.861706102E+02  0.000000000E+00  0.00000E+00  9.000E+00
      25     1     1     2     0     0  1.273413329E+01 -1.672668495E+02  9.891265997E+00  2.094354178E+02  1.250000000E+02  0.00000E+00  9.000E+00
      25     1     1     2     0     0  1.015714605E+02  1.507445870E+02  1.353387774E+02  2.588093444E+02  1.250000000E+02  0.00000E+00  9.000E+00
      21     1     1     2   511   502 -1.143055938E+02  1.652226248E+01  1.105455466E+02  1.598720482E+02  0.000000000E+00  0.00000E+00  9.000E+00
#rwgt            2          11   2.8464022286459299E-003          10      259245           0
</event>
<event>
      5   9999  3.19816E-02  3.73829E+01 -1.00000E+00  1.46687E-01
      21    -1     0     0   512   501  0.000000000E+00  0.000000000E+00  1.073003810E+03  1.073003810E+03  0.000000000E+00  0.00000E+00  9.000E+00
      21    -1     0     0   501   502  0.000000000E+00  0.000000000E+00 -2.275413719E+02  2.275413719E+02  0.000000000E+00  0.00000E+00  9.000E+00
      25     1     1     2     0     0  2.954866540E+02 -2.831210692E+02  3.607582839E+02  5.596797673E+02  1.250000000E+02  0.00000E+00  9.000E+00
      25     1     1     2     0     0 -3.319440946E+02  2.748542991E+02  2.716316218E+02  5.245383738E+02  1.250000000E+02  0.00000E+00  9.000E+00
      21     1     1     2   512   502  3.645744065E+01  8.266770065E+00  2.130725321E+02  2.163270404E+02  0.000000000E+00  0.00000E+00  9.000E+00
#rwgt            1           1   2.4375224291185278E-002          10      259265           0
</event>
<event>
      5   9999  3.19816E-02  5.73876E+01 -1.00000E+00  1.35745E-01
      21    -1     0     0   502   501  0.000000000E+00  0.000000000E+00  6.268475874E+01  6.268475874E+01  0.000000000E+00  0.00000E+00  9.000E+00
       2    -1     0     0   501     0  0.000000000E+00  0.000000000E+00 -7.879015243E+02  7.879015243E+02  0.000000000E+00  0.00000E+00  9.000E+00
      25     1     1     2     0     0  3.725649755E+01  2.678237489E+01 -7.621722791E+01  1.534255782E+02  1.250000000E+02  0.00000E+00  9.000E+00
      25     1     1     2     0     0 -9.414070423E+01 -3.436686151E+01 -2.708982446E+02  3.147291094E+02  1.250000000E+02  0.00000E+00  9.000E+00
       2     1     1     2   502     0  5.688420667E+01  7.584486619E+00 -3.781012931E+02  3.824315955E+02  7.629394531E-06  0.00000E+00  9.000E+00
#rwgt            1           1   5.5897179584417873E-002          10      259429           0
</event>
<event>
      5   9999  3.19816E-02  4.55286E+01 -1.00000E+00  1.41437E-01
      21    -1     0     0   511   501  0.000000000E+00  0.000000000E+00  1.310811244E+02  1.310811244E+02  0.000000000E+00  0.00000E+00  9.000E+00
      21    -1     0     0   501   502  0.000000000E+00  0.000000000E+00 -5.206089807E+02  5.206089807E+02  0.000000000E+00  0.00000E+00  9.000E+00
      25     1     1     2     0     0 -1.316950562E+02 -6.808670747E+01 -1.784972283E+02  2.635633663E+02  1.250000000E+02  0.00000E+00  9.000E+00
      25     1     1     2     0     0  1.245414511E+02  1.130498377E+02 -2.513927734E+02  3.272830050E+02  1.250000000E+02  0.00000E+00  9.000E+00
      21     1     1     2   511   502  7.153605152E+00 -4.496313021E+01  4.036214545E+01  6.084373369E+01  6.743495762E-07  0.00000E+00  9.000E+00
#rwgt            1           1   3.3875623657472660E-002          10      259474           0
</event>
<event>
      5   9999  3.19816E-02  2.37347E+01 -1.00000E+00  1.60459E-01
      21    -1     0     0   512   501  0.000000000E+00  0.000000000E+00  2.060515956E+03  2.060515956E+03  0.000000000E+00  0.00000E+00  9.000E+00
      21    -1     0     0   501   502  0.000000000E+00  0.000000000E+00 -7.745408274E+02  7.745408274E+02  0.000000000E+00  0.00000E+00  9.000E+00
      25     1     1     2     0     0 -4.758176252E+00 -5.206004487E+00 -6.490900091E+02  6.610541450E+02  1.250000000E+02  0.00000E+00  9.000E+00
      25     1     1     2     0     0  2.654813391E+01 -4.203208860E+00 -8.517039453E+01  1.536276879E+02  1.250000000E+02  0.00000E+00  9.000E+00
      21     1     1     2   512   502 -2.178995766E+01  9.409213347E+00  2.020235532E+03  2.020374950E+03  3.737624730E-05  0.00000E+00  9.000E+00
#rwgt            1           1   3.1034957498724935E-002          10      259595           0
</event>
<event>
      5   9999  3.19816E-02  8.30146E+01 -1.00000E+00  1.27577E-01
      21    -1     0     0   511   501  0.000000000E+00  0.000000000E+00  4.416347186E+02  4.416347186E+02  0.000000000E+00  0.00000E+00  9.000E+00
      21    -1     0     0   501   502  0.000000000E+00  0.000000000E+00 -8.916398454E+02  8.916398454E+02  0.000000000E+00  0.00000E+00  9.000E+00
      25     1     1     2     0     0 -2.970211335E+02 -1.145136780E+02 -7.241607730E+02  8.008550189E+02  1.250000000E+02  0.00000E+00  9.000E+00
      25     1     1     2     0     0  2.981392252E+02  3.150658980E+01  3.033324451E+02  4.444268613E+02  1.250000000E+02  0.00000E+00  9.000E+00
      21     1     1     2   511   502 -1.118091710E+00  8.300708816E+01 -2.917679888E+01  8.799268382E+01  1.430511475E-06  0.00000E+00  9.000E+00
#rwgt            1           1   2.7956634650490031E-002          10      259719           0
</event>
<event>
      5   9999  3.19816E-02  1.29155E+01 -1.00000E+00  1.83732E-01
      21    -1     0     0   512   501  0.000000000E+00  0.000000000E+00  8.426366417E+02  8.426366417E+02  0.000000000E+00  0.00000E+00  9.000E+00
      21    -1     0     0   501   502  0.000000000E+00  0.000000000E+00 -4.277855719E+02  4.277855719E+02  0.000000000E+00  0.00000E+00  9.000E+00
      25     1     1     2     0     0  2.745370280E+02 -7.598797279E+00  7.289563385E+02  7.889427513E+02  1.250000000E+02  0.00000E+00  9.000E+00
      25     1     1     2     0     0 -2.867428617E+02  3.376566161E+00 -3.340907831E+02  4.576838661E+02  1.250000000E+02  0.00000E+00  9.000E+00
      21     1     1     2   512   502  1.220583365E+01  4.222231118E+00  1.998551446E+01  2.379559621E+01  3.371747881E-07  0.00000E+00  9.000E+00
#rwgt            1           1   2.9493562400623050E-002          10      259785           0
</event>
<event>
      5   9999  3.19816E-02  4.86999E+01 -1.00000E+00  1.39732E-01
       1    -1     0     0   502     0  0.000000000E+00  0.000000000E+00  7.611603116E+02  7.611603116E+02  0.000000000E+00  0.00000E+00  9.000E+00
      21    -1     0     0   501   502  0.000000000E+00  0.000000000E+00 -9.394451446E+02  9.394451446E+02  0.000000000E+00  0.00000E+00  9.000E+00
      25     1     1     2     0     0  1.704726966E+02  1.734910030E+02 -1.088348416E+02  2.943299019E+02  1.250000000E+02  0.00000E+00  9.000E+00
      25     1     1     2     0     0 -1.896521717E+02 -1.287268983E+02 -7.138202029E+02  7.600676567E+02  1.250000000E+02  0.00000E+00  9.000E+00
       1     1     1     2   501     0  1.917947507E+01 -4.476410466E+01  6.443702116E+02  6.462078977E+02  0.000000000E+00  0.00000E+00  9.000E+00
#rwgt            1           1   2.7872313879851670E-002          10      259987           0
</event>
<event>
      5   9999  3.19816E-02  1.08221E+02 -1.00000E+00  1.22304E-01
      21    -1     0     0   502   511  0.000000000E+00  0.000000000E+00  4.245103232E+02  4.245103232E+02  0.000000000E+00  0.00000E+00  9.000E+00
      21    -1     0     0   501   502  0.000000000E+00  0.000000000E+00 -4.522671521E+02  4.522671521E+02  0.000000000E+00  0.00000E+00  9.000E+00
      25     1     1     2     0     0  2.511584262E+02  1.788182059E+02  1.759574162E+01  3.331532920E+02  1.250000000E+02  0.00000E+00  9.000E+00
      25     1     1     2     0     0 -3.550291716E+02 -1.484445579E+02 -1.077440337E+02  4.187066709E+02  1.250000000E+02  0.00000E+00  9.000E+00
      21     1     1     2   501   511  1.038707453E+02 -3.037364800E+01  6.239146319E+01  1.249175124E+02  2.132480600E-06  0.00000E+00  9.000E+00
#rwgt            1           1   2.9901643261078276E-002          10      260090           0
</event>
<event>
      5   9999  3.19816E-02  3.79827E+02 -1.00000E+00  1.02366E-01
      21    -1     0     0   502   501  0.000000000E+00  0.000000000E+00  4.887325858E+02  4.887325858E+02  0.000000000E+00  0.00000E+00  9.000E+00
      -1    -1     0     0     0   502  0.000000000E+00  0.000000000E+00 -8.085109611E+02  8.085109611E+02  0.000000000E+00  0.00000E+00  9.000E+00
      25     1     1     2     0     0  3.128894102E+02 -1.542140057E+02 -1.479294468E+01  3.708444065E+02  1.250000000E+02  0.00000E+00  9.000E+00
      25     1     1     2     0     0 -3.922632493E+02 -2.172270478E+02 -4.834395694E+01  4.679959244E+02  1.250000000E+02  0.00000E+00  9.000E+00
      -1     1     1     2     0   501  7.937383903E+01  3.714410535E+02 -2.566414737E+02  4.584032162E+02  0.000000000E+00  0.00000E+00  9.000E+00
#rwgt            2          10   8.9088394845228018E-005          10      260184           0
</event>
<event>
      5   9999  3.19816E-02  1.09442E+02 -1.00000E+00  1.22091E-01
       1    -1     0     0   502     0  0.000000000E+00  0.000000000E+00  3.872280375E+03  3.872280375E+03  0.000000000E+00  0.00000E+00  9.000E+00
      21    -1     0     0   501   502  0.000000000E+00  0.000000000E+00 -2.400111703E+02  2.400111703E+02  0.000000000E+00  0.00000E+00  9.000E+00
      25     1     1     2     0     0 -1.257470316E+02  5.327532124E+02  7.523094460E+02  9.387400086E+02  1.250000000E+02  0.00000E+00  9.000E+00
      25     1     1     2     0     0  6.782988257E+01 -4.398926339E+02  2.211369718E+02  5.124772996E+02  1.250000000E+02  0.00000E+00  9.000E+00
       1     1     1     2   501     0  5.791714899E+01 -9.286057846E+01  2.658822787E+03  2.661074237E+03  3.051757812E-05  0.00000E+00  9.000E+00
#rwgt            1           1   2.9428757633956765E-002          10      260203           0
</event>
<event>
      5   9999  3.19816E-02  2.32637E+02 -1.00000E+00  1.09309E-01
      21    -1     0     0   502   501  0.000000000E+00  0.000000000E+00  5.446951430E+02  5.446951430E+02  0.000000000E+00  0.00000E+00  9.000E+00
      21    -1     0     0   501   511  0.000000000E+00  0.000000000E+00 -2.164006569E+03  2.164006569E+03  0.000000000E+00  0.00000E+00  9.000E+00
      25     1     1     2     0     0 -3.916886232E+02 -7.075425145E+02  3.638386521E+01  8.191368464E+02  1.250000000E+02  0.00000E+00  9.000E+00
      25     1     1     2     0     0  1.965960298E+02  5.808198616E+02 -1.449027283E+03  1.578387397E+03  1.250000000E+02  0.00000E+00  9.000E+00
      21     1     1     2   502   511  1.950925935E+02  1.267226530E+02 -2.066680080E+02  3.111774676E+02  3.814697266E-06  0.00000E+00  9.000E+00
#rwgt            1           1   4.4866900378469347E-002          10      260280           0
</event>
<event>
      5   9999  3.19816E-02  2.30342E+01 -1.00000E+00  1.61462E-01
      21    -1     0     0   512   501  0.000000000E+00  0.000000000E+00  3.720993571E+02  3.720993571E+02  0.000000000E+00  0.00000E+00  9.000E+00
      21    -1     0     0   501   502  0.000000000E+00  0.000000000E+00 -3.053092282E+02  3.053092282E+02  0.000000000E+00  0.00000E+00  9.000E+00
      25     1     1     2     0     0 -1.662423690E+02  1.936536320E+02  1.661822245E+02  3.292108537E+02  1.250000000E+02  0.00000E+00  9.000E+00
      25     1     1     2     0     0  1.644820662E+02 -2.166204853E+02 -1.146769141E+02  3.205535515E+02  1.250000000E+02  0.00000E+00  9.000E+00
      21     1     1     2   512   502  1.760302821E+00  2.296685329E+01  1.528481848E+01  2.764418007E+01  2.920019320E-07  0.00000E+00  9.000E+00
#rwgt            1           1   2.7238190627296766E-002          10      260340           0
</event>
<event>
      5   9999  3.19816E-02  2.42490E+01 -1.00000E+00  1.59750E-01
      21    -1     0     0   511   501  0.000000000E+00  0.000000000E+00  2.364327375E+03  2.364327375E+03  0.000000000E+00  0.00000E+00  9.000E+00
      21    -1     0     0   501   502  0.000000000E+00  0.000000000E+00 -1.099519786E+02  1.099519786E+02  0.000000000E+00  0.00000E+00  9.000E+00
      25     1     1     2     0     0 -3.338359658E+01  4.657596728E+02  1.443652884E+03  1.522433968E+03  1.250000000E+02  0.00000E+00  9.000E+00
      25     1     1     2     0     0  3.683473674E+01 -4.417575605E+02  6.960423598E+02  8.346295626E+02  1.250000000E+02  0.00000E+00  9.000E+00
      21     1     1     2   511   502 -3.451140154E+00 -2.400211231E+01  1.146801529E+02  1.172158233E+02  1.348699152E-06  0.00000E+00  9.000E+00
#rwgt            1           1   2.6251126519707919E-002          10      260537           0
</event>
<event>
      5   9999  3.19816E-02  1.02155E+02 -1.00000E+00  1.23413E-01
      21    -1     0     0   512   501  0.000000000E+00  0.000000000E+00  7.284805244E+02  7.284805244E+02  0.000000000E+00  0.00000E+00  9.000E+00
      21    -1     0     0   501   502  0.000000000E+00  0.000000000E+00 -2.994340515E+02  2.994340515E+02  0.000000000E+00  0.00000E+00  9.000E+00
      25     1     1     2     0     0 -8.032952046E+01 -2.065995102E+01 -2.490828366E+02  2.907695392E+02  1.250000000E+02  0.00000E+00  9.000E+00
      25     1     1     2     0     0 -2.078954570E+01  6.145582484E+00  1.380556964E+02  1.874949298E+02  1.250000000E+02  0.00000E+00  9.000E+00
      21     1     1     2   512   502  1.011190662E+02  1.451436854E+01  5.400736131E+02  5.496501068E+02  7.629394531E-06  0.00000E+00  9.000E+00
#rwgt            1           1   2.4482478942090147E-002          10      260681           0
</event>
<event>
      5   9999  3.19816E-02  4.22024E+01 -1.00000E+00  1.43411E-01
      21    -1     0     0   511   501  0.000000000E+00  0.000000000E+00  4.118133510E+02  4.118133510E+02  0.000000000E+00  0.00000E+00  9.000E+00
      21    -1     0     0   501   502  0.000000000E+00  0.000000000E+00 -1.012387891E+03  1.012387891E+03  0.000000000E+00  0.00000E+00  9.000E+00
      25     1     1     2     0     0 -2.257030216E+02 -7.387951679E+01 -9.230022550E+02  9.612274443E+02  1.250000000E+02  0.00000E+00  9.000E+00
      25     1     1     2     0     0  2.166748309E+02  1.151049452E+02  2.208661116E+02  3.529928752E+02  1.250000000E+02  0.00000E+00  9.000E+00
      21     1     1     2   511   502  9.028190722E+00 -4.122542838E+01  1.015616030E+02  1.099809228E+02  2.336015456E-06  0.00000E+00  9.000E+00
#rwgt            1           1   2.7126203386821812E-002          10      260719           0
</event>
<event>
      5   9999  3.19816E-02  7.48629E+01 -1.00000E+00  1.29760E-01
      21    -1     0     0   512   501  0.000000000E+00  0.000000000E+00  1.895619809E+03  1.895619809E+03  0.000000000E+00  0.00000E+00  9.000E+00
      21    -1     0     0   501   502  0.000000000E+00  0.000000000E+00 -2.769999555E+02  2.769999555E+02  0.000000000E+00  0.00000E+00  9.000E+00
      25     1     1     2     0     0 -3.559690517E+02  4.127737130E+02  6.279001352E+02  8.408208393E+02  1.250000000E+02  0.00000E+00  9.000E+00
      25     1     1     2     0     0  2.825199214E+02 -4.272540648E+02  2.433618394E+02  5.807008927E+02  1.250000000E+02  0.00000E+00  9.000E+00
      21     1     1     2   512   502  7.344913029E+01  1.448035179E+01  7.473578792E+02  7.510980329E+02  1.078959322E-05  0.00000E+00  9.000E+00
#rwgt            1           1   2.7676678341466948E-002          10      260879           0
</event>
<event>
      5   9999  3.19816E-02  5.31726E+01 -1.00000E+00  1.37568E-01
      21    -1     0     0   502   511  0.000000000E+00  0.000000000E+00  3.549749613E+02  3.549749613E+02  0.000000000E+00  0.00000E+00  9.000E+00
      21    -1     0     0   501   502  0.000000000E+00  0.000000000E+00 -1.114601084E+03  1.114601084E+03  0.000000000E+00  0.00000E+00  9.000E+00
      25     1     1     2     0     0  3.922095995E+02 -3.126055366E+02 -6.222325117E+02  8.089183457E+02  1.250000000E+02  0.00000E+00  9.000E+00
      25     1     1     2     0     0 -4.443340245E+02  3.231111327E+02 -1.811038269E+02  5.918252491E+02  1.250000000E+02  0.00000E+00  9.000E+00
      21     1     1     2   501   511  5.212442504E+01 -1.050559612E+01  4.371021606E+01  6.883245037E+01  6.743495762E-07  0.00000E+00  9.000E+00
#rwgt            1           1   3.1064611997476968E-002          10      260960           0
</event>
<event>
      5   9999  3.19816E-02  3.49331E+02 -1.00000E+00  1.03487E-01
      21    -1     0     0   502   512  0.000000000E+00  0.000000000E+00  1.022375501E+03  1.022375501E+03  0.000000000E+00  0.00000E+00  9.000E+00
      21    -1     0     0   501   502  0.000000000E+00  0.000000000E+00 -2.218583768E+02  2.218583768E+02  0.000000000E+00  0.00000E+00  9.000E+00
      25     1     1     2     0     0 -5.878052008E+00 -1.304801666E+02 -2.100004088E+00  1.808010935E+02  1.250000000E+02  0.00000E+00  9.000E+00
      25     1     1     2     0     0  3.179281711E+02 -2.654456590E+01  3.299285936E+02  4.756688059E+02  1.250000000E+02  0.00000E+00  9.000E+00
      21     1     1     2   501   512 -3.120501191E+02  1.570247325E+02  4.726885346E+02  5.877639783E+02  5.394796609E-06  0.00000E+00  9.000E+00
#rwgt            2          11   2.8360811760743763E-003          10      261056           0
</event>
<event>
      5   9999  3.19816E-02  2.21512E+02 -1.00000E+00  1.10056E-01
      21    -1     0     0   511   501  0.000000000E+00  0.000000000E+00  6.079470273E+02  6.079470273E+02  0.000000000E+00  0.00000E+00  9.000E+00
      21    -1     0     0   501   502  0.000000000E+00  0.000000000E+00 -6.389927897E+02  6.389927897E+02  0.000000000E+00  0.00000E+00  9.000E+00
      25     1     1     2     0     0 -2.969104018E+02 -6.048557640E+01 -1.964573869E+02  3.821449942E+02  1.250000000E+02  0.00000E+00  9.000E+00
      25     1     1     2     0     0  5.003999984E+02  1.480033585E+02 -7.048231497E+01  5.412004336E+02  1.250000000E+02  0.00000E+00  9.000E+00
      21     1     1     2   511   502 -2.034895966E+02 -8.751778206E+01  2.358939395E+02  3.235943893E+02  4.672030912E-06  0.00000E+00  9.000E+00
#rwgt            2          11   3.2582960893672648E-003          10      261226           0
</event>
<event>
      5   9999  3.19816E-02  3.08338E+02 -1.00000E+00  1.05207E-01
      21    -1     0     0   502   501  0.000000000E+00  0.000000000E+00  6.761892976E+02  6.761892976E+02  0.000000000E+00  0.00000E+00  9.000E+00
      21    -1     0     0   512   502  0.000000000E+00  0.000000000E+00 -1.094630124E+03  1.094630124E+03  0.000000000E+00  0.00000E+00  9.000E+00
      25     1     1     2     0     0  3.299870569E+01  2.612828114E+02 -6.261765373E+02  6.907095467E+02  1.250000000E+02  0.00000E+00  9.000E+00
      25     1     1     2     0     0 -3.196637094E+02 -1.477256574E+02  5.206110395E+02  6.408343089E+02  1.250000000E+02  0.00000E+00  9.000E+00
      21     1     1     2   512   501  2.866650038E+02 -1.135571540E+02 -3.128753287E+02  4.392755660E+02  5.394796609E-06  0.00000E+00  9.000E+00
#rwgt            2          11   3.3494469796419638E-003          10      261351           0
</event>
<event>
      5   9999  3.19816E-02  2.33244E+01 -1.00000E+00  1.61041E-01
      21    -1     0     0   502   501  0.000000000E+00  0.000000000E+00  3.208118397E+02  3.208118397E+02  0.000000000E+00  0.00000E+00  9.000E+00
      21    -1     0     0   511   502  0.000000000E+00  0.000000000E+00 -6.389573662E+02  6.389573662E+02  0.000000000E+00  0.00000E+00  9.000E+00
      25     1     1     2     0     0 -3.887098920E+02 -1.238221554E+01 -2.216106944E+02  4.647418631E+02  1.250000000E+02  0.00000E+00  9.000E+00
      25     1     1     2     0     0  4.070242122E+02  2.682562851E+01 -3.364874299E+01  4.279550930E+02  1.250000000E+02  0.00000E+00  9.000E+00
      21     1     1     2   511   501 -1.831432024E+01 -1.444341297E+01 -6.288608907E+01  6.707224987E+01  1.168007728E-06  0.00000E+00  9.000E+00
#rwgt            1           1   3.4859160544698384E-002          10      261371           0
</event>
<event>
      5   9999  3.19816E-02  2.36822E+01 -1.00000E+00  1.60533E-01
      21    -1     0     0   502   501  0.000000000E+00  0.000000000E+00  1.934200675E+02  1.934200675E+02  0.000000000E+00  0.00000E+00  9.000E+00
      21    -1     0     0   501   512  0.000000000E+00  0.000000000E+00 -2.467390432E+02  2.467390432E+02  0.000000000E+00  0.00000E+00  9.000E+00
      25     1     1     2     0     0  6.731784864E+01 -4.572328394E+01  1.246662880E+02  1.943939166E+02  1.250000000E+02  0.00000E+00  9.000E+00
      25     1     1     2     0     0 -5.638122765E+01  2.471761483E+01 -1.228554905E+02  1.857640301E+02  1.250000000E+02  0.00000E+00  9.000E+00
      21     1     1     2   502   512 -1.093662099E+01  2.100566910E+01 -5.512977313E+01  6.000116414E+01  9.536743164E-07  0.00000E+00  9.000E+00
#rwgt            1           1   3.1306214538945026E-002          10      261495           0
</event>
<event>
      5   9999  3.19816E-02  2.89426E+01 -1.00000E+00  1.54130E-01
      21    -1     0     0   511   501  0.000000000E+00  0.000000000E+00  1.738600496E+03  1.738600496E+03  0.000000000E+00  0.00000E+00  9.000E+00
      21    -1     0     0   501   502  0.000000000E+00  0.000000000E+00 -1.144993544E+02  1.144993544E+02  0.000000000E+00  0.00000E+00  9.000E+00
      25     1     1     2     0     0  2.466067260E+02 -1.291137721E+02  1.170098421E+03  1.209231392E+03  1.250000000E+02  0.00000E+00  9.000E+00
      25     1     1     2     0     0 -2.177360432E+02  1.270744923E+02  1.155711855E+02  3.042015944E+02  1.250000000E+02  0.00000E+00  9.000E+00
      21     1     1     2   511   502 -2.887068281E+01  2.039279751E+00  3.384315348E+02  3.396668643E+02  5.394796609E-06  0.00000E+00  9.000E+00
#rwgt            1           1   3.3367524376209858E-002          10      261634           0
</event>
<event>
      5   9999  3.19816E-02  4.54912E+01 -1.00000E+00  1.41458E-01
      21    -1     0     0   502   501  0.000000000E+00  0.000000000E+00  4.480525979E+02  4.480525979E+02  0.000000000E+00  0.00000E+00  9.000E+00
       2    -1     0     0   501     0  0.000000000E+00  0.000000000E+00 -1.991416175E+03  1.991416175E+03  0.000000000E+00  0.00000E+00  9.000E+00
      25     1     1     2     0     0 -4.023259952E+01  2.923852508E+02 -1.402569051E+02  3.498639684E+02  1.250000000E+02  0.00000E+00  9.000E+00
      25     1     1     2     0     0  8.340182664E+01 -3.067334772E+02  2.578884460E+02  4.279868472E+02  1.250000000E+02  0.00000E+00  9.000E+00
       2     1     1     2   502     0 -4.316922712E+01  1.434822644E+01 -1.660995118E+03  1.661617958E+03  0.000000000E+00  0.00000E+00  9.000E+00
#rwgt            1           1   2.6754235895053980E-002          10      261767           0
</event>
<event>
      5   9999  3.19816E-02  6.44442E+01 -1.00000E+00  1.33066E-01
      21    -1     0     0   502   501  0.000000000E+00  0.000000000E+00  1.012831633E+02  1.012831633E+02  0.000000000E+00  0.00000E+00  9.000E+00
      21    -1     0     0   501   511  0.000000000E+00  0.000000000E+00 -6.693668023E+02  6.693668023E+02  0.000000000E+00  0.00000E+00  9.000E+00
      25     1     1     2     0     0 -5.037725816E+01 -1.321126611E+02 -1.032080088E+02  2.151011772E+02  1.250000000E+02  0.00000E+00  9.000E+00
      25     1     1     2     0     0  8.978840692E+01  1.831010402E+02 -3.521545359E+02  4.257061969E+02  1.250000000E+02  0.00000E+00  9.000E+00
      21     1     1     2   502   511 -3.941114876E+01 -5.098837910E+01 -1.127210944E+02  1.298425915E+02  1.348699152E-06  0.00000E+00  9.000E+00
#rwgt            1           1   2.8832379876802015E-002          10      261972           0
</event>
<event>
      5   9999  3.19816E-02  1.74848E+01 -1.00000E+00  1.71334E-01
      21    -1     0     0   502   512  0.000000000E+00  0.000000000E+00  9.153328655E+01  9.153328655E+01  0.000000000E+00  0.00000E+00  9.000E+00
      21    -1     0     0   501   502  0.000000000E+00  0.000000000E+00 -4.736306915E+02  4.736306915E+02  0.000000000E+00  0.00000E+00  9.000E+00
      25     1     1     2     0     0 -6.540243393E+01 -1.238804241E+02 -1.914583360E+02  2.681513234E+02  1.250000000E+02  0.00000E+00  9.000E+00
      25     1     1     2     0     0  5.804870792E+01  1.397436335E+02 -1.973030464E+02  2.783009660E+02  1.250000000E+02  0.00000E+00  9.000E+00
      21     1     1     2   501   512  7.353726018E+00 -1.586320938E+01  6.663977349E+00  1.871168866E+01  1.884864366E-07  0.00000E+00  9.000E+00
#rwgt            1           1   2.6358591373094264E-002          10      262059           0
</event>
<event>
      5   9999  3.19816E-02  7.40957E+01 -1.00000E+00  1.29982E-01
      21    -1     0     0   502   501  0.000000000E+00  0.000000000E+00  3.452567266E+02  3.452567266E+02  0.000000000E+00  0.00000E+00  9.000E+00
      21    -1     0     0   501   511  0.000000000E+00  0.000000000E+00 -9.041484889E+02  9.041484889E+02  0.000000000E+00  0.00000E+00  9.000E+00
      25     1     1     2     0     0  1.186807448E+02 -1.845856447E+01  3.055213204E+02  3.512749848E+02  1.250000000E+02  0.00000E+00  9.000E+00
      25     1     1     2     0     0 -6.129398853E+01  6.533009372E+01 -4.135317504E+02  4.412011818E+02  1.250000000E+02  0.00000E+00  9.000E+00
      21     1     1     2   502   511 -5.738675626E+01 -4.687152924E+01 -4.508813322E+02  4.569290489E+02  7.629394531E-06  0.00000E+00  9.000E+00
#rwgt            1           1   2.5799470094531020E-002          10      262168           0
</event>
<event>
      5   9999  3.19816E-02  3.92855E+01 -1.00000E+00  1.45327E-01
      21    -1     0     0   502   501  0.000000000E+00  0.000000000E+00  2.361881204E+02  2.361881204E+02  0.000000000E+00  0.00000E+00  9.000E+00
      21    -1     0     0   512   502  0.000000000E+00  0.000000000E+00 -2.193339012E+03  2.193339012E+03  0.000000000E+00  0.00000E+00  9.000E+00
      25     1     1     2     0     0  5.484007460E+02  1.446696708E+02 -4.611978584E+02  7.416206284E+02  1.250000000E+02  0.00000E+00  9.000E+00
      25     1     1     2     0     0 -5.706333546E+02 -1.122804411E+02 -8.319321511E+02  1.022724512E+03  1.250000000E+02  0.00000E+00  9.000E+00
      21     1     1     2   512   501  2.223260861E+01 -3.238922977E+01 -6.640208819E+02  6.651819922E+02  7.629394531E-06  0.00000E+00  9.000E+00
#rwgt            1           1   2.7270908277974078E-002          10      262252           0
</event>
<event>
      5   9999  3.19816E-02  2.68594E+02 -1.00000E+00  1.07176E-01
      21    -1     0     0   502   501  0.000000000E+00  0.000000000E+00  1.993199743E+03  1.993199743E+03  0.000000000E+00  0.00000E+00  9.000E+00
      21    -1     0     0   501   511  0.000000000E+00  0.000000000E+00 -5.198428495E+02  5.198428495E+02  0.000000000E+00  0.00000E+00  9.000E+00
      25     1     1     2     0     0 -1.485384206E+01 -3.284826720E+02  1.879891944E+03  1.912521954E+03  1.250000000E+02  0.00000E+00  9.000E+00
      25     1     1     2     0     0  6.395549171E+01  6.441507549E+01 -6.908468124E+01  1.692255892E+02  1.250000000E+02  0.00000E+00  9.000E+00
      21     1     1     2   502   511 -4.910164965E+01  2.640675965E+02 -3.374503696E+02  4.312950492E+02  1.009274029E-05  0.00000E+00  9.000E+00
#rwgt            1           1   1.6782104664495309E-002          10      262411           0
</event>
<event>
      5   9999  3.19816E-02  2.83314E+02 -1.00000E+00  1.06406E-01
      -1    -1     0     0     0   501  0.000000000E+00  0.000000000E+00  1.084771295E+03  1.084771295E+03  0.000000000E+00  0.00000E+00  9.000E+00
      21    -1     0     0   501   502  0.000000000E+00  0.000000000E+00 -7.012995954E+02  7.012995954E+02  0.000000000E+00  0.00000E+00  9.000E+00
      25     1     1     2     0     0  3.874189069E+02 -1.018409648E+01 -5.535469879E+02  6.871945817E+02  1.250000000E+02  0.00000E+00  9.000E+00
      25     1     1     2     0     0 -1.708844013E+02  1.928850676E+02  5.382810536E+02  6.097356973E+02  1.250000000E+02  0.00000E+00  9.000E+00
      -1     1     1     2     0   502 -2.165345056E+02 -1.827009711E+02  3.987376339E+02  4.891406113E+02  0.000000000E+00  0.00000E+00  9.000E+00
#rwgt            2           5   9.7821057752614429E-005          10      262457           0
</event>
<event>
      5   9999  3.19816E-02  4.95707E+01 -1.00000E+00  1.39290E-01
      21    -1     0     0   502   511  0.000000000E+00  0.000000000E+00  5.285609044E+02  5.285609044E+02  0.000000000E+00  0.00000E+00  9.000E+00
      21    -1     0     0   501   502  0.000000000E+00  0.000000000E+00 -2.601233785E+02  2.601233785E+02  0.000000000E+00  0.00000E+00  9.000E+00
      25     1     1     2     0     0 -1.932703585E+02  1.892601149E+02  7.228277778E+01  3.066310855E+02  1.250000000E+02  0.00000E+00  9.000E+00
      25     1     1     2     0     0  2.418154945E+02 -1.792291820E+02  5.254260584E+01  3.301265795E+02  1.250000000E+02  0.00000E+00  9.000E+00
      21     1     1     2   501   511 -4.854513599E+01 -1.003093294E+01  1.436121422E+02  1.519266179E+02  3.303624740E-06  0.00000E+00  9.000E+00
#rwgt            1           1   2.8356701897936137E-002          10      262491           0
</event>
<event>
      5   9999  3.19816E-02  3.98054E+01 -1.00000E+00  1.44972E-01
      21    -1     0     0   502   512  0.000000000E+00  0.000000000E+00  2.374533019E+01  2.374533019E+01  0.000000000E+00  0.00000E+00  9.000E+00
      21    -1     0     0   501   502  0.000000000E+00  0.000000000E+00 -3.082351323E+03  3.082351323E+03  0.000000000E+00  0.00000E+00  9.000E+00
      25     1     1     2     0     0 -1.905516562E+02  3.018730926E+01 -1.215439157E+03  1.236987692E+03  1.250000000E+02  0.00000E+00  9.000E+00
      25     1     1     2     0     0  1.507749321E+02 -3.169842934E+01 -1.797966535E+03  1.808879910E+03  1.250000000E+02  0.00000E+00  9.000E+00
      21     1     1     2   501   512  3.977672405E+01  1.511120082E+00 -4.520030122E+01  6.022905022E+01  2.185142372E-06  0.00000E+00  9.000E+00
#rwgt            1           1   1.8858828671129937E-002          10      262675           0
</event>
<event>
      5   9999  3.19816E-02  3.26126E+01 -1.00000E+00  1.50563E-01
      21    -1     0     0   502   511  0.000000000E+00  0.000000000E+00  6.560004489E+02  6.560004489E+02  0.000000000E+00  0.00000E+00  9.000E+00
      21    -1     0     0   501   502  0.000000000E+00  0.000000000E+00 -8.123437199E+01  8.123437199E+01  0.000000000E+00  0.00000E+00  9.000E+00
      25     1     1     2     0     0  5.435348429E+01  6.358487562E+01  2.003307428E+01  1.517354992E+02  1.250000000E+02  0.00000E+00  9.000E+00
      25     1     1     2     0     0 -2.514472365E+01 -7.809100491E+01  3.923497658E+02  4.198735535E+02  1.250000000E+02  0.00000E+00  9.000E+00
      21     1     1     2   501   511 -2.920876065E+01  1.450612928E+01  1.623832368E+02  1.656257682E+02  0.000000000E+00  0.00000E+00  9.000E+00
#rwgt            1           1   3.0454539281627665E-002          10      262755           0
</event>
<event>
      5   9999  3.19816E-02  6.73350E+01 -1.00000E+00  1.32080E-01
      21    -1     0     0   502   501  0.000000000E+00  0.000000000E+00  1.076602726E+03  1.076602726E+03  0.000000000E+00  0.00000E+00  9.000E+00
      -4    -1     0     0     0   502  0.000000000E+00  0.000000000E+00 -6.673178271E+02  6.673178271E+02  0.000000000E+00  0.00000E+00  9.000E+00
      25     1     1     2     0     0 -2.329723469E+01  2.065611265E+01  1.057006636E+03  1.064827434E+03  1.250000000E+02  0.00000E+00  9.000E+00
      25     1     1     2     0     0  1.185975444E+01  4.570041097E+01 -3.720453359E+02  3.953124249E+02  1.250000000E+02  0.00000E+00  9.000E+00
      -4     1     1     2     0   501  1.143748025E+01 -6.635652362E+01 -2.756764011E+02  2.837806940E+02  5.394796609E-06  0.00000E+00  9.000E+00
#rwgt            1           1   3.3550132928833680E-002          10      262857           0
</event>
<event>
      5   9999  3.19816E-02  1.20646E+02 -1.00000E+00  1.20269E-01
      21    -1     0     0   502   501  0.000000000E+00  0.000000000E+00  1.257684589E+03  1.257684589E+03  0.000000000E+00  0.00000E+00  9.000E+00
      21    -1     0     0   501   511  0.000000000E+00  0.000000000E+00 -1.206466503E+02  1.206466503E+02  0.000000000E+00  0.00000E+00  9.000E+00
      25     1     1     2     0     0  1.254449384E+02 -2.868150271E+02  4.584034111E+02  5.689973459E+02  1.250000000E+02  0.00000E+00  9.000E+00
      25     1     1     2     0     0 -1.583286016E+01  2.364091337E+02  6.195702572E+02  6.750053790E+02  1.250000000E+02  0.00000E+00  9.000E+00
      21     1     1     2   502   511 -1.096120782E+02  5.040589332E+01  5.906427032E+01  1.343285145E+02  1.651812370E-06  0.00000E+00  9.000E+00
#rwgt            1           1   2.6728033547084473E-002          10      262966           0
</event>
<event>
      5   9999  3.19816E-02  1.80375E+01 -1.00000E+00  1.70157E-01
      21    -1     0     0   502   512  0.000000000E+00  0.000000000E+00  6.470895796E+02  6.470895796E+02  0.000000000E+00  0.00000E+00  9.000E+00
      21    -1     0     0   501   502  0.000000000E+00  0.000000000E+00 -1.502805136E+02  1.502805136E+02  0.000000000E+00  0.00000E+00  9.000E+00
      25     1     1     2     0     0 -1.000033843E+02  3.651806514E+01 -4.034294100E+01  1.690763107E+02  1.250000000E+02  0.00000E+00  9.000E+00
      25     1     1     2     0     0  8.199810150E+01 -3.759552393E+01  8.548405920E+01  1.762658119E+02  1.250000000E+02  0.00000E+00  9.000E+00
      21     1     1     2   501   512  1.800528285E+01  1.077458792E+00  4.516679478E+02  4.520279706E+02  7.629394531E-06  0.00000E+00  9.000E+00
#rwgt            1           1   3.2613904836366107E-002          10      263030           0
</event>
<event>
      5   9999  3.19816E-02  4.32744E+02 -1.00000E+00  1.00668E-01
      21    -1     0     0   502   501  0.000000000E+00  0.000000000E+00  7.602409538E+02  7.602409538E+02  0.000000000E+00  0.00000E+00  9.000E+00
      21    -1     0     0   501   511  0.000000000E+00  0.000000000E+00 -1.125121258E+03  1.125121258E+03  0.000000000E+00  0.00000E+00  9.000E+00
      25     1     1     2     0     0  5.212774510E+02 -5.061759303E+01  2.239971289E+02  5.831741039E+02  1.250000000E+02  0.00000E+00  9.000E+00
      25     1     1     2     0     0 -4.795675349E+02 -3.801120235E+02 -7.298046022E+01  6.288253482E+02  1.250000000E+02  0.00000E+00  9.000E+00
      21     1     1     2   502   511 -4.170991610E+01  4.307296166E+02 -5.158969733E+02  6.733627601E+02  1.078959322E-05  0.00000E+00  9.000E+00
#rwgt            2          11   2.2652986711269195E-003          10      263171           0
</event>
<event>
      5   9999  3.19816E-02  1.01454E+02 -1.00000E+00  1.23547E-01
      21    -1     0     0   502   512  0.000000000E+00  0.000000000E+00  8.073711498E+02  8.073711498E+02  0.000000000E+00  0.00000E+00  9.000E+00
      21    -1     0     0   501   502  0.000000000E+00  0.000000000E+00 -3.362473179E+02  3.362473179E+02  0.000000000E+00  0.00000E+00  9.000E+00
      25     1     1     2     0     0  1.462228035E+02  2.171552272E+02 -2.159647815E+02  3.616673717E+02  1.250000000E+02  0.00000E+00  9.000E+00
      25     1     1     2     0     0 -5.087213878E+01 -1.824960273E+02  2.701375900E+02  3.528343690E+02  1.250000000E+02  0.00000E+00  9.000E+00
      21     1     1     2   501   512 -9.535066471E+01 -3.465919988E+01  4.169510234E+02  4.291167269E+02  5.394796609E-06  0.00000E+00  9.000E+00
#rwgt            1           1   2.9374734308950722E-002          10      263221           0
</event>
<event>
      5   9999  3.19816E-02  1.25194E+02 -1.00000E+00  1.19592E-01
      21    -1     0     0   511   501  0.000000000E+00  0.000000000E+00  2.828685822E+02  2.828685822E+02  0.000000000E+00  0.00000E+00  9.000E+00
      21    -1     0     0   501   502  0.000000000E+00  0.000000000E+00 -6.656515768E+02  6.656515768E+02  0.000000000E+00  0.00000E+00  9.000E+00
      25     1     1     2     0     0  4.185682824E+01 -1.972668655E+02  1.108783471E+02  2.618877968E+02  1.250000000E+02  0.00000E+00  9.000E+00
      25     1     1     2     0     0  6.607429561E+01  1.338291295E+02 -5.229894298E+02  5.580492739E+02  1.250000000E+02  0.00000E+00  9.000E+00
      21     1     1     2   511   502 -1.079311239E+02  6.343773602E+01  2.932808810E+01  1.285830883E+02  1.815741803E-06  0.00000E+00  9.000E+00
#rwgt            1           1   2.7961597841489442E-002          10      263313           0
</event>
<event>
      5   9999  3.19816E-02  4.83706E+02 -1.00000E+00  9.92625E-02
      -2    -1     0     0     0   501  0.000000000E+00  0.000000000E+00  2.353464840E+03  2.353464840E+03  0.000000000E+00  0.00000E+00  9.000E+00
      21    -1     0     0   501   502  0.000000000E+00  0.000000000E+00 -3.080165266E+02  3.080165266E+02  0.000000000E+00  0.00000E+00  9.000E+00
      25     1     1     2     0     0  1.384026289E+02  1.095150524E+02  3.440887983E+01  2.189927062E+02  1.250000000E+02  0.00000E+00  9.000E+00
      25     1     1     2     0     0 -6.202419751E+02 -6.706149975E+01  3.796851068E+02  7.409339597E+02  1.250000000E+02  0.00000E+00  9.000E+00
      -2     1     1     2     0   502  4.818393462E+02 -4.245355263E+01  1.631354327E+03  1.701554701E+03  2.157918644E-05  0.00000E+00  9.000E+00
#rwgt            2           4   4.0037308096957692E-005          10      263394           0
</event>
<event>
      5   9999  3.19816E-02  5.33714E+01 -1.00000E+00  1.37478E-01
      21    -1     0     0   502   501  0.000000000E+00  0.000000000E+00  5.033031677E+02  5.033031677E+02  0.000000000E+00  0.00000E+00  9.000E+00
      21    -1     0     0   501   511  0.000000000E+00  0.000000000E+00 -4.636826897E+02  4.636826897E+02  0.000000000E+00  0.00000E+00  9.000E+00
      25     1     1     2     0     0  2.187685047E+02 -8.915900423E+01  3.927882171E+02  4.750963799E+02  1.250000000E+02  0.00000E+00  9.000E+00
      25     1     1     2     0     0 -2.179260022E+02  1.425237437E+02 -3.036241729E+02  4.190672957E+02  1.250000000E+02  0.00000E+00  9.000E+00
      21     1     1     2   502   511 -8.425025756E-01 -5.336473948E+01 -4.954356614E+01  7.282218189E+01  1.348699152E-06  0.00000E+00  9.000E+00
#rwgt            1           1   2.8453402903222309E-002          10      263413           0
</event>
<event>
      5   9999  3.19816E-02  5.78188E+01 -1.00000E+00  1.35568E-01
      21    -1     0     0   512   501  0.000000000E+00  0.000000000E+00  3.179338838E+02  3.179338838E+02  0.000000000E+00  0.00000E+00  9.000E+00
      21    -1     0     0   501   502  0.000000000E+00  0.000000000E+00 -3.422700871E+02  3.422700871E+02  0.000000000E+00  0.00000E+00  9.000E+00
      25     1     1     2     0     0  2.345781632E+02 -8.328723015E+01 -6.931840043E+01  2.870430594E+02  1.250000000E+02  0.00000E+00  9.000E+00
      25     1     1     2     0     0 -2.370719846E+02  1.410522442E+02  5.065766678E+00  3.029018380E+02  1.250000000E+02  0.00000E+00  9.000E+00
      21     1     1     2   512   502  2.493821462E+00 -5.776501402E+01  3.991643040E+01  7.025907348E+01  9.536743164E-07  0.00000E+00  9.000E+00
#rwgt            1           1   3.0816148120456018E-002          10      263518           0
</event>
<event>
      5   9999  3.19816E-02  3.99056E+01 -1.00000E+00  1.44904E-01
      21    -1     0     0   502   501  0.000000000E+00  0.000000000E+00  3.090776087E+02  3.090776087E+02  0.000000000E+00  0.00000E+00  9.000E+00
      21    -1     0     0   511   502  0.000000000E+00  0.000000000E+00 -6.646694684E+02  6.646694684E+02  0.000000000E+00  0.00000E+00  9.000E+00
      25     1     1     2     0     0 -7.347315704E+01 -8.882494475E+01 -2.611537420E+02  3.116319184E+02  1.250000000E+02  0.00000E+00  9.000E+00
      25     1     1     2     0     0  9.750933691E+01  1.206795652E+02  2.475708234E+02  3.177859985E+02  1.250000000E+02  0.00000E+00  9.000E+00
      21     1     1     2   511   501 -2.403617987E+01 -3.185462043E+01 -3.420089411E+02  3.443291602E+02  6.607249480E-06  0.00000E+00  9.000E+00
#rwgt            1           1   3.0196302254581888E-002          10      263624           0
</event>
<event>
      5   9999  3.19816E-02  2.23923E+01 -1.00000E+00  1.62420E-01
      21    -1     0     0   502   512  0.000000000E+00  0.000000000E+00  9.731629207E+01  9.731629207E+01  0.000000000E+00  0.00000E+00  9.000E+00
      21    -1     0     0   501   502  0.000000000E+00  0.000000000E+00 -9.620431706E+02  9.620431706E+02  0.000000000E+00  0.00000E+00  9.000E+00
      25     1     1     2     0     0  1.446087901E+02  3.043007269E+01 -7.287814165E+02  7.540457841E+02  1.250000000E+02  0.00000E+00  9.000E+00
      25     1     1     2     0     0 -1.663249197E+02 -3.589113914E+01 -1.654765446E+02  2.682529396E+02  1.250000000E+02  0.00000E+00  9.000E+00
      21     1     1     2   501   512  2.171612967E+01  5.461066457E+00  2.953108258E+01  3.706073897E+01  1.430511475E-06  0.00000E+00  9.000E+00
#rwgt            1           1   2.9690158089483921E-002          10      263692           0
</event>
<event>
      5   9999  3.19816E-02  3.51666E+01 -1.00000E+00  1.48396E-01
      21    -1     0     0   511   501  0.000000000E+00  0.000000000E+00  1.859681591E+03  1.859681591E+03  0.000000000E+00  0.00000E+00  9.000E+00
      21    -1     0     0   501   502  0.000000000E+00  0.000000000E+00 -2.057320663E+01  2.057320663E+01  0.000000000E+00  0.00000E+00  9.000E+00
      25     1     1     2     0     0  9.478850490E+01 -1.172463415E+01  1.203734699E+03  1.213970573E+03  1.250000000E+02  0.00000E+00  9.000E+00
      25     1     1     2     0     0 -5.965813099E+01  1.012778923E+01  3.184424465E+02  3.474079108E+02  1.250000000E+02  0.00000E+00  9.000E+00
      21     1     1     2   511   502 -3.513037391E+01  1.596844919E+00  3.169312390E+02  3.188763136E+02  3.814697266E-06  0.00000E+00  9.000E+00
#rwgt            1           1   2.5435859473058112E-002          10      263808           0
</event>
<event>
      5   9999  3.19816E-02  1.58914E+02 -1.00000E+00  1.15409E-01
      21    -1     0     0   502   501  0.000000000E+00  0.000000000E+00  5.078231321E+02  5.078231321E+02  0.000000000E+00  0.00000E+00  9.000E+00
       2    -1     0     0   501     0  0.000000000E+00  0.000000000E+00 -6.183866591E+03  6.183866591E+03  0.000000000E+00  0.00000E+00  9.000E+00
      25     1     1     2     0     0  3.463393966E+02 -3.577154262E+02  3.543248051E+02  6.237646762E+02  1.250000000E+02  0.00000E+00  9.000E+00
      25     1     1     2     0     0 -2.411493081E+02  2.385984173E+02 -1.876036066E+03  1.910554504E+03  1.250000000E+02  0.00000E+00  9.000E+00
       2     1     1     2   502     0 -1.051900885E+02  1.191170088E+02 -4.154332198E+03  4.157370543E+03  0.000000000E+00  0.00000E+00  9.000E+00
#rwgt            2          13   6.5223433118508976E-005          10      263908           0
</event>
<event>
      5   9999  3.19816E-02  1.20764E+02 -1.00000E+00  1.20251E-01
      21    -1     0     0   502   511  0.000000000E+00  0.000000000E+00  1.256088413E+02  1.256088413E+02  0.000000000E+00  0.00000E+00  9.000E+00
      21    -1     0     0   501   502  0.000000000E+00  0.000000000E+00 -1.282308826E+03  1.282308826E+03  0.000000000E+00  0.00000E+00  9.000E+00
      25     1     1     2     0     0  2.355712458E+02  1.171066528E+02 -3.235771018E+02  4.353560850E+02  1.250000000E+02  0.00000E+00  9.000E+00
      25     1     1     2     0     0 -3.327663573E+02 -4.543398316E+01 -7.321455543E+02  8.151440413E+02  1.250000000E+02  0.00000E+00  9.000E+00
      21     1     1     2   501   511  9.719511144E+01 -7.167266963E+01 -1.009773282E+02  1.574175406E+02  2.336015456E-06  0.00000E+00  9.000E+00
#rwgt            1           1   2.8546804246690434E-002          10      263942           0
</event>
<event>
      5   9999  3.19816E-02  1.49123E+02 -1.00000E+00  1.16495E-01
      21    -1     0     0   502   501  0.000000000E+00  0.000000000E+00  3.205301408E+02  3.205301408E+02  0.000000000E+00  0.00000E+00  9.000E+00
      21    -1     0     0   501   512  0.000000000E+00  0.000000000E+00 -1.348310382E+03  1.348310382E+03  0.000000000E+00  0.00000E+00  9.000E+00
      25     1     1     2     0     0 -2.065844948E+02  9.367437953E+01 -4.379922481E+01  2.626697831E+02  1.250000000E+02  0.00000E+00  9.000E+00
      25     1     1     2     0     0  2.544925960E+02 -2.348918941E+02  4.093685962E+01  3.704612123E+02  1.250000000E+02  0.00000E+00  9.000E+00
      21     1     1     2   502   512 -4.790810121E+01  1.412175146E+02 -1.024917876E+03  1.035709528E+03  1.525878906E-05  0.00000E+00  9.000E+00
#rwgt            2          11   2.4236057574153961E-003          10      264222           0
</event>
<event>
      5   9999  3.19816E-02  2.87052E+01 -1.00000E+00  1.54383E-01
      21    -1     0     0   502   511  0.000000000E+00  0.000000000E+00  3.772092143E+02  3.772092143E+02  0.000000000E+00  0.00000E+00  9.000E+00
      21    -1     0     0   501   502  0.000000000E+00  0.000000000E+00 -2.287152999E+03  2.287152999E+03  0.000000000E+00  0.00000E+00  9.000E+00
      25     1     1     2     0     0  3.039812129E+02 -7.932327922E+02 -1.307615810E+03  1.564323160E+03  1.250000000E+02  0.00000E+00  9.000E+00
      25     1     1     2     0     0 -3.295094626E+02  8.063590603E+02 -6.094767210E+02  1.070457049E+03  1.250000000E+02  0.00000E+00  9.000E+00
      21     1     1     2   501   511  2.552824972E+01 -1.312626806E+01  7.148746377E+00  2.958200503E+01  3.674277069E-07  0.00000E+00  9.000E+00
#rwgt            2          11   1.5721730755547843E-002          10      264242           0
</event>
<event>
      5   9999  3.19816E-02  1.64154E+02 -1.00000E+00  1.14863E-01
      21    -1     0     0   502   501  0.000000000E+00  0.000000000E+00  1.888376887E+02  1.888376887E+02  0.000000000E+00  0.00000E+00  9.000E+00
       1    -1     0     0   501     0  0.000000000E+00  0.000000000E+00 -6.887514286E+02  6.887514286E+02  0.000000000E+00  0.00000E+00  9.000E+00
      25     1     1     2     0     0 -1.008391106E+02 -1.909103212E+02 -9.734140805E+01  2.677977346E+02  1.250000000E+02  0.00000E+00  9.000E+00
      25     1     1     2     0     0 -1.435690699E+01  7.396470237E+01 -4.200746875E+02  4.447073656E+02  1.250000000E+02  0.00000E+00  9.000E+00
       1     1     1     2   502     0  1.151960175E+02  1.169456188E+02  1.750235565E+01  1.650840170E+02  1.735713456E-06  0.00000E+00  9.000E+00
#rwgt            1           1   3.3252412427064414E-002          10      264277           0
</event>
<event>
      5   9999  3.19816E-02  2.03061E+02 -1.00000E+00  1.11408E-01
      21    -1     0     0   502   501  0.000000000E+00  0.000000000E+00  3.623182048E+02  3.623182048E+02  0.000000000E+00  0.00000E+00  9.000E+00
      -3    -1     0     0     0   502  0.000000000E+00  0.000000000E+00 -5.061010325E+02  5.061010325E+02  0.000000000E+00  0.00000E+00  9.000E+00
      25     1     1     2     0     0 -5.661257793E+01  1.320080121E+02  1.836311137E+02  2.645306885E+02  1.250000000E+02  0.00000E+00  9.000E+00
      25     1     1     2     0     0 -1.448412629E+02 -1.065136710E+02 -4.183789261E-01  2.189733513E+02  1.250000000E+02  0.00000E+00  9.000E+00
      -3     1     1     2     0   501  2.014538408E+02 -2.549434116E+01 -3.269955624E+02  3.849151975E+02  3.814697266E-06  0.00000E+00  9.000E+00
#rwgt            1           1   2.7929411878726312E-002          10      264409           0
</event>
<event>
      5   9999  3.19816E-02  6.69772E+01 -1.00000E+00  1.32199E-01
      21    -1     0     0   502   501  0.000000000E+00  0.000000000E+00  4.207762700E+02  4.207762700E+02  0.000000000E+00  0.00000E+00  9.000E+00
      21    -1     0     0   511   502  0.000000000E+00  0.000000000E+00 -3.632107341E+02  3.632107341E+02  0.000000000E+00  0.00000E+00  9.000E+00
      25     1     1     2     0     0 -2.566204069E+02  1.726726740E+02  1.285141280E+02  3.575063170E+02  1.250000000E+02  0.00000E+00  9.000E+00
      25     1     1     2     0     0  1.906004477E+02 -1.613892395E+02  5.423839167E+01  2.845027599E+02  1.250000000E+02  0.00000E+00  9.000E+00
      21     1     1     2   511   501  6.601995918E+01 -1.128343451E+01 -1.251869837E+02  1.419779272E+02  1.907348633E-06  0.00000E+00  9.000E+00
#rwgt            1           1   2.6361665211869060E-002          10      264458           0
</event>
<event>
      5   9999  3.19816E-02  1.17606E+01 -1.00000E+00  1.87953E-01
      21    -1     0     0   502   501  0.000000000E+00  0.000000000E+00  5.962157831E+02  5.962157831E+02  0.000000000E+00  0.00000E+00  9.000E+00
      21    -1     0     0   501   512  0.000000000E+00  0.000000000E+00 -7.412379972E+01  7.412379972E+01  0.000000000E+00  0.00000E+00  9.000E+00
      25     1     1     2     0     0  5.986186507E+01 -6.479349713E+01  4.080218664E+01  1.583396937E+02  1.250000000E+02  0.00000E+00  9.000E+00
      25     1     1     2     0     0 -5.335055005E+01  5.499986573E+01  4.777152317E+02  4.997080238E+02  1.250000000E+02  0.00000E+00  9.000E+00
      21     1     1     2   502   512 -6.511315016E+00  9.793631393E+00  3.574565028E+00  1.229186537E+01  2.795705652E-07  0.00000E+00  9.000E+00
#rwgt            1           1   2.5761575389939374E-002          10      264496           0
</event>
<event>
      5   9999  3.19816E-02  1.91942E+01 -1.00000E+00  1.67856E-01
       1    -1     0     0   502     0  0.000000000E+00  0.000000000E+00  1.496107489E+02  1.496107489E+02  0.000000000E+00  0.00000E+00  9.000E+00
      21    -1     0     0   501   502  0.000000000E+00  0.000000000E+00 -1.058005989E+03  1.058005989E+03  0.000000000E+00  0.00000E+00  9.000E+00
      25     1     1     2     0     0 -7.674410362E+01  2.092897164E+02 -4.756677020E+02  5.399783381E+02  1.250000000E+02  0.00000E+00  9.000E+00
      25     1     1     2     0     0  8.589711507E+01 -2.261609986E+02 -5.153206456E+02  5.828443012E+02  1.250000000E+02  0.00000E+00  9.000E+00
       1     1     1     2   501     0 -9.153011450E+00  1.687128229E+01  8.259310744E+01  8.479409874E+01  9.536743164E-07  0.00000E+00  9.000E+00
#rwgt            1           1   2.8228604510999133E-002          10      264734           0
</event>
<event>
      5   9999  3.19816E-02  1.32012E+02 -1.00000E+00  1.18636E-01
      21    -1     0     0   502   501  0.000000000E+00  0.000000000E+00  2.856369311E+02  2.856369311E+02  0.000000000E+00  0.00000E+00  9.000E+00
      21    -1     0     0   511   502  0.000000000E+00  0.000000000E+00 -9.568322102E+02  9.568322102E+02  0.000000000E+00  0.00000E+00  9.000E+00
      25     1     1     2     0     0 -3.435928170E+01  3.954427050E+02 -4.736081053E+00  4.161765535E+02  1.250000000E+02  0.00000E+00  9.000E+00
      25     1     1     2     0     0 -5.487061341E+01 -2.981536319E+02 -3.316318521E+02  4.663808077E+02  1.250000000E+02  0.00000E+00  9.000E+00
      21     1     1     2   511   501  8.922989511E+01 -9.728907314E+01 -3.348273459E+02  3.599117802E+02  5.394796609E-06  0.00000E+00  9.000E+00
#rwgt            1           1   2.4961498567105497E-002          10      264833           0
</event>
<event>
      5   9999  3.19816E-02  3.90595E+01 -1.00000E+00  1.45484E-01
      21    -1     0     0   502   501  0.000000000E+00  0.000000000E+00  2.103960657E+03  2.103960657E+03  0.000000000E+00  0.00000E+00  9.000E+00
      -1    -1     0     0     0   502  0.000000000E+00  0.000000000E+00 -3.093881651E+01  3.093881651E+01  0.000000000E+00  0.00000E+00  9.000E+00
      25     1     1     2     0     0 -8.551255328E+01 -1.026841570E+02  1.602307911E+03  1.612721946E+03  1.250000000E+02  0.00000E+00  9.000E+00
      25     1     1     2     0     0  4.933780709E+01  1.174161928E+02  4.309570805E+02  4.664437659E+02  1.250000000E+02  0.00000E+00  9.000E+00
      -1     1     1     2     0   501  3.617474620E+01 -1.473203583E+01  3.975684853E+01  5.573376129E+01  1.348699152E-06  0.00000E+00  9.000E+00
#rwgt            1           1   7.2679100321401360E-002          10      264900           0
</event>
<event>
      5   9999  3.19816E-02  2.64700E+01 -1.00000E+00  1.56914E-01
      21    -1     0     0   502   511  0.000000000E+00  0.000000000E+00  2.413239233E+02  2.413239233E+02  0.000000000E+00  0.00000E+00  9.000E+00
      21    -1     0     0   501   502  0.000000000E+00  0.000000000E+00 -1.856168682E+02  1.856168682E+02  0.000000000E+00  0.00000E+00  9.000E+00
      25     1     1     2     0     0  1.132079530E+02  3.777143071E+01 -5.791218779E+01  1.822677785E+02  1.250000000E+02  0.00000E+00  9.000E+00
      25     1     1     2     0     0 -1.393234142E+02 -3.345391138E+01  1.018444052E+02  2.157022503E+02  1.250000000E+02  0.00000E+00  9.000E+00
      21     1     1     2   501   511  2.611546117E+01 -4.317519331E+00  1.177483777E+01  2.897076267E+01  5.331201500E-07  0.00000E+00  9.000E+00
#rwgt            1           1   2.4282408785697176E-002          10      265002           0
</event>
<event>
      5   9999  3.19816E-02  2.05641E+01 -1.00000E+00  1.65379E-01
      21    -1     0     0   502   512  0.000000000E+00  0.000000000E+00  1.648146667E+02  1.648146667E+02  0.000000000E+00  0.00000E+00  9.000E+00
      21    -1     0     0   501   502  0.000000000E+00  0.000000000E+00 -4.799166400E+02  4.799166400E+02  0.000000000E+00  0.00000E+00  9.000E+00
      25     1     1     2     0     0  1.856187944E+02  1.586723311E+02 -2.134835436E+02  3.476082118E+02  1.250000000E+02  0.00000E+00  9.000E+00
      25     1     1     2     0     0 -1.656364539E+02 -1.538154921E+02 -9.786366537E+01  2.762190027E+02  1.250000000E+02  0.00000E+00  9.000E+00
      21     1     1     2   501   512 -1.998234050E+01 -4.856839062E+00 -3.754764253E+00  2.090409223E+01  2.665600750E-07  0.00000E+00  9.000E+00
#rwgt            1           1   2.6619418591993325E-002          10      265122           0
</event>
<event>
      5   9999  3.19816E-02  6.99961E+01 -1.00000E+00  1.31222E-01
      21    -1     0     0   502   511  0.000000000E+00  0.000000000E+00  7.708286328E+02  7.708286328E+02  0.000000000E+00  0.00000E+00  9.000E+00
      21    -1     0     0   501   502  0.000000000E+00  0.000000000E+00 -1.930573134E+02  1.930573134E+02  0.000000000E+00  0.00000E+00  9.000E+00
      25     1     1     2     0     0  1.520900591E+02  1.035686177E+02 -4.701338350E+01  2.273611728E+02  1.250000000E+02  0.00000E+00  9.000E+00
      25     1     1     2     0     0 -8.880286332E+01 -7.366565944E+01  8.127978882E+01  1.885311168E+02  1.250000000E+02  0.00000E+00  9.000E+00
      21     1     1     2   501   511 -6.328719582E+01 -2.990295830E+01  5.435049141E+02  5.479936567E+02  0.000000000E+00  0.00000E+00  9.000E+00
#rwgt            1           1   3.4524843199757314E-002          10      265266           0
</event>
<event>
      5   9999  3.19816E-02  2.94471E+02 -1.00000E+00  1.05855E-01
      21    -1     0     0   502   501  0.000000000E+00  0.000000000E+00  8.758665448E+02  8.758665448E+02  0.000000000E+00  0.00000E+00  9.000E+00
      21    -1     0     0   512   502  0.000000000E+00  0.000000000E+00 -6.822133643E+02  6.822133643E+02  0.000000000E+00  0.00000E+00  9.000E+00
      25     1     1     2     0     0 -4.104943924E+02  5.399977944E+02  1.373595081E+02  7.032751230E+02  1.250000000E+02  0.00000E+00  9.000E+00
      25     1     1     2     0     0  4.574914777E+02 -2.493012093E+02  1.298129570E+02  5.512947931E+02  1.250000000E+02  0.00000E+00  9.000E+00
      21     1     1     2   512   501 -4.699708527E+01 -2.906965851E+02 -7.351928452E+01  3.035099930E+02  5.878843310E-06  0.00000E+00  9.000E+00
#rwgt            1           1   3.0232515921384158E-002          10      265337           0
</event>
<event>
      5   9999  3.19816E-02  3.57407E+02 -1.00000E+00  1.03179E-01
      21    -1     0     0   502   501  0.000000000E+00  0.000000000E+00  2.016098119E+02  2.016098119E+02  0.000000000E+00  0.00000E+00  9.000E+00
       2    -1     0     0   501     0  0.000000000E+00  0.000000000E+00 -1.645245670E+03  1.645245670E+03  0.000000000E+00  0.00000E+00  9.000E+00
      25     1     1     2     0     0 -7.333633121E+00  2.182737726E+02 -5.926575673E+02  6.438673886E+02  1.250000000E+02  0.00000E+00  9.000E+00
      25     1     1     2     0     0  2.453688290E+02  4.833323438E+01  4.529831924E-01  2.795839212E+02  1.250000000E+02  0.00000E+00  9.000E+00
       2     1     1     2   502     0 -2.380351959E+02 -2.666070070E+02 -8.514312736E+02  9.234041717E+02  0.000000000E+00  0.00000E+00  9.000E+00
#rwgt            2          13   1.3472517518000949E-003          10      265399           0
</event>
<event>
      5   9999  3.19816E-02  1.35604E+02 -1.00000E+00  1.18157E-01
       2    -1     0     0   502     0  0.000000000E+00  0.000000000E+00  1.927525998E+03  1.927525998E+03  0.000000000E+00  0.00000E+00  9.000E+00
      21    -1     0     0   501   502  0.000000000E+00  0.000000000E+00 -3.341021822E+02  3.341021822E+02  0.000000000E+00  0.00000E+00  9.000E+00
      25     1     1     2     0     0 -2.358848538E+02  1.573591422E+02 -2.128135121E+02  3.759230704E+02  1.250000000E+02  0.00000E+00  9.000E+00
      25     1     1     2     0     0  1.011522458E+02 -1.420065696E+02  2.764755279E+02  3.499447959E+02  1.250000000E+02  0.00000E+00  9.000E+00
       2     1     1     2   501     0  1.347326080E+02 -1.535257259E+01  1.529761800E+03  1.535760314E+03  0.000000000E+00  0.00000E+00  9.000E+00
#rwgt            1           1   3.0082006359192965E-002          10      265418           0
</event>
<event>
      5   9999  3.19816E-02  1.79318E+01 -1.00000E+00  1.70378E-01
      21    -1     0     0   502   511  0.000000000E+00  0.000000000E+00  4.468964811E+02  4.468964811E+02  0.000000000E+00  0.00000E+00  9.000E+00
      21    -1     0     0   501   502  0.000000000E+00  0.000000000E+00 -2.644388260E+02  2.644388260E+02  0.000000000E+00  0.00000E+00  9.000E+00
      25     1     1     2     0     0 -3.044227704E+02 -3.777706008E+01  4.337255551E+01  3.340756022E+02  1.250000000E+02  0.00000E+00  9.000E+00
      25     1     1     2     0     0  3.059564293E+02  1.991093813E+01  1.231347539E+02  3.532604559E+02  1.250000000E+02  0.00000E+00  9.000E+00
      21     1     1     2   501   511 -1.533658829E+00  1.786612195E+01  1.595034576E+01  2.399924900E+01  1.685873940E-07  0.00000E+00  9.000E+00
#rwgt            1           1   2.8646016374829081E-002          10      265461           0
</event>
<event>
      5   9999  3.19816E-02  1.26368E+02 -1.00000E+00  1.19423E-01
      21    -1     0     0   502   501  0.000000000E+00  0.000000000E+00  5.777351111E+02  5.777351111E+02  0.000000000E+00  0.00000E+00  9.000E+00
      21    -1     0     0   512   502  0.000000000E+00  0.000000000E+00 -2.369918410E+03  2.369918410E+03  0.000000000E+00  0.00000E+00  9.000E+00
      25     1     1     2     0     0  3.876948506E+02  5.881543052E+02 -3.392499714E+01  7.162462491E+02  1.250000000E+02  0.00000E+00  9.000E+00
      25     1     1     2     0     0 -4.201383950E+02 -4.660217800E+02 -2.032725844E+02  6.712952509E+02  1.250000000E+02  0.00000E+00  9.000E+00
      21     1     1     2   512   501  3.244354439E+01 -1.221325252E+02 -1.554985717E+03  1.560112021E+03  2.157918644E-05  0.00000E+00  9.000E+00
#rwgt            1           1   3.0808465260950612E-002          10      265652           0
</event>
<event>
      5   9999  3.19816E-02  8.48747E+01 -1.00000E+00  1.27118E-01
      21    -1     0     0   511   501  0.000000000E+00  0.000000000E+00  3.452775168E+02  3.452775168E+02  0.000000000E+00  0.00000E+00  9.000E+00
      21    -1     0     0   501   502  0.000000000E+00  0.000000000E+00 -4.007617874E+02  4.007617874E+02  0.000000000E+00  0.00000E+00  9.000E+00
      25     1     1     2     0     0  2.338366981E+02 -1.660555463E+02 -6.309646883E+01  3.191554640E+02  1.250000000E+02  0.00000E+00  9.000E+00
      25     1     1     2     0     0 -2.025079236E+02  2.449365912E+02 -1.581691530E+00  3.415126566E+02  1.250000000E+02  0.00000E+00  9.000E+00
      21     1     1     2   511   502 -3.132877447E+01 -7.888104499E+01  9.193889788E+00  8.537118353E+01  7.817075878E-07  0.00000E+00  9.000E+00
#rwgt            1           1   2.9148272801950502E-002          10      265729           0
</event>
<event>
      5   9999  3.19816E-02  2.22899E+01 -1.00000E+00  1.62576E-01
      21    -1     0     0   502   501  0.000000000E+00  0.000000000E+00  6.942176334E+02  6.942176334E+02  0.000000000E+00  0.00000E+00  9.000E+00
      21    -1     0     0   512   502  0.000000000E+00  0.000000000E+00 -8.437141128E+02  8.437141128E+02  0.000000000E+00  0.00000E+00  9.000E+00
      25     1     1     2     0     0  2.581696355E+02  2.225104284E+02  4.643678093E+02  5.894276154E+02  1.250000000E+02  0.00000E+00  9.000E+00
      25     1     1     2     0     0 -2.418653134E+02 -2.073114112E+02 -8.066631454E+00  3.422965404E+02  1.250000000E+02  0.00000E+00  9.000E+00
      21     1     1     2   512   501 -1.630432207E+01 -1.519901721E+01 -6.057976573E+02  6.062075904E+02  7.629394531E-06  0.00000E+00  9.000E+00
#rwgt            1           1   2.2726852983137143E-002          10      265829           0
</event>
<event>
      5   9999  3.19816E-02  5.33618E+01 -1.00000E+00  1.37482E-01
      21    -1     0     0   502   501  0.000000000E+00  0.000000000E+00  7.125908816E+02  7.125908816E+02  0.000000000E+00  0.00000E+00  9.000E+00
      21    -1     0     0   511   502  0.000000000E+00  0.000000000E+00 -4.311949625E+02  4.311949625E+02  0.000000000E+00  0.00000E+00  9.000E+00
      25     1     1     2     0     0  7.097374103E+01  2.519648455E+02  5.705216462E+02  6.400339866E+02  1.250000000E+02  0.00000E+00  9.000E+00
      25     1     1     2     0     0 -9.816603899E+01 -2.060512760E+02 -5.808895054E+01  2.666327544E+02  1.250000000E+02  0.00000E+00  9.000E+00
      21     1     1     2   511   501  2.719229796E+01 -4.591356953E+01 -2.310367765E+02  2.371191030E+02  2.697398305E-06  0.00000E+00  9.000E+00
#rwgt            1           1   2.5761216654795780E-002          10      265943           0
</event>
<event>
      5   9999  3.19816E-02  7.61063E+01 -1.00000E+00  1.29407E-01
      21    -1     0     0   512   501  0.000000000E+00  0.000000000E+00  1.379289402E+02  1.379289402E+02  0.000000000E+00  0.00000E+00  9.000E+00
      21    -1     0     0   501   502  0.000000000E+00  0.000000000E+00 -1.090653468E+03  1.090653468E+03  0.000000000E+00  0.00000E+00  9.000E+00
      25     1     1     2     0     0 -7.042003651E+01  3.091694069E+01 -2.267405728E+02  2.700946614E+02  1.250000000E+02  0.00000E+00  9.000E+00
      25     1     1     2     0     0  6.039024964E+01  4.452556121E+01 -8.226436991E+02  8.354622454E+02  1.250000000E+02  0.00000E+00  9.000E+00
      21     1     1     2   512   502  1.002978687E+01 -7.544250189E+01  9.665974440E+01  1.230255010E+02  1.907348633E-06  0.00000E+00  9.000E+00
#rwgt            1           1   2.6709146138436408E-002          10      266051           0
</event>
<event>
      5   9999  3.19816E-02  2.22072E+02 -1.00000E+00  1.10018E-01
      21    -1     0     0   511   501  0.000000000E+00  0.000000000E+00  7.343083523E+02  7.343083523E+02  0.000000000E+00  0.00000E+00  9.000E+00
      21    -1     0     0   501   502  0.000000000E+00  0.000000000E+00 -4.434045826E+02  4.434045826E+02  0.000000000E+00  0.00000E+00  9.000E+00
      25     1     1     2     0     0  2.356755814E+02  1.431882266E+02  3.993348917E+02  5.011379088E+02  1.250000000E+02  0.00000E+00  9.000E+00
      25     1     1     2     0     0 -3.144061551E+02  6.445973882E+01 -2.387527902E+02  4.190873216E+02  1.250000000E+02  0.00000E+00  9.000E+00
      21     1     1     2   511   502  7.873057368E+01 -2.076479654E+02  1.303216682E+02  2.574877045E+02  2.697398305E-06  0.00000E+00  9.000E+00
#rwgt            1           1   3.0437942638830037E-002          10      266105           0
</event>
<event>
      5   9999  3.19816E-02  3.20885E+01 -1.00000E+00  1.51037E-01
      21    -1     0     0   502   512  0.000000000E+00  0.000000000E+00  4.075400006E+02  4.075400006E+02  0.000000000E+00  0.00000E+00  9.000E+00
      21    -1     0     0   501   502  0.000000000E+00  0.000000000E+00 -2.906893886E+03  2.906893886E+03  0.000000000E+00  0.00000E+00  9.000E+00
      25     1     1     2     0     0  2.299098983E+02 -7.695557795E+02 -1.388540515E+03  1.608957557E+03  1.250000000E+02  0.00000E+00  9.000E+00
      25     1     1     2     0     0 -2.123795083E+02  7.426790874E+02 -1.297966596E+03  1.515592151E+03  1.250000000E+02  0.00000E+00  9.000E+00
      21     1     1     2   501   512 -1.753039006E+01  2.687669215E+01  1.871532262E+02  1.898841784E+02  3.814697266E-06  0.00000E+00  9.000E+00
#rwgt            1           1   2.2200721569653324E-002          10      266168           0
</event>
<event>
      5   9999  3.19816E-02  6.05236E+01 -1.00000E+00  1.34502E-01
      21    -1     0     0   502   501  0.000000000E+00  0.000000000E+00  1.977423952E+02  1.977423952E+02  0.000000000E+00  0.00000E+00  9.000E+00
      21    -1     0     0   501   511  0.000000000E+00  0.000000000E+00 -4.468893924E+02  4.468893924E+02  0.000000000E+00  0.00000E+00  9.000E+00
      25     1     1     2     0     0  1.990572473E+02 -1.043546734E+02 -8.469782097E+01  2.707626385E+02  1.250000000E+02  0.00000E+00  9.000E+00
      25     1     1     2     0     0 -1.813712740E+02  1.622365108E+02 -1.197686920E+02  2.986398568E+02  1.250000000E+02  0.00000E+00  9.000E+00
      21     1     1     2   502   511 -1.768597322E+01 -5.788183738E+01 -4.468048418E+01  7.522929226E+01  9.536743164E-07  0.00000E+00  9.000E+00
#rwgt            1           1   2.7442173398094193E-002          10      266345           0
</event>
<event>
      5   9999  3.19816E-02  1.11627E+02 -1.00000E+00  1.21717E-01
       2    -1     0     0   502     0  0.000000000E+00  0.000000000E+00  2.127781631E+03  2.127781631E+03  0.000000000E+00  0.00000E+00  9.000E+00
      21    -1     0     0   501   502  0.000000000E+00  0.000000000E+00 -3.419435924E+02  3.419435924E+02  0.000000000E+00  0.00000E+00  9.000E+00
      25     1     1     2     0     0  2.787664366E+02 -1.023092571E+01  1.606748242E+02  3.453357745E+02  1.250000000E+02  0.00000E+00  9.000E+00
      25     1     1     2     0     0 -2.641112491E+02  1.208921405E+02 -1.469978023E+02  3.487162391E+02  1.250000000E+02  0.00000E+00  9.000E+00
       2     1     1     2   501     0 -1.465518750E+01 -1.106612148E+02  1.772161016E+03  1.775673209E+03  3.737624730E-05  0.00000E+00  9.000E+00
#rwgt            1           1   3.0390769357117035E-002          10      266473           0
</event>
<event>
      5   9999  3.19816E-02  7.92239E+01 -1.00000E+00  1.28555E-01
      21    -1     0     0   502   501  0.000000000E+00  0.000000000E+00  1.937059113E+03  1.937059113E+03  0.000000000E+00  0.00000E+00  9.000E+00
      21    -1     0     0   501   511  0.000000000E+00  0.000000000E+00 -6.962614697E+02  6.962614697E+02  0.000000000E+00  0.00000E+00  9.000E+00
      25     1     1     2     0     0 -1.032128704E+02 -2.887689295E+02  1.618095204E+03  1.651634790E+03  1.250000000E+02  0.00000E+00  9.000E+00
      25     1     1     2     0     0  9.143716905E+01  2.104251129E+02  2.427246138E+02  3.566226607E+02  1.250000000E+02  0.00000E+00  9.000E+00
      21     1     1     2   502   511  1.177570134E+01  7.834381667E+01 -6.200221749E+02  6.250631313E+02  1.321449896E-05  0.00000E+00  9.000E+00
#rwgt            1           1   3.6741902480169966E-002          10      266578           0
</event>
<event>
      5   9999  3.19816E-02  4.70850E+01 -1.00000E+00  1.40580E-01
      21    -1     0     0   502   512  0.000000000E+00  0.000000000E+00  8.487488359E+01  8.487488359E+01  0.000000000E+00  0.00000E+00  9.000E+00
      21    -1     0     0   501   502  0.000000000E+00  0.000000000E+00 -8.538220522E+02  8.538220522E+02  0.000000000E+00  0.00000E+00  9.000E+00
      25     1     1     2     0     0  2.233328116E+01  8.932432529E+00 -7.192957972E+02  7.304724551E+02  1.250000000E+02  0.00000E+00  9.000E+00
      25     1     1     2     0     0  1.526806854E+01  1.940729577E+01  1.494474064E+01  1.282891356E+02  1.250000000E+02  0.00000E+00  9.000E+00
      21     1     1     2   501   512 -3.760134970E+01 -2.833972829E+01 -6.459611206E+01  7.993534508E+01  1.348699152E-06  0.00000E+00  9.000E+00
#rwgt            1           1   2.7830810725096269E-002          10      266676           0
</event>
<event>
      5   9999  3.19816E-02  1.38406E+02 -1.00000E+00  1.17795E-01
      21    -1     0     0   502   501  0.000000000E+00  0.000000000E+00  2.838358855E+02  2.838358855E+02  0.000000000E+00  0.00000E+00  9.000E+00
      21    -1     0     0   501   511  0.000000000E+00  0.000000000E+00 -3.810897287E+02  3.810897287E+02  0.000000000E+00  0.00000E+00  9.000E+00
      25     1     1     2     0     0 -2.067290003E+01  1.426852423E+02 -1.412639645E+01  1.913400173E+02  1.250000000E+02  0.00000E+00  9.000E+00
      25     1     1     2     0     0 -1.134595618E+02 -1.768118418E+02  8.225733831E+01  2.579278373E+02  1.250000000E+02  0.00000E+00  9.000E+00
      21     1     1     2   502   511  1.341324618E+02  3.412659957E+01 -1.653847851E+02  2.156577595E+02  3.303624740E-06  0.00000E+00  9.000E+00
#rwgt            1           1   2.8060477519988070E-002          10      266820           0
</event>
<event>
      5   9999  3.19816E-02  5.95107E+01 -1.00000E+00  1.34894E-01
      21    -1     0     0   502   501  0.000000000E+00  0.000000000E+00  5.070960912E+02  5.070960912E+02  0.000000000E+00  0.00000E+00  9.000E+00
       2    -1     0     0   501     0  0.000000000E+00  0.000000000E+00 -1.208483606E+03  1.208483606E+03  0.000000000E+00  0.00000E+00  9.000E+00
      25     1     1     2     0     0 -8.952036926E+00 -6.432761623E+00  4.810772063E+02  4.971738104E+02  1.250000000E+02  0.00000E+00  9.000E+00
      25     1     1     2     0     0 -5.030395103E+01  1.193332250E+01 -2.517459980E+02  2.857865273E+02  1.250000000E+02  0.00000E+00  9.000E+00
       2     1     1     2   502     0  5.925598796E+01 -5.500560879E+00 -9.307187228E+02  9.326193593E+02  1.525878906E-05  0.00000E+00  9.000E+00
#rwgt            1           1   2.7715617914315850E-002          10      266871           0
</event>
<event>
      5   9999  3.19816E-02  2.02578E+02 -1.00000E+00  1.11446E-01
      21    -1     0     0   511   501  0.000000000E+00  0.000000000E+00  2.551628726E+03  2.551628726E+03  0.000000000E+00  0.00000E+00  9.000E+00
      21    -1     0     0   501   502  0.000000000E+00  0.000000000E+00 -6.751634120E+01  6.751634120E+01  0.000000000E+00  0.00000E+00  9.000E+00
      25     1     1     2     0     0 -1.940128223E+01 -7.436179714E+01  1.117359156E+03  1.126952781E+03  1.250000000E+02  0.00000E+00  9.000E+00
      25     1     1     2     0     0 -1.148533591E+02  2.260633994E+02  3.242312040E+02  4.301706967E+02  1.250000000E+02  0.00000E+00  9.000E+00
      21     1     1     2   511   502  1.342546413E+02 -1.517016023E+02  1.042522025E+03  1.062021590E+03  0.000000000E+00  0.00000E+00  9.000E+00
#rwgt            2          11   1.5488055422954454E-003          10      267241           0
</event>
<event>
      5   9999  3.19816E-02  7.56994E+01 -1.00000E+00  1.29522E-01
      21    -1     0     0   502   501  0.000000000E+00  0.000000000E+00  2.979915025E+02  2.979915025E+02  0.000000000E+00  0.00000E+00  9.000E+00
       2    -1     0     0   501     0  0.000000000E+00  0.000000000E+00 -2.854298219E+03  2.854298219E+03  0.000000000E+00  0.00000E+00  9.000E+00
      25     1     1     2     0     0 -3.546423855E+02  5.637878869E+01 -1.493010381E+02  4.084918474E+02  1.250000000E+02  0.00000E+00  9.000E+00
      25     1     1     2     0     0  2.799144806E+02 -4.428978161E+01  2.487715233E+01  3.107371460E+02  1.250000000E+02  0.00000E+00  9.000E+00
       2     1     1     2   502     0  7.472790489E+01 -1.208900708E+01 -2.431882831E+03  2.433060728E+03  4.315837288E-05  0.00000E+00  9.000E+00
#rwgt            1           1   2.9096036436137739E-002          10      267261           0
</event>
<event>
      5   9999  3.19816E-02  2.28404E+01 -1.00000E+00  1.61747E-01
      21    -1     0     0   511   501  0.000000000E+00  0.000000000E+00  8.329916152E+02  8.329916152E+02  0.000000000E+00  0.00000E+00  9.000E+00
      21    -1     0     0   501   502  0.000000000E+00  0.000000000E+00 -6.334573203E+01  6.334573203E+01  0.000000000E+00  0.00000E+00  9.000E+00
      25     1     1     2     0     0 -1.129941388E+02 -1.104252775E+02  3.823598861E+02  4.321868807E+02  1.250000000E+02  0.00000E+00  9.000E+00
      25     1     1     2     0     0  9.737157320E+01  1.270871973E+02  2.369705713E+02  3.121096453E+02  1.250000000E+02  0.00000E+00  9.000E+00
      21     1     1     2   511   502  1.562256565E+01 -1.666191974E+01  1.503154258E+02  1.520408214E+02  0.000000000E+00  0.00000E+00  9.000E+00
#rwgt            1           1   3.0668545862676894E-002          10      267358           0
</event>
<event>
      5   9999  3.19816E-02  4.29909E+01 -1.00000E+00  1.42924E-01
      21    -1     0     0   502   512  0.000000000E+00  0.000000000E+00  1.560301433E+03  1.560301433E+03  0.000000000E+00  0.00000E+00  9.000E+00
      21    -1     0     0   501   502  0.000000000E+00  0.000000000E+00 -5.296429190E+01  5.296429190E+01  0.000000000E+00  0.00000E+00  9.000E+00
      25     1     1     2     0     0  1.526030813E+02 -7.072562800E+01  2.647965591E+02  3.376862932E+02  1.250000000E+02  0.00000E+00  9.000E+00
      25     1     1     2     0     0 -1.928194912E+02  8.591972150E+01  1.069827079E+03  1.097595797E+03  1.250000000E+02  0.00000E+00  9.000E+00
      21     1     1     2   501   512  4.021640984E+01 -1.519409349E+01  1.727135034E+02  1.779836350E+02  1.907348633E-06  0.00000E+00  9.000E+00
#rwgt            1           1   3.6839423881767412E-002          10      267546           0
</event>
<event>
      5   9999  3.19816E-02  1.82200E+01 -1.00000E+00  1.69780E-01
       1    -1     0     0   502     0  0.000000000E+00  0.000000000E+00  2.355262058E+02  2.355262058E+02  0.000000000E+00  0.00000E+00  9.000E+00
      21    -1     0     0   501   502  0.000000000E+00  0.000000000E+00 -4.535884467E+02  4.535884467E+02  0.000000000E+00  0.00000E+00  9.000E+00
      25     1     1     2     0     0 -3.853315741E+01  2.079746092E+02  3.244757056E+01  2.478226930E+02  1.250000000E+02  0.00000E+00  9.000E+00
      25     1     1     2     0     0  2.584736408E+01 -2.210528532E+02 -2.968452721E+02  3.915029574E+02  1.250000000E+02  0.00000E+00  9.000E+00
       1     1     1     2   501     0  1.268579333E+01  1.307824394E+01  4.633546062E+01  4.978900208E+01  0.000000000E+00  0.00000E+00  9.000E+00
#rwgt            1           1   2.6822265227469687E-002          10      267645           0
</event>
<event>
      5   9999  3.19816E-02  8.94684E+01 -1.00000E+00  1.26041E-01
      -2    -1     0     0     0   501  0.000000000E+00  0.000000000E+00  7.078902302E+02  7.078902302E+02  0.000000000E+00  0.00000E+00  9.000E+00
      21    -1     0     0   501   502  0.000000000E+00  0.000000000E+00 -2.487943540E+02  2.487943540E+02  0.000000000E+00  0.00000E+00  9.000E+00
      25     1     1     2     0     0  5.394214235E+01 -3.303329235E+01  4.382501124E+02  4.600968530E+02  1.250000000E+02  0.00000E+00  9.000E+00
      25     1     1     2     0     0  1.698947082E+01  8.756121941E+01 -2.035712730E+02  2.549938675E+02  1.250000000E+02  0.00000E+00  9.000E+00
      -2     1     1     2     0   502 -7.093161317E+01 -5.452792706E+01  2.244170368E+02  2.415938637E+02  2.697398305E-06  0.00000E+00  9.000E+00
#rwgt            1           1   2.5883257969226005E-002          10      267848           0
</event>
<event>
      5   9999  3.19816E-02  4.80328E+02 -1.00000E+00  9.93498E-02
      21    -1     0     0   511   501  0.000000000E+00  0.000000000E+00  5.052319651E+02  5.052319651E+02  0.000000000E+00  0.00000E+00  9.000E+00
      21    -1     0     0   501   502  0.000000000E+00  0.000000000E+00 -2.545954807E+03  2.545954807E+03  0.000000000E+00  0.00000E+00  9.000E+00
      25     1     1     2     0     0  1.263805756E+02 -7.207592145E+02 -1.659252102E+03  1.817748177E+03  1.250000000E+02  0.00000E+00  9.000E+00
      25     1     1     2     0     0 -3.645534835E+02  3.036402804E+02 -5.381189994E+02  7.282126885E+02  1.250000000E+02  0.00000E+00  9.000E+00
      21     1     1     2   511   502  2.381729079E+02  4.171189341E+02  1.566482600E+02  5.052259065E+02  1.027138673E-05  0.00000E+00  9.000E+00
#rwgt            1           1   3.5774163419801205E-002          10      267928           0
</event>
<event>
      5   9999  3.19816E-02  6.28020E+00 -1.00000E+00  2.22437E-01
      21    -1     0     0   502   512  0.000000000E+00  0.000000000E+00  1.953286341E+02  1.953286341E+02  0.000000000E+00  0.00000E+00  9.000E+00
      21    -1     0     0   501   502  0.000000000E+00  0.000000000E+00 -5.748281217E+02  5.748281217E+02  0.000000000E+00  0.00000E+00  9.000E+00
      25     1     1     2     0     0  1.255327854E+01  1.607617268E+02  7.980948162E+01  2.190809690E+02  1.250000000E+02  0.00000E+00  9.000E+00
      25     1     1     2     0     0 -1.249157118E+01 -1.670416232E+02 -4.831508524E+02  5.264206392E+02  1.250000000E+02  0.00000E+00  9.000E+00
      21     1     1     2   501   512 -6.170735883E-02  6.279896401E+00  2.384188318E+01  2.465514754E+01  0.000000000E+00  0.00000E+00  9.000E+00
#rwgt            1           1   2.6232314020319527E-002          10      267964           0
</event>
<event>
      5   9999  3.19816E-02  3.96357E+01 -1.00000E+00  1.45087E-01
      21    -1     0     0   502   501  0.000000000E+00  0.000000000E+00  7.059869508E+02  7.059869508E+02  0.000000000E+00  0.00000E+00  9.000E+00
      21    -1     0     0   501   511  0.000000000E+00  0.000000000E+00 -1.111319641E+02  1.111319641E+02  0.000000000E+00  0.00000E+00  9.000E+00
      25     1     1     2     0     0 -1.252596768E+01  1.157447677E+02  5.889904712E+02  6.132605696E+02  1.250000000E+02  0.00000E+00  9.000E+00
      25     1     1     2     0     0  9.602908681E+00 -7.621700419E+01  3.942491870E+01  1.519229140E+02  1.250000000E+02  0.00000E+00  9.000E+00
      21     1     1     2   502   511  2.923058996E+00 -3.952776348E+01 -3.356040322E+01  5.193543130E+01  8.259061849E-07  0.00000E+00  9.000E+00
#rwgt            1           1   2.9751342934819472E-002          10      268299           0
</event>
<event>
      5   9999  3.19816E-02  1.10851E+02 -1.00000E+00  1.21848E-01
      21    -1     0     0   512   501  0.000000000E+00  0.000000000E+00  7.169835169E+02  7.169835169E+02  0.000000000E+00  0.00000E+00  9.000E+00
      21    -1     0     0   501   502  0.000000000E+00  0.000000000E+00 -1.687815086E+02  1.687815086E+02  0.000000000E+00  0.00000E+00  9.000E+00
      25     1     1     2     0     0  7.411862271E+01  1.710267404E+02  3.086388051E+02  3.816105714E+02  1.250000000E+02  0.00000E+00  9.000E+00
      25     1     1     2     0     0  3.657791718E+01 -1.651697976E+02 -3.020383492E+01  2.125000652E+02  1.250000000E+02  0.00000E+00  9.000E+00
      21     1     1     2   512   502 -1.106965399E+02 -5.856942851E+00  2.697670381E+02  2.916543889E+02  5.394796609E-06  0.00000E+00  9.000E+00
#rwgt            1           1   3.0601608026382295E-002          10      268381           0
</event>
<event>
      5   9999  3.19816E-02  1.17723E+01 -1.00000E+00  1.87907E-01
       1    -1     0     0   502     0  0.000000000E+00  0.000000000E+00  1.337699724E+03  1.337699724E+03  0.000000000E+00  0.00000E+00  9.000E+00
      21    -1     0     0   501   502  0.000000000E+00  0.000000000E+00 -7.536075570E+02  7.536075570E+02  0.000000000E+00  0.00000E+00  9.000E+00
      25     1     1     2     0     0 -1.535761189E+02 -1.901853219E+02 -7.867380402E+01  2.856057570E+02  1.250000000E+02  0.00000E+00  9.000E+00
      25     1     1     2     0     0  1.426178828E+02  1.944870080E+02 -5.391563875E+02  6.037215144E+02  1.250000000E+02  0.00000E+00  9.000E+00
       1     1     1     2   501     0  1.095823608E+01 -4.301686109E+00  1.201922358E+03  1.201980009E+03  1.525878906E-05  0.00000E+00  9.000E+00
#rwgt            1           1   2.7889972870332569E-002          10      268437           0
</event>
<event>
      5   9999  3.19816E-02  3.76805E+01 -1.00000E+00  1.46468E-01
      21    -1     0     0   502   501  0.000000000E+00  0.000000000E+00  4.232843004E+01  4.232843004E+01  0.000000000E+00  0.00000E+00  9.000E+00
      21    -1     0     0   511   502  0.000000000E+00  0.000000000E+00 -1.496849500E+03  1.496849500E+03  0.000000000E+00  0.00000E+00  9.000E+00
      25     1     1     2     0     0 -6.238951363E+01  1.283816544E+02 -2.431311502E+02  3.084024267E+02  1.250000000E+02  0.00000E+00  9.000E+00
      25     1     1     2     0     0  4.341435413E+01 -9.582761249E+01 -7.370197821E+02  7.549111847E+02  1.250000000E+02  0.00000E+00  9.000E+00
      21     1     1     2   511   501  1.897515950E+01 -3.255404189E+01 -4.743701378E+02  4.758643189E+02  9.344061824E-06  0.00000E+00  9.000E+00
#rwgt            1           1   3.7773702623384031E-002          10      268677           0
</event>
<event>
      5   9999  3.19816E-02  2.03257E+02 -1.00000E+00  1.11393E-01
       2    -1     0     0   502     0  0.000000000E+00  0.000000000E+00  1.355439586E+03  1.355439586E+03  0.000000000E+00  0.00000E+00  9.000E+00
      21    -1     0     0   501   502  0.000000000E+00  0.000000000E+00 -2.414257120E+02  2.414257120E+02  0.000000000E+00  0.00000E+00  9.000E+00
      25     1     1     2     0     0  5.919974771E+01 -2.795420669E+02 -7.112007485E+01  3.198928607E+02  1.250000000E+02  0.00000E+00  9.000E+00
      25     1     1     2     0     0 -1.613122765E+01  8.090016380E+01  1.180376283E+02  1.906906781E+02  1.250000000E+02  0.00000E+00  9.000E+00
       2     1     1     2   501     0 -4.306852006E+01  1.986419031E+02  1.067096321E+03  1.086281760E+03  2.157918644E-05  0.00000E+00  9.000E+00
#rwgt            1           1   2.7152876746574066E-002          10      268741           0
</event>
<event>
      5   9999  3.19816E-02  2.25623E+01 -1.00000E+00  1.62162E-01
      21    -1     0     0   502   501  0.000000000E+00  0.000000000E+00  2.119105891E+02  2.119105891E+02  0.000000000E+00  0.00000E+00  9.000E+00
      21    -1     0     0   501   511  0.000000000E+00  0.000000000E+00 -1.192799343E+03  1.192799343E+03  0.000000000E+00  0.00000E+00  9.000E+00
      25     1     1     2     0     0  2.729447538E+02 -7.490773961E+01 -9.903645243E+02  1.037572599E+03  1.250000000E+02  0.00000E+00  9.000E+00
      25     1     1     2     0     0 -2.660631843E+02  5.342045139E+01  6.625801062E+01  3.060367406E+02  1.250000000E+02  0.00000E+00  9.000E+00
      21     1     1     2   502   511 -6.881569569E+00  2.148728822E+01 -5.678224053E+01  6.110059242E+01  6.743495762E-07  0.00000E+00  9.000E+00
#rwgt            1           1   2.5177978052535643E-002          10      268806           0
</event>
<event>
      5   9999  3.19816E-02  1.80976E+02 -1.00000E+00  1.13251E-01
      21    -1     0     0   502   501  0.000000000E+00  0.000000000E+00  6.670420812E+02  6.670420812E+02  0.000000000E+00  0.00000E+00  9.000E+00
      21    -1     0     0   501   512  0.000000000E+00  0.000000000E+00 -3.976583865E+02  3.976583865E+02  0.000000000E+00  0.00000E+00  9.000E+00
      25     1     1     2     0     0  4.391952583E+01  4.273236272E+02  2.589363875E+02  5.169211351E+02  1.250000000E+02  0.00000E+00  9.000E+00
      25     1     1     2     0     0 -2.539234387E+01 -2.472987844E+02  1.528696085E+02  3.174831919E+02  1.250000000E+02  0.00000E+00  9.000E+00
      21     1     1     2   502   512 -1.852718195E+01 -1.800248428E+02 -1.424223014E+02  2.302961407E+02  3.303624740E-06  0.00000E+00  9.000E+00
#rwgt            1           1   2.8938328433535755E-002          10      269015           0
</event>
<event>
      5   9999  3.19816E-02  4.25046E+01 -1.00000E+00  1.43223E-01
      21    -1     0     0   502   501  0.000000000E+00  0.000000000E+00  8.628775366E+02  8.628775366E+02  0.000000000E+00  0.00000E+00  9.000E+00
      21    -1     0     0   511   502  0.000000000E+00  0.000000000E+00 -6.044834487E+02  6.044834487E+02  0.000000000E+00  0.00000E+00  9.000E+00
      25     1     1     2     0     0  3.288819684E+02 -3.775148276E+02  5.886861599E+02  7.828519585E+02  1.250000000E+02  0.00000E+00  9.000E+00
      25     1     1     2     0     0 -3.517964320E+02  4.133138490E+02 -3.040321372E+02  6.345467735E+02  1.250000000E+02  0.00000E+00  9.000E+00
      21     1     1     2   511   501  2.291446367E+01 -3.579902144E+01 -2.625993478E+01  4.996225331E+01  4.768371582E-07  0.00000E+00  9.000E+00
#rwgt            1           1   2.8702330139764566E-002          10      269053           0
</event>
<event>
      5   9999  3.19816E-02  3.12812E+02 -1.00000E+00  1.05005E-01
       2    -1     0     0   502     0  0.000000000E+00  0.000000000E+00  2.753900926E+02  2.753900926E+02  0.000000000E+00  0.00000E+00  9.000E+00
      21    -1     0     0   501   502  0.000000000E+00  0.000000000E+00 -1.758515304E+03  1.758515304E+03  0.000000000E+00  0.00000E+00  9.000E+00
      25     1     1     2     0     0 -6.247539126E+01 -1.142009234E+02 -2.565748132E+01  1.822864004E+02  1.250000000E+02  0.00000E+00  9.000E+00
      25     1     1     2     0     0  3.719919848E+02  1.594892243E+02 -1.478610856E+03  1.538092947E+03  1.250000000E+02  0.00000E+00  9.000E+00
       2     1     1     2   501     0 -3.095165935E+02 -4.528830082E+01  2.114312592E+01  3.135260494E+02  4.768371582E-06  0.00000E+00  9.000E+00
#rwgt            1           1   3.0183322176061990E-002          10      269213           0
</event>
<event>
      5   9999  3.19816E-02  3.07167E+01 -1.00000E+00  1.52331E-01
      21    -1     0     0   502   501  0.000000000E+00  0.000000000E+00  1.077224094E+02  1.077224094E+02  0.000000000E+00  0.00000E+00  9.000E+00
      21    -1     0     0   501   511  0.000000000E+00  0.000000000E+00 -1.270917147E+03  1.270917147E+03  0.000000000E+00  0.00000E+00  9.000E+00
      25     1     1     2     0     0 -7.077371654E+01  1.662991106E+02 -9.868640633E+02  1.011034120E+03  1.250000000E+02  0.00000E+00  9.000E+00
      25     1     1     2     0     0  4.588666139E+01 -1.843033258E+02 -4.378877414E+01  2.315507684E+02  1.250000000E+02  0.00000E+00  9.000E+00
      21     1     1     2   502   511  2.488705515E+01  1.800421520E+01 -1.325418999E+02  1.360546674E+02  0.000000000E+00  0.00000E+00  9.000E+00
#rwgt            1           1   2.8189817056466105E-002          10      269240           0
</event>
<event>
      5   9999  3.19816E-02  5.40577E+01 -1.00000E+00  1.37169E-01
      21    -1     0     0   512   501  0.000000000E+00  0.000000000E+00  5.616874895E+01  5.616874895E+01  0.000000000E+00  0.00000E+00  9.000E+00
      21    -1     0     0   501   502  0.000000000E+00  0.000000000E+00 -1.371770502E+03  1.371770502E+03  0.000000000E+00  0.00000E+00  9.000E+00
      25     1     1     2     0     0 -4.871189333E+01  1.483898271E+02 -7.735899941E+02  7.990362121E+02  1.250000000E+02  0.00000E+00  9.000E+00
      25     1     1     2     0     0  1.586287258E+01 -1.913220817E+02 -5.240579300E+02  5.719418534E+02  1.250000000E+02  0.00000E+00  9.000E+00
      21     1     1     2   512   502  3.284902075E+01  4.293225462E+01 -1.795382870E+01  5.696118517E+01  9.536743164E-07  0.00000E+00  9.000E+00
#rwgt            1           1   2.8285169149944386E-002          10      269366           0
</event>
<event>
      5   9999  3.19816E-02  7.88544E+01 -1.00000E+00  1.28653E-01
      21    -1     0     0   502   511  0.000000000E+00  0.000000000E+00  9.268108473E+01  9.268108473E+01  0.000000000E+00  0.00000E+00  9.000E+00
      21    -1     0     0   501   502  0.000000000E+00  0.000000000E+00 -9.703654043E+02  9.703654043E+02  0.000000000E+00  0.00000E+00  9.000E+00
      25     1     1     2     0     0  1.225003125E+02 -1.459466408E+02 -2.900544371E+02  3.688676253E+02  1.250000000E+02  0.00000E+00  9.000E+00
      25     1     1     2     0     0 -1.370614235E+02  2.234450004E+02 -4.732591952E+02  5.552591898E+02  1.250000000E+02  0.00000E+00  9.000E+00
      21     1     1     2   501   511  1.456111097E+01 -7.749835959E+01 -1.143706873E+02  1.389196739E+02  1.348699152E-06  0.00000E+00  9.000E+00
#rwgt            1           1   2.8047529550701750E-002          10      269406           0
</event>
<event>
      5   9999  3.19816E-02  7.72610E+01 -1.00000E+00  1.29086E-01
      21    -1     0     0   502   501  0.000000000E+00  0.000000000E+00  1.634977217E+02  1.634977217E+02  0.000000000E+00  0.00000E+00  9.000E+00
      21    -1     0     0   501   512  0.000000000E+00  0.000000000E+00 -1.321189842E+03  1.321189842E+03  0.000000000E+00  0.00000E+00  9.000E+00
      25     1     1     2     0     0  3.312892789E+02 -2.150432670E+02 -5.501886375E+02  6.887152748E+02  1.250000000E+02  0.00000E+00  9.000E+00
      25     1     1     2     0     0 -2.987118828E+02  2.851002407E+02 -4.681352528E+02  6.366211991E+02  1.250000000E+02  0.00000E+00  9.000E+00
      21     1     1     2   502   512 -3.257739609E+01 -7.005697369E+01 -1.393682299E+02  1.593510897E+02  1.907348633E-06  0.00000E+00  9.000E+00
#rwgt            1           1   2.8457991988139576E-002          10      269473           0
</event>
<event>
      5   9999  3.19816E-02  4.89171E+01 -1.00000E+00  1.39620E-01
      21    -1     0     0   502   501  0.000000000E+00  0.000000000E+00  5.531841687E+02  5.531841687E+02  0.000000000E+00  0.00000E+00  9.000E+00
      21    -1     0     0   511   502  0.000000000E+00  0.000000000E+00 -2.757382609E+02  2.757382609E+02  0.000000000E+00  0.00000E+00  9.000E+00
      25     1     1     2     0     0  1.349411214E+02 -1.480279815E+00 -1.925739063E+02  2.663099826E+02  1.250000000E+02  0.00000E+00  9.000E+00
      25     1     1     2     0     0 -1.817062334E+02 -1.286930124E+01  4.632445983E+02  5.132283430E+02  1.250000000E+02  0.00000E+00  9.000E+00
      21     1     1     2   511   501  4.676511207E+01  1.434958105E+01  6.775215754E+00  4.938410404E+01  1.018524616E-06  0.00000E+00  9.000E+00
#rwgt            1           1   3.1242181098068110E-002          10      269582           0
</event>
<event>
      5   9999  3.19816E-02  3.74103E+02 -1.00000E+00  1.02568E-01
      21    -1     0     0   502   501  0.000000000E+00  0.000000000E+00  8.091364884E+02  8.091364884E+02  0.000000000E+00  0.00000E+00  9.000E+00
       2    -1     0     0   501     0  0.000000000E+00  0.000000000E+00 -2.201416248E+03  2.201416248E+03  0.000000000E+00  0.00000E+00  9.000E+00
      25     1     1     2     0     0  7.189686921E+02  2.637219128E+02 -2.127585804E+01  7.762363620E+02  1.250000000E+02  0.00000E+00  9.000E+00
      25     1     1     2     0     0 -9.655683256E+02 -5.450437984E+02 -3.860358946E+02  1.180696255E+03  1.250000000E+02  0.00000E+00  9.000E+00
       2     1     1     2   502     0  2.465996334E+02  2.813218856E+02 -9.849680070E+02  1.053620120E+03  1.078959322E-05  0.00000E+00  9.000E+00
#rwgt            2          13   1.7955257149785294E-003          10      269752           0
</event>
<event>
      5   9999  3.19816E-02  1.21579E+01 -1.00000E+00  1.86433E-01
      21    -1     0     0   502   511  0.000000000E+00  0.000000000E+00  1.689178728E+03  1.689178728E+03  0.000000000E+00  0.00000E+00  9.000E+00
      21    -1     0     0   501   502  0.000000000E+00  0.000000000E+00 -1.275467507E+02  1.275467507E+02  0.000000000E+00  0.00000E+00  9.000E+00
      25     1     1     2     0     0  3.144686002E+02  1.374692376E+02  4.720954734E+02  5.968981721E+02  1.250000000E+02  0.00000E+00  9.000E+00
      25     1     1     2     0     0 -3.054944534E+02 -1.456716649E+02  4.348886853E+02  5.650666010E+02  1.250000000E+02  0.00000E+00  9.000E+00
      21     1     1     2   501   511 -8.974146869E+00  8.202427366E+00  6.546478190E+02  6.547607059E+02  1.321449896E-05  0.00000E+00  9.000E+00
#rwgt            1           1   2.7871535604925862E-002          10      269771           0
</event>
<event>
      5   9999  3.19816E-02  4.80496E+01 -1.00000E+00  1.40069E-01
      21    -1     0     0   502   512  0.000000000E+00  0.000000000E+00  4.122536466E+02  4.122536466E+02  0.000000000E+00  0.00000E+00  9.000E+00
      21    -1     0     0   501   502  0.000000000E+00  0.000000000E+00 -1.855718345E+02  1.855718345E+02  0.000000000E+00  0.00000E+00  9.000E+00
      25     1     1     2     0     0 -2.049134472E+01  1.654959265E+02  1.740274755E+02  2.715130920E+02  1.250000000E+02  0.00000E+00  9.000E+00
      25     1     1     2     0     0 -1.206566820E+01 -2.008343697E+02 -2.162131908E+01  2.378497547E+02  1.250000000E+02  0.00000E+00  9.000E+00
      21     1     1     2   501   512  3.255701291E+01  3.533844319E+01  7.427565570E+01  8.846263441E+01  9.536743164E-07  0.00000E+00  9.000E+00
#rwgt            1           1   2.6518058463842354E-002          10      269996           0
</event>
<event>
      5   9999  3.19816E-02  3.35519E+01 -1.00000E+00  1.49739E-01
      21    -1     0     0   502   501  0.000000000E+00  0.000000000E+00  2.944641222E+02  2.944641222E+02  0.000000000E+00  0.00000E+00  9.000E+00
      21    -1     0     0   511   502  0.000000000E+00  0.000000000E+00 -1.303353730E+03  1.303353730E+03  0.000000000E+00  0.00000E+00  9.000E+00
      25     1     1     2     0     0  3.713973758E+01 -1.581675491E+02 -2.460343784E+02  3.202409234E+02  1.250000000E+02  0.00000E+00  9.000E+00
      25     1     1     2     0     0 -2.586971109E+01  1.265650599E+02  2.256527105E+02  2.884997437E+02  1.250000000E+02  0.00000E+00  9.000E+00
      21     1     1     2   511   501 -1.127002649E+01  3.160248916E+01 -9.885079395E+02  9.890771847E+02  1.525878906E-05  0.00000E+00  9.000E+00
#rwgt            1           1   2.8086111273105997E-002          10      270054           0
</event>
<event>
      5   9999  3.19816E-02  3.87774E+01 -1.00000E+00  1.45681E-01
      21    -1     0     0   502   512  0.000000000E+00  0.000000000E+00  1.487810566E+02  1.487810566E+02  0.000000000E+00  0.00000E+00  9.000E+00
      21    -1     0     0   501   502  0.000000000E+00  0.000000000E+00 -4.911282388E+02  4.911282388E+02  0.000000000E+00  0.00000E+00  9.000E+00
      25     1     1     2     0     0  1.518967666E+02 -9.351258534E+01 -2.993404936E+02  3.701985446E+02  1.250000000E+02  0.00000E+00  9.000E+00
      25     1     1     2     0     0 -1.324001377E+02  1.270322885E+02 -5.571848458E+01  2.289029233E+02  1.250000000E+02  0.00000E+00  9.000E+00
      21     1     1     2   501   512 -1.949662893E+01 -3.351970314E+01  1.271179593E+01  4.080782760E+01  2.384185791E-07  0.00000E+00  9.000E+00
#rwgt            1           1   3.3384399090640476E-002          10      270158           0
</event>
<event>
      5   9999  3.19816E-02  3.09805E+02 -1.00000E+00  1.05140E-01
      21    -1     0     0   502   511  0.000000000E+00  0.000000000E+00  6.556451427E+02  6.556451427E+02  0.000000000E+00  0.00000E+00  9.000E+00
      21    -1     0     0   501   502  0.000000000E+00  0.000000000E+00 -2.706109291E+02  2.706109291E+02  0.000000000E+00  0.00000E+00  9.000E+00
      25     1     1     2     0     0  2.534482642E+00  3.341822078E+02  1.927088517E+02  4.055192636E+02  1.250000000E+02  0.00000E+00  9.000E+00
      25     1     1     2     0     0 -7.958262388E+01 -3.411105595E+01 -7.218914629E+00  1.522303219E+02  1.250000000E+02  0.00000E+00  9.000E+00
      21     1     1     2   501   511  7.704814124E+01 -3.000711518E+02  1.995442765E+02  3.685064864E+02  0.000000000E+00  0.00000E+00  9.000E+00
#rwgt            1           1   3.0842541602539807E-002          10      270234           0
</event>
<event>
      5   9999  3.19816E-02  4.87064E+02 -1.00000E+00  9.91765E-02
      21    -1     0     0   502   501  0.000000000E+00  0.000000000E+00  1.587939372E+03  1.587939372E+03  0.000000000E+00  0.00000E+00  9.000E+00
      21    -1     0     0   501   512  0.000000000E+00  0.000000000E+00 -2.082221067E+02  2.082221067E+02  0.000000000E+00  0.00000E+00  9.000E+00
      25     1     1     2     0     0  2.805644206E+02 -2.463932010E+01  5.986074570E+02  6.732602601E+02  1.250000000E+02  0.00000E+00  9.000E+00
      25     1     1     2     0     0  1.120657136E+02 -2.635849760E+02  3.795332378E+02  4.916362907E+02  1.250000000E+02  0.00000E+00  9.000E+00
      21     1     1     2   502   512 -3.926301342E+02  2.882242961E+02  4.015765700E+02  6.312649275E+02  9.344061824E-06  0.00000E+00  9.000E+00
#rwgt            2          11   3.3394812152836469E-003          10      270364           0
</event>
<event>
      5   9999  3.19816E-02  8.97200E+01 -1.00000E+00  1.25985E-01
      21    -1     0     0   502   501  0.000000000E+00  0.000000000E+00  8.610562790E+02  8.610562790E+02  0.000000000E+00  0.00000E+00  9.000E+00
      21    -1     0     0   511   502  0.000000000E+00  0.000000000E+00 -1.323791277E+03  1.323791277E+03  0.000000000E+00  0.00000E+00  9.000E+00
      25     1     1     2     0     0  1.075708599E+02  5.821395727E+02  3.775630375E+02  7.131877868E+02  1.250000000E+02  0.00000E+00  9.000E+00
      25     1     1     2     0     0 -1.964219415E+02 -5.945961911E+02 -1.215381329E+01  6.386696523E+02  1.250000000E+02  0.00000E+00  9.000E+00
      21     1     1     2   511   501  8.885108161E+01  1.245661844E+01 -8.281442218E+02  8.329901165E+02  1.525878906E-05  0.00000E+00  9.000E+00
#rwgt            1           1   2.9008387235110209E-002          10      270399           0
</event>
<event>
      5   9999  3.19816E-02  7.13688E+01 -1.00000E+00  1.30796E-01
      21    -1     0     0   512   501  0.000000000E+00  0.000000000E+00  4.289860832E+02  4.289860832E+02  0.000000000E+00  0.00000E+00  9.000E+00
      21    -1     0     0   501   502  0.000000000E+00  0.000000000E+00 -8.782670231E+02  8.782670231E+02  0.000000000E+00  0.00000E+00  9.000E+00
      25     1     1     2     0     0  1.238426481E+01 -1.313733886E+02  1.044012176E+02  2.096114297E+02  1.250000000E+02  0.00000E+00  9.000E+00
      25     1     1     2     0     0  4.871754118E+01  9.449423347E+01 -8.126331981E+02  8.290357493E+02  1.250000000E+02  0.00000E+00  9.000E+00
      21     1     1     2   512   502 -6.110180600E+01  3.687915511E+01  2.589510406E+02  2.686059273E+02  5.394796609E-06  0.00000E+00  9.000E+00
#rwgt            1           1   2.6100739046922755E-002          10      270457           0
</event>
<event>
      5   9999  3.19816E-02  3.81378E+01 -1.00000E+00  1.46136E-01
      21    -1     0     0   502   511  0.000000000E+00  0.000000000E+00  1.112567660E+03  1.112567660E+03  0.000000000E+00  0.00000E+00  9.000E+00
      21    -1     0     0   501   502  0.000000000E+00  0.000000000E+00 -9.248900792E+02  9.248900792E+02  0.000000000E+00  0.00000E+00  9.000E+00
      25     1     1     2     0     0 -4.809851452E+02 -2.329885747E+02  8.990782839E+02  1.053374172E+03  1.250000000E+02  0.00000E+00  9.000E+00
      25     1     1     2     0     0  4.460974753E+02  2.175825427E+02 -7.637022833E+02  9.193537393E+02  1.250000000E+02  0.00000E+00  9.000E+00
      21     1     1     2   501   511  3.488766984E+01  1.540603201E+01  5.230158069E+01  6.472982830E+01  6.743495762E-07  0.00000E+00  9.000E+00
#rwgt            1           1   3.5032794171083355E-002          10      270533           0
</event>
<event>
      5   9999  3.19816E-02  1.54253E+01 -1.00000E+00  1.76247E-01
      21    -1     0     0   502   512  0.000000000E+00  0.000000000E+00  6.742074466E+01  6.742074466E+01  0.000000000E+00  0.00000E+00  9.000E+00
      21    -1     0     0   501   502  0.000000000E+00  0.000000000E+00 -3.809694445E+02  3.809694445E+02  0.000000000E+00  0.00000E+00  9.000E+00
      25     1     1     2     0     0 -4.763655997E+01  2.794353387E+01 -5.567195523E+01  1.475616804E+02  1.250000000E+02  0.00000E+00  9.000E+00
      25     1     1     2     0     0  4.336177319E+01 -1.312238516E+01 -2.507883232E+02  2.838524677E+02  1.250000000E+02  0.00000E+00  9.000E+00
      21     1     1     2   501   512  4.274786781E+00 -1.482114871E+01 -7.088421396E+00  1.697604103E+01  8.429369702E-08  0.00000E+00  9.000E+00
#rwgt            1           1   5.8196690629651909E-002          10      270699           0
</event>
<event>
      5   9999  3.19816E-02  4.17551E+01 -1.00000E+00  1.43693E-01
      21    -1     0     0   502   501  0.000000000E+00  0.000000000E+00  3.616574911E+02  3.616574911E+02  0.000000000E+00  0.00000E+00  9.000E+00
      21    -1     0     0   501   511  0.000000000E+00  0.000000000E+00 -2.582810821E+02  2.582810821E+02  0.000000000E+00  0.00000E+00  9.000E+00
      25     1     1     2     0     0 -7.709009918E+00 -1.171156895E+02  2.904719434E+02  3.373047042E+02  1.250000000E+02  0.00000E+00  9.000E+00
      25     1     1     2     0     0  1.555689729E+01  7.610472662E+01 -7.960842005E+01  1.673213884E+02  1.250000000E+02  0.00000E+00  9.000E+00
      21     1     1     2   502   511 -7.847887376E+00  4.101096292E+01 -1.074871144E+02  1.153124806E+02  1.348699152E-06  0.00000E+00  9.000E+00
#rwgt            1           1   2.8308719562659873E-002          10      270822           0
</event>
<event>
      5   9999  3.19816E-02  1.40333E+02 -1.00000E+00  1.17552E-01
      21    -1     0     0   502   501  0.000000000E+00  0.000000000E+00  2.240258613E+02  2.240258613E+02  0.000000000E+00  0.00000E+00  9.000E+00
      21    -1     0     0   512   502  0.000000000E+00  0.000000000E+00 -2.713473507E+03  2.713473507E+03  0.000000000E+00  0.00000E+00  9.000E+00
      25     1     1     2     0     0  1.701104064E+02 -2.985990823E+02 -2.280316180E+03  2.309451416E+03  1.250000000E+02  0.00000E+00  9.000E+00
      25     1     1     2     0     0 -1.554368324E+02  1.590349052E+02  1.112300318E+02  2.782980954E+02  1.250000000E+02  0.00000E+00  9.000E+00
      21     1     1     2   512   501 -1.467357404E+01  1.395641771E+02 -3.203614973E+02  3.497498567E+02  5.394796609E-06  0.00000E+00  9.000E+00
#rwgt            2          11   4.1741203239477982E-003          10      270970           0
</event>
<event>
      5   9999  3.19816E-02  1.65049E+01 -1.00000E+00  1.73559E-01
      21    -1     0     0   502   501  0.000000000E+00  0.000000000E+00  1.196620138E+02  1.196620138E+02  0.000000000E+00  0.00000E+00  9.000E+00
      21    -1     0     0   501   511  0.000000000E+00  0.000000000E+00 -9.585847008E+02  9.585847008E+02  0.000000000E+00  0.00000E+00  9.000E+00
      25     1     1     2     0     0 -2.028916865E+02 -4.965039800E+01 -2.021604319E+02  3.164238276E+02  1.250000000E+02  0.00000E+00  9.000E+00
      25     1     1     2     0     0  1.929594963E+02  3.646850751E+01 -1.547496058E+02  2.795277442E+02  1.250000000E+02  0.00000E+00  9.000E+00
      21     1     1     2   502   511  9.932190197E+00  1.318189049E+01 -4.820126493E+02  4.822951428E+02  9.344061824E-06  0.00000E+00  9.000E+00
#rwgt            1           1   2.7977707047488053E-002          10      271035           0
</event>
<event>
      5   9999  3.19816E-02  4.20372E+01 -1.00000E+00  1.43515E-01
       1    -1     0     0   502     0  0.000000000E+00  0.000000000E+00  3.594419619E+02  3.594419619E+02  0.000000000E+00  0.00000E+00  9.000E+00
      21    -1     0     0   501   502  0.000000000E+00  0.000000000E+00 -9.957874389E+02  9.957874389E+02  0.000000000E+00  0.00000E+00  9.000E+00
      25     1     1     2     0     0 -4.638463729E+02  4.942976190E+01 -5.556330697E+02  7.361724439E+02  1.250000000E+02  0.00000E+00  9.000E+00
      25     1     1     2     0     0  4.435768049E+02 -8.625730360E+01 -1.869895409E+02  5.047680583E+02  1.250000000E+02  0.00000E+00  9.000E+00
       1     1     1     2   501     0  2.026956797E+01  3.682754170E+01  1.062771336E+02  1.142888986E+02  1.348699152E-06  0.00000E+00  9.000E+00
#rwgt            1           1   2.8668686006239872E-002          10      271174           0
</event>
<event>
      5   9999  3.19816E-02  1.46158E+02 -1.00000E+00  1.16842E-01
      21    -1     0     0   502   501  0.000000000E+00  0.000000000E+00  7.712066873E+02  7.712066873E+02  0.000000000E+00  0.00000E+00  9.000E+00
      21    -1     0     0   501   511  0.000000000E+00  0.000000000E+00 -4.036924870E+02  4.036924870E+02  0.000000000E+00  0.00000E+00  9.000E+00
      25     1     1     2     0     0 -8.991811567E+01 -1.945977880E+02  3.533971200E+02  4.318195122E+02  1.250000000E+02  0.00000E+00  9.000E+00
      25     1     1     2     0     0  1.293024620E+02  5.384644193E+01  3.386212071E+02  3.871794001E+02  1.250000000E+02  0.00000E+00  9.000E+00
      21     1     1     2   502   511 -3.938434628E+01  1.407513461E+02 -3.245041269E+02  3.559002620E+02  0.000000000E+00  0.00000E+00  9.000E+00
#rwgt            2          11   1.0500554485827721E-002          10      271410           0
</event>
<event>
      5   9999  3.19816E-02  3.09855E+01 -1.00000E+00  1.52071E-01
      21    -1     0     0   502   501  0.000000000E+00  0.000000000E+00  6.514394503E+01  6.514394503E+01  0.000000000E+00  0.00000E+00  9.000E+00
       2    -1     0     0   501     0  0.000000000E+00  0.000000000E+00 -2.102250111E+03  2.102250111E+03  0.000000000E+00  0.00000E+00  9.000E+00
      25     1     1     2     0     0 -4.083323852E+01 -1.329816392E+02 -4.009619146E+02  4.424329629E+02  1.250000000E+02  0.00000E+00  9.000E+00
      25     1     1     2     0     0  3.377910962E+01  1.028097800E+02 -1.101848660E+02  1.986871505E+02  1.250000000E+02  0.00000E+00  9.000E+00
       2     1     1     2   502     0  7.054128906E+00  3.017185926E+01 -1.525959386E+03  1.526273943E+03  2.157918644E-05  0.00000E+00  9.000E+00
#rwgt            1           1   3.5301534356050122E-002          10      271445           0
</event>
<event>
      5   9999  3.19816E-02  2.23798E+01 -1.00000E+00  1.62439E-01
      21    -1     0     0   502   501  0.000000000E+00  0.000000000E+00  7.689785277E+02  7.689785277E+02  0.000000000E+00  0.00000E+00  9.000E+00
      21    -1     0     0   511   502  0.000000000E+00  0.000000000E+00 -1.025692282E+02  1.025692282E+02  0.000000000E+00  0.00000E+00  9.000E+00
      25     1     1     2     0     0  1.314701635E+02 -5.815705852E+01  5.239078786E+02  5.574684857E+02  1.250000000E+02  0.00000E+00  9.000E+00
      25     1     1     2     0     0 -1.348261117E+02  3.603032200E+01  1.867260562E+02  2.645144317E+02  1.250000000E+02  0.00000E+00  9.000E+00
      21     1     1     2   511   501  3.355948121E+00  2.212673651E+01 -4.422463528E+01  4.956483856E+01  1.261592536E-06  0.00000E+00  9.000E+00
#rwgt            1           1   2.9517263641795542E-002          10      271547           0
</event>
<event>
      5   9999  3.19816E-02  3.08828E+01 -1.00000E+00  1.52170E-01
      21    -1     0     0   502   512  0.000000000E+00  0.000000000E+00  3.971992657E+02  3.971992657E+02  0.000000000E+00  0.00000E+00  9.000E+00
      21    -1     0     0   501   502  0.000000000E+00  0.000000000E+00 -1.306847692E+02  1.306847692E+02  0.000000000E+00  0.00000E+00  9.000E+00
      25     1     1     2     0     0  2.060070291E+01 -1.405680791E+02  3.817179472E+01  1.930436731E+02  1.250000000E+02  0.00000E+00  9.000E+00
      25     1     1     2     0     0 -2.421947745E+01  1.712381683E+02  2.070568672E+02  2.973325405E+02  1.250000000E+02  0.00000E+00  9.000E+00
      21     1     1     2   501   512  3.618774537E+00 -3.067008925E+01  2.128583459E+01  3.750782129E+01  7.907449699E-07  0.00000E+00  9.000E+00
#rwgt            1           1   2.8215146410013998E-002          10      271633           0
</event>
<event>
      5   9999  3.19816E-02  2.48021E+01 -1.00000E+00  1.59010E-01
      21    -1     0     0   502   501  0.000000000E+00  0.000000000E+00  8.495549548E+02  8.495549548E+02  0.000000000E+00  0.00000E+00  9.000E+00
      21    -1     0     0   501   511  0.000000000E+00  0.000000000E+00 -6.408997844E+01  6.408997844E+01  0.000000000E+00  0.00000E+00  9.000E+00
      25     1     1     2     0     0  3.523553291E+01 -5.597816112E+01  1.215918157E+02  1.865064797E+02  1.250000000E+02  0.00000E+00  9.000E+00
      25     1     1     2     0     0 -2.118591927E+01  3.553916784E+01  6.831517587E+02  6.957249464E+02  1.250000000E+02  0.00000E+00  9.000E+00
      21     1     1     2   502   511 -1.404961364E+01  2.043899328E+01 -1.927859808E+01  3.141350718E+01  9.536743164E-07  0.00000E+00  9.000E+00
#rwgt            1           1   2.4794397915857656E-002          10      271750           0
</event>
<event>
      5   9999  3.19816E-02  9.71414E+01 -1.00000E+00  1.24397E-01
      21    -1     0     0   512   501  0.000000000E+00  0.000000000E+00  3.349962038E+02  3.349962038E+02  0.000000000E+00  0.00000E+00  9.000E+00
      21    -1     0     0   501   502  0.000000000E+00  0.000000000E+00 -8.790715484E+02  8.790715484E+02  0.000000000E+00  0.00000E+00  9.000E+00
      25     1     1     2     0     0  4.670351400E+01 -2.735369612E+02  6.603252835E+01  3.114305414E+02  1.250000000E+02  0.00000E+00  9.000E+00
      25     1     1     2     0     0 -5.571514895E+01  1.768144695E+02 -7.211997566E+02  7.550639862E+02  1.250000000E+02  0.00000E+00  9.000E+00
      21     1     1     2   512   502  9.011634951E+00  9.672249169E+01  1.110918837E+02  1.475732245E+02  1.907348633E-06  0.00000E+00  9.000E+00
#rwgt            1           1   2.8740161832814016E-002          10      271830           0
</event>
<event>
      5   9999  3.19816E-02  1.01520E+02 -1.00000E+00  1.23534E-01
      21    -1     0     0   502   501  0.000000000E+00  0.000000000E+00  8.789807012E+02  8.789807012E+02  0.000000000E+00  0.00000E+00  9.000E+00
      21    -1     0     0   501   511  0.000000000E+00  0.000000000E+00 -4.798414598E+02  4.798414598E+02  0.000000000E+00  0.00000E+00  9.000E+00
      25     1     1     2     0     0 -6.185697139E+02 -3.982533231E+00  3.543327771E+02  7.237548400E+02  1.250000000E+02  0.00000E+00  9.000E+00
      25     1     1     2     0     0  5.170655277E+02  2.218991759E+00  3.784569307E+01  5.333094602E+02  1.250000000E+02  0.00000E+00  9.000E+00
      21     1     1     2   502   511  1.015041863E+02  1.763541473E+00  6.960771305E+00  1.017578608E+02  5.397430145E-07  0.00000E+00  9.000E+00
#rwgt            1           1   2.2785427986804583E-002          10      271912           0
</event>
<event>
      5   9999  3.19816E-02  5.50648E+01 -1.00000E+00  1.36726E-01
      21    -1     0     0   502   501  0.000000000E+00  0.000000000E+00  3.784078251E+02  3.784078251E+02  0.000000000E+00  0.00000E+00  9.000E+00
       2    -1     0     0   501     0  0.000000000E+00  0.000000000E+00 -2.954272763E+03  2.954272763E+03  0.000000000E+00  0.00000E+00  9.000E+00
      25     1     1     2     0     0  8.267381854E+01  6.800670462E+01  2.836265835E+02  3.279160121E+02  1.250000000E+02  0.00000E+00  9.000E+00
      25     1     1     2     0     0 -1.354536339E+02 -5.230868758E+01 -5.444989435E+01  1.991825212E+02  1.250000000E+02  0.00000E+00  9.000E+00
       2     1     1     2   502     0  5.277981539E+01 -1.569801704E+01 -2.805041627E+03  2.805582055E+03  3.051757812E-05  0.00000E+00  9.000E+00
#rwgt            1           1   2.6681978496164830E-002          10      271973           0
</event>
<event>
      5   9999  3.19816E-02  1.86479E+01 -1.00000E+00  1.68917E-01
      21    -1     0     0   502   501  0.000000000E+00  0.000000000E+00  1.351355208E+03  1.351355208E+03  0.000000000E+00  0.00000E+00  9.000E+00
      21    -1     0     0   501   511  0.000000000E+00  0.000000000E+00 -2.262362703E+02  2.262362703E+02  0.000000000E+00  0.00000E+00  9.000E+00
      25     1     1     2     0     0 -2.761851084E+02 -3.731182456E+02  8.968592621E+02  1.017583891E+03  1.250000000E+02  0.00000E+00  9.000E+00
      25     1     1     2     0     0  2.803288895E+02  3.549365522E+02  2.497391486E+02  5.315626818E+02  1.250000000E+02  0.00000E+00  9.000E+00
      21     1     1     2   502   511 -4.143781150E+00  1.818169348E+01 -2.147947286E+01  2.844490560E+01  4.129530925E-07  0.00000E+00  9.000E+00
#rwgt            1           1   2.9494534117133649E-002          10      272069           0
</event>
<event>
      5   9999  3.19816E-02  7.98098E+01 -1.00000E+00  1.28400E-01
      21    -1     0     0   502   501  0.000000000E+00  0.000000000E+00  2.510042609E+02  2.510042609E+02  0.000000000E+00  0.00000E+00  9.000E+00
       2    -1     0     0   501     0  0.000000000E+00  0.000000000E+00 -4.635658991E+02  4.635658991E+02  0.000000000E+00  0.00000E+00  9.000E+00
      25     1     1     2     0     0  2.229816525E+02  1.363677629E+01 -1.377758924E+02  2.907128748E+02  1.250000000E+02  0.00000E+00  9.000E+00
      25     1     1     2     0     0 -2.921042333E+02  2.625897100E+01 -6.586223186E+00  3.188773981E+02  1.250000000E+02  0.00000E+00  9.000E+00
       2     1     1     2   502     0  6.912258073E+01 -3.989574730E+01 -6.819952260E+01  1.049798871E+02  1.348699152E-06  0.00000E+00  9.000E+00
#rwgt            1           1   3.1631507865932752E-002          10      272240           0
</event>
<event>
      5   9999  3.19816E-02  3.18549E+01 -1.00000E+00  1.51252E-01
      21    -1     0     0   511   501  0.000000000E+00  0.000000000E+00  4.564511170E+02  4.564511170E+02  0.000000000E+00  0.00000E+00  9.000E+00
      21    -1     0     0   501   502  0.000000000E+00  0.000000000E+00 -3.223458871E+02  3.223458871E+02  0.000000000E+00  0.00000E+00  9.000E+00
      25     1     1     2     0     0  3.409120508E+01 -3.065426454E+02 -1.116596392E+02  3.510320195E+02  1.250000000E+02  0.00000E+00  9.000E+00
      25     1     1     2     0     0 -5.864842446E+01  2.862527540E+02  2.168651694E+02  3.847541794E+02  1.250000000E+02  0.00000E+00  9.000E+00
      21     1     1     2   511   502  2.455721938E+01  2.028989141E+01  2.889969976E+01  4.301080519E+01  6.743495762E-07  0.00000E+00  9.000E+00
#rwgt            1           1   2.8643138600292654E-002          10      272321           0
</event>
<event>
      5   9999  3.19816E-02  8.93168E+01 -1.00000E+00  1.26076E-01
      21    -1     0     0   502   501  0.000000000E+00  0.000000000E+00  1.787661414E+02  1.787661414E+02  0.000000000E+00  0.00000E+00  9.000E+00
      -2    -1     0     0     0   502  0.000000000E+00  0.000000000E+00 -2.649354370E+02  2.649354370E+02  0.000000000E+00  0.00000E+00  9.000E+00
      25     1     1     2     0     0 -2.581618361E+01 -9.135042011E+00 -6.082804520E+01  1.416861864E+02  1.250000000E+02  0.00000E+00  9.000E+00
      25     1     1     2     0     0 -2.960445942E+01  7.917825313E+01  7.430247194E+01  1.682007049E+02  1.250000000E+02  0.00000E+00  9.000E+00
      -2     1     1     2     0   501  5.542064303E+01 -7.004321112E+01 -9.964372232E+01  1.338146871E+02  0.000000000E+00  0.00000E+00  9.000E+00
#rwgt            1           1   3.6105187903162334E-002          10      272463           0
</event>
<event>
      5   9999  3.19816E-02  1.66014E+01 -1.00000E+00  1.73332E-01
      21    -1     0     0   502   501  0.000000000E+00  0.000000000E+00  3.038454973E+02  3.038454973E+02  0.000000000E+00  0.00000E+00  9.000E+00
      21    -1     0     0   501   511  0.000000000E+00  0.000000000E+00 -3.905582966E+02  3.905582966E+02  0.000000000E+00  0.00000E+00  9.000E+00
      25     1     1     2     0     0 -1.458657227E+01  1.541090112E+02  1.948333730E+02  2.784733356E+02  1.250000000E+02  0.00000E+00  9.000E+00
      25     1     1     2     0     0  2.519472697E+01 -1.668790520E+02 -9.821706146E+01  2.318512097E+02  1.250000000E+02  0.00000E+00  9.000E+00
      21     1     1     2   502   511 -1.060815470E+01  1.277004077E+01 -1.833291108E+02  1.840792486E+02  0.000000000E+00  0.00000E+00  9.000E+00
#rwgt            1           1   2.3476052570858833E-002          10      272498           0
</event>
<event>
      5   9999  3.19816E-02  3.54037E+02 -1.00000E+00  1.03306E-01
      21    -1     0     0   502   501  0.000000000E+00  0.000000000E+00  5.330710004E+02  5.330710004E+02  0.000000000E+00  0.00000E+00  9.000E+00
      -2    -1     0     0     0   502  0.000000000E+00  0.000000000E+00 -1.330048931E+03  1.330048931E+03  0.000000000E+00  0.00000E+00  9.000E+00
      25     1     1     2     0     0 -5.396227627E+02  4.833220870E+02 -9.982890359E+01  7.418785452E+02  1.250000000E+02  0.00000E+00  9.000E+00
      25     1     1     2     0     0  3.889763892E+02 -1.629352931E+02 -1.408869642E+02  4.618708453E+02  1.250000000E+02  0.00000E+00  9.000E+00
      -2     1     1     2     0   501  1.506463735E+02 -3.203867939E+02 -5.562620630E+02  6.593705410E+02  1.078959322E-05  0.00000E+00  9.000E+00
#rwgt            1           1   2.9317773527555394E-002          10      272642           0
</event>
<event>
      5   9999  3.19816E-02  1.33067E+02 -1.00000E+00  1.18493E-01
      21    -1     0     0   502   511  0.000000000E+00  0.000000000E+00  9.156388269E+02  9.156388269E+02  0.000000000E+00  0.00000E+00  9.000E+00
      21    -1     0     0   501   502  0.000000000E+00  0.000000000E+00 -2.040364555E+02  2.040364555E+02  0.000000000E+00  0.00000E+00  9.000E+00
      25     1     1     2     0     0 -2.203493192E+02  2.523191635E+01  5.551610705E+02  6.107530485E+02  1.250000000E+02  0.00000E+00  9.000E+00
      25     1     1     2     0     0  1.290722759E+02 -1.220585980E+02 -8.498763872E+01  2.332506216E+02  1.250000000E+02  0.00000E+00  9.000E+00
      21     1     1     2   501   511  9.127704329E+01  9.682668161E+01  2.414289397E+02  2.756716123E+02  3.814697266E-06  0.00000E+00  9.000E+00
#rwgt            2          11   3.1128892382600538E-003          10      272669           0
</event>
<event>
      5   9999  3.19816E-02  2.55911E+02 -1.00000E+00  1.07885E-01
      21    -1     0     0   502   501  0.000000000E+00  0.000000000E+00  2.708645307E+02  2.708645307E+02  0.000000000E+00  0.00000E+00  9.000E+00
      21    -1     0     0   501   512  0.000000000E+00  0.000000000E+00 -1.082747037E+03  1.082747037E+03  0.000000000E+00  0.00000E+00  9.000E+00
      25     1     1     2     0     0 -1.232251605E+02  4.675210043E+01  1.757323580E+02  2.527391160E+02  1.250000000E+02  0.00000E+00  9.000E+00
      25     1     1     2     0     0 -1.189423028E+02  3.598413687E+01 -1.728732413E+02  2.468851698E+02  1.250000000E+02  0.00000E+00  9.000E+00
      21     1     1     2   502   512  2.421674633E+02 -8.273623730E+01 -8.147416231E+02  8.539872819E+02  0.000000000E+00  0.00000E+00  9.000E+00
#rwgt            2          11   3.6585249324811559E-003          10      272749           0
</event>
<event>
      5   9999  4.06692E-02  1.34686E+01 -1.00000E+00  1.81906E-01
      21    -1     0     0   502   501  0.000000000E+00  0.000000000E+00  6.809929745E+01  6.809929745E+01  0.000000000E+00  0.00000E+00  9.000E+00
      21    -1     0     0   511   502  0.000000000E+00  0.000000000E+00 -4.493033376E+02  4.493033376E+02  0.000000000E+00  0.00000E+00  9.000E+00
      25     1     1     2     0     0  9.987500901E+01 -1.428811747E+01 -1.271111722E+02  2.048448628E+02  1.250000000E+02  0.00000E+00  9.000E+00
      25     1     1     2     0     0 -8.942884479E+01  2.278986273E+01 -1.823844500E+02  2.395954584E+02  1.250000000E+02  0.00000E+00  9.000E+00
      21     1     1     2   511   501 -1.044616422E+01 -8.501745253E+00 -7.170841805E+01  7.296231382E+01  9.536743164E-07  0.00000E+00  9.000E+00
#rwgt            1           1  0.10454573574867544               10      272769           0
</event>
<event>
      5   9999  3.19816E-02  1.53472E+01 -1.00000E+00  1.76452E-01
      21    -1     0     0   512   501  0.000000000E+00  0.000000000E+00  9.906983932E+01  9.906983932E+01  0.000000000E+00  0.00000E+00  9.000E+00
      21    -1     0     0   501   502  0.000000000E+00  0.000000000E+00 -3.549822299E+02  3.549822299E+02  0.000000000E+00  0.00000E+00  9.000E+00
      25     1     1     2     0     0 -6.557551380E+01  9.118236150E+00 -2.463827543E+02  2.840998977E+02  1.250000000E+02  0.00000E+00  9.000E+00
      25     1     1     2     0     0  7.972058686E+01 -3.163952961E+00 -2.233527286E+01  1.499641523E+02  1.250000000E+02  0.00000E+00  9.000E+00
      21     1     1     2   512   502 -1.414507305E+01 -5.954283189E+00  1.280563665E+01  1.998801916E+01  2.920019320E-07  0.00000E+00  9.000E+00
#rwgt            1           1   4.1978870725749538E-002          10      272970           0
</event>
<event>
      5   9999  3.19816E-02  1.75217E+01 -1.00000E+00  1.71253E-01
      21    -1     0     0   502   511  0.000000000E+00  0.000000000E+00  7.623640303E+02  7.623640303E+02  0.000000000E+00  0.00000E+00  9.000E+00
      21    -1     0     0   501   502  0.000000000E+00  0.000000000E+00 -1.226944122E+02  1.226944122E+02  0.000000000E+00  0.00000E+00  9.000E+00
      25     1     1     2     0     0 -2.083209313E+02 -1.063462654E+02  1.245659134E+02  2.929996679E+02  1.250000000E+02  0.00000E+00  9.000E+00
      25     1     1     2     0     0  1.960175538E+02  1.188216505E+02  4.140227379E+02  4.894704215E+02  1.250000000E+02  0.00000E+00  9.000E+00
      21     1     1     2   501   511  1.230337750E+01 -1.247538509E+01  1.010809668E+02  1.025883531E+02  1.907348633E-06  0.00000E+00  9.000E+00
#rwgt            1           1   3.4057485038266611E-002          10      273130           0
</event>
<event>
      5   9999  3.19816E-02  3.63118E+01 -1.00000E+00  1.47495E-01
      21    -1     0     0   502   501  0.000000000E+00  0.000000000E+00  8.265863229E+02  8.265863229E+02  0.000000000E+00  0.00000E+00  9.000E+00
      21    -1     0     0   512   502  0.000000000E+00  0.000000000E+00 -7.188233264E+02  7.188233264E+02  0.000000000E+00  0.00000E+00  9.000E+00
      25     1     1     2     0     0  1.768954464E+02  1.215300374E+02  7.703104215E+02  8.093606701E+02  1.250000000E+02  0.00000E+00  9.000E+00
      25     1     1     2     0     0 -1.827439686E+02 -1.573677155E+02 -4.952060294E+02  5.648132147E+02  1.250000000E+02  0.00000E+00  9.000E+00
      21     1     1     2   512   501  5.848522180E+00  3.583767808E+01 -1.673413955E+02  1.712357645E+02  0.000000000E+00  0.00000E+00  9.000E+00
#rwgt            1           1   2.4494022108355270E-002          10      273380           0
</event>
<event>
      5   9999  3.19816E-02  2.39744E+01 -1.00000E+00  1.60126E-01
      21    -1     0     0   502   501  0.000000000E+00  0.000000000E+00  1.320023605E+03  1.320023605E+03  0.000000000E+00  0.00000E+00  9.000E+00
      21    -1     0     0   501   511  0.000000000E+00  0.000000000E+00 -7.049147796E+01  7.049147796E+01  0.000000000E+00  0.00000E+00  9.000E+00
      25     1     1     2     0     0 -4.414173736E+01 -9.882747722E+01  1.170997273E+03  1.182613621E+03  1.250000000E+02  0.00000E+00  9.000E+00
      25     1     1     2     0     0  4.318962511E+01  7.487196764E+01  9.462769300E+01  1.790266895E+02  1.250000000E+02  0.00000E+00  9.000E+00
      21     1     1     2   502   511  9.521122446E-01  2.395550957E+01 -1.609283967E+01  2.887477178E+01  8.920806376E-07  0.00000E+00  9.000E+00
#rwgt            1           1   2.9251601900594785E-002          10      273530           0
</event>
<event>
      5   9999  3.19816E-02  1.67922E+02 -1.00000E+00  1.14484E-01
      21    -1     0     0   502   501  0.000000000E+00  0.000000000E+00  4.148571968E+02  4.148571968E+02  0.000000000E+00  0.00000E+00  9.000E+00
      21    -1     0     0   501   512  0.000000000E+00  0.000000000E+00 -9.696406199E+02  9.696406199E+02  0.000000000E+00  0.00000E+00  9.000E+00
      25     1     1     2     0     0  5.778369540E+01  1.361785482E+02  3.051464155E+02  3.614178846E+02  1.250000000E+02  0.00000E+00  9.000E+00
      25     1     1     2     0     0 -1.380076616E+02 -2.836981636E+02 -7.477069565E+02  8.211098924E+02  1.250000000E+02  0.00000E+00  9.000E+00
      21     1     1     2   502   512  8.022396625E+01  1.475196153E+02 -1.122228820E+02  2.019700397E+02  1.348699152E-06  0.00000E+00  9.000E+00
#rwgt            1           1   2.5958575161234853E-002          10      273635           0
</event>
<event>
      5   9999  3.19816E-02  2.65575E+01 -1.00000E+00  1.56810E-01
      21    -1     0     0   502   511  0.000000000E+00  0.000000000E+00  4.076402692E+02  4.076402692E+02  0.000000000E+00  0.00000E+00  9.000E+00
      21    -1     0     0   501   502  0.000000000E+00  0.000000000E+00 -1.107270136E+03  1.107270136E+03  0.000000000E+00  0.00000E+00  9.000E+00
      25     1     1     2     0     0 -5.803597057E+02  2.555782608E+02 -2.499725525E+02  6.929999368E+02  1.250000000E+02  0.00000E+00  9.000E+00
      25     1     1     2     0     0  5.538987737E+02 -2.533156660E+02 -4.770986645E+02  7.837224086E+02  1.250000000E+02  0.00000E+00  9.000E+00
      21     1     1     2   501   511  2.646093204E+01 -2.262594838E+00  2.744134982E+01  3.818806017E+01  8.920806376E-07  0.00000E+00  9.000E+00
#rwgt            1           1   3.1379087373717578E-002          10      273729           0
</event>
<event>
      5   9999  3.19816E-02  1.07072E+02 -1.00000E+00  1.22508E-01
       2    -1     0     0   502     0  0.000000000E+00  0.000000000E+00  1.735180550E+03  1.735180550E+03  0.000000000E+00  0.00000E+00  9.000E+00
      21    -1     0     0   501   502  0.000000000E+00  0.000000000E+00 -1.090912653E+03  1.090912653E+03  0.000000000E+00  0.00000E+00  9.000E+00
      25     1     1     2     0     0  1.306117439E+02 -9.486916345E+02 -4.615297107E+02  1.070378400E+03  1.250000000E+02  0.00000E+00  9.000E+00
      25     1     1     2     0     0 -1.904748788E+02  1.037465887E+03  5.624375777E+02  1.201905643E+03  1.250000000E+02  0.00000E+00  9.000E+00
       2     1     1     2   501     0  5.986313492E+01 -8.877425263E+01  5.433600301E+02  5.538091595E+02  7.629394531E-06  0.00000E+00  9.000E+00
#rwgt            2          18   1.4750228146683795E-003          10      273843           0
</event>
<event>
      5   9999  3.19816E-02  2.05656E+02 -1.00000E+00  1.11209E-01
      21    -1     0     0   502   501  0.000000000E+00  0.000000000E+00  2.219245190E+02  2.219245190E+02  0.000000000E+00  0.00000E+00  9.000E+00
       2    -1     0     0   501     0  0.000000000E+00  0.000000000E+00 -6.108018267E+02  6.108018267E+02  0.000000000E+00  0.00000E+00  9.000E+00
      25     1     1     2     0     0  1.210444983E+01  2.409331742E+02 -2.886145427E+01  2.732275529E+02  1.250000000E+02  0.00000E+00  9.000E+00
      25     1     1     2     0     0  1.350634953E+02 -9.728060871E+01 -2.531215336E+02  3.277211854E+02  1.250000000E+02  0.00000E+00  9.000E+00
       2     1     1     2   502     0 -1.471679452E+02 -1.436525654E+02 -1.068943198E+02  2.317776073E+02  4.862803949E-06  0.00000E+00  9.000E+00
#rwgt            2          13   2.5507826127662783E-004          10      273862           0
</event>
<event>
      5   9999  3.19816E-02  1.05240E+02 -1.00000E+00  1.22838E-01
       2    -1     0     0   502     0  0.000000000E+00  0.000000000E+00  1.869054036E+03  1.869054036E+03  0.000000000E+00  0.00000E+00  9.000E+00
      21    -1     0     0   501   502  0.000000000E+00  0.000000000E+00 -1.153492488E+02  1.153492488E+02  0.000000000E+00  0.00000E+00  9.000E+00
      25     1     1     2     0     0 -6.536705504E+01 -1.076455143E+02 -2.623224429E+01  1.793698394E+02  1.250000000E+02  0.00000E+00  9.000E+00
      25     1     1     2     0     0  8.962740563E+01  5.239631810E+00  5.662365330E+02  5.867787802E+02  1.250000000E+02  0.00000E+00  9.000E+00
       2     1     1     2   501     0 -2.426035060E+01  1.024058825E+02  1.213700499E+03  1.218254665E+03  0.000000000E+00  0.00000E+00  9.000E+00
#rwgt            1           1   2.9165963748309667E-002          10      273881           0
</event>
<event>
      5   9999  3.19816E-02  1.01115E+01 -1.00000E+00  1.95202E-01
      21    -1     0     0   502   501  0.000000000E+00  0.000000000E+00  3.577074565E+02  3.577074565E+02  0.000000000E+00  0.00000E+00  9.000E+00
      21    -1     0     0   511   502  0.000000000E+00  0.000000000E+00 -1.470974968E+02  1.470974968E+02  0.000000000E+00  0.00000E+00  9.000E+00
      25     1     1     2     0     0 -1.093612309E+02  1.119722093E+01  2.040206686E+02  2.633148112E+02  1.250000000E+02  0.00000E+00  9.000E+00
      25     1     1     2     0     0  1.032345646E+02 -1.924130928E+01  6.974493494E+01  1.775301644E+02  1.250000000E+02  0.00000E+00  9.000E+00
      21     1     1     2   511   501  6.126666216E+00  8.044088353E+00 -6.315564382E+01  6.395997767E+01  9.536743164E-07  0.00000E+00  9.000E+00
#rwgt            1           1   2.0827939558633823E-002          10      273940           0
</event>
<event>
      5   9999  3.19816E-02  7.43333E+01 -1.00000E+00  1.29913E-01
      21    -1     0     0   502   512  0.000000000E+00  0.000000000E+00  3.711528084E+02  3.711528084E+02  0.000000000E+00  0.00000E+00  9.000E+00
      21    -1     0     0   501   502  0.000000000E+00  0.000000000E+00 -3.681003506E+02  3.681003506E+02  0.000000000E+00  0.00000E+00  9.000E+00
      25     1     1     2     0     0  7.024828126E+01  1.682770358E+02 -6.474240760E+01  2.303661458E+02  1.250000000E+02  0.00000E+00  9.000E+00
      25     1     1     2     0     0 -3.579393481E+01 -1.024110296E+02 -1.833309629E+02  2.469908232E+02  1.250000000E+02  0.00000E+00  9.000E+00
      21     1     1     2   501   512 -3.445434645E+01 -6.586600614E+01  2.511258283E+02  2.618961901E+02  5.394796609E-06  0.00000E+00  9.000E+00
#rwgt            1           1   2.5798856286195115E-002          10      274120           0
</event>
<event>
      5   9999  3.19816E-02  2.00307E+01 -1.00000E+00  1.66314E-01
      21    -1     0     0   502   501  0.000000000E+00  0.000000000E+00  1.368865607E+02  1.368865607E+02  0.000000000E+00  0.00000E+00  9.000E+00
      21    -1     0     0   501   511  0.000000000E+00  0.000000000E+00 -2.691288003E+02  2.691288003E+02  0.000000000E+00  0.00000E+00  9.000E+00
      25     1     1     2     0     0 -1.141336701E+02  3.441455356E+01 -8.840246831E+01  1.940382760E+02  1.250000000E+02  0.00000E+00  9.000E+00
      25     1     1     2     0     0  1.332364760E+02 -4.044038449E+01 -3.649132445E+01  1.906410239E+02  1.250000000E+02  0.00000E+00  9.000E+00
      21     1     1     2   502   511 -1.910280597E+01  6.025830928E+00 -7.348446761E+00  2.133606112E+01  3.475518164E-07  0.00000E+00  9.000E+00
#rwgt            1           1   2.4299174517653708E-002          10      274215           0
</event>
<event>
      5   9999  3.19816E-02  1.18390E+02 -1.00000E+00  1.20618E-01
      21    -1     0     0   512   501  0.000000000E+00  0.000000000E+00  1.999282865E+02  1.999282865E+02  0.000000000E+00  0.00000E+00  9.000E+00
      21    -1     0     0   501   502  0.000000000E+00  0.000000000E+00 -6.076839825E+02  6.076839825E+02  0.000000000E+00  0.00000E+00  9.000E+00
      25     1     1     2     0     0 -1.308395451E+02  1.348386944E+01 -4.462992443E+02  4.817767292E+02  1.250000000E+02  0.00000E+00  9.000E+00
      25     1     1     2     0     0  3.592044109E+01 -8.424068172E+01 -6.549286345E+01  1.682292653E+02  1.250000000E+02  0.00000E+00  9.000E+00
      21     1     1     2   512   502  9.491910403E+01  7.075681228E+01  1.040364118E+02  1.576062745E+02  2.336015456E-06  0.00000E+00  9.000E+00
#rwgt            1           1   3.0680051444330267E-002          10      274369           0
</event>
<event>
      5   9999  3.19816E-02  1.64346E+02 -1.00000E+00  1.14843E-01
      21    -1     0     0   502   501  0.000000000E+00  0.000000000E+00  7.000633101E+02  7.000633101E+02  0.000000000E+00  0.00000E+00  9.000E+00
      21    -1     0     0   501   511  0.000000000E+00  0.000000000E+00 -5.361372785E+02  5.361372785E+02  0.000000000E+00  0.00000E+00  9.000E+00
      25     1     1     2     0     0 -1.506142004E+02  1.700275638E+02  5.632187794E+02  6.200277440E+02  1.250000000E+02  0.00000E+00  9.000E+00
      25     1     1     2     0     0  2.662943968E+02 -5.328944898E+01 -2.092009663E+02  3.648869900E+02  1.250000000E+02  0.00000E+00  9.000E+00
      21     1     1     2   502   511 -1.156801964E+02 -1.167381149E+02 -1.900917816E+02  2.512858546E+02  4.672030912E-06  0.00000E+00  9.000E+00
#rwgt            1           1   3.0345729702568137E-002          10      274440           0
</event>
<event>
      5   9999  3.19816E-02  1.11878E+02 -1.00000E+00  1.21674E-01
      21    -1     0     0   502   512  0.000000000E+00  0.000000000E+00  5.425687741E+02  5.425687741E+02  0.000000000E+00  0.00000E+00  9.000E+00
      21    -1     0     0   501   502  0.000000000E+00  0.000000000E+00 -8.851535832E+02  8.851535832E+02  0.000000000E+00  0.00000E+00  9.000E+00
      25     1     1     2     0     0  5.373088087E+02 -1.021175946E+02  9.999008664E+01  5.698699646E+02  1.250000000E+02  0.00000E+00  9.000E+00
      25     1     1     2     0     0 -4.281873194E+02  1.268002278E+02 -5.383766816E+02  7.105611371E+02  1.250000000E+02  0.00000E+00  9.000E+00
      21     1     1     2   501   512 -1.091214894E+02 -2.468263320E+01  9.580178580E+01  1.472912556E+02  2.336015456E-06  0.00000E+00  9.000E+00
#rwgt            1           1   2.9699065245003303E-002          10      274472           0
</event>
<event>
      5   9999  3.19816E-02  2.59822E+01 -1.00000E+00  1.57507E-01
      21    -1     0     0   511   501  0.000000000E+00  0.000000000E+00  5.188783425E+02  5.188783425E+02  0.000000000E+00  0.00000E+00  9.000E+00
      21    -1     0     0   501   502  0.000000000E+00  0.000000000E+00 -2.229058907E+02  2.229058907E+02  0.000000000E+00  0.00000E+00  9.000E+00
      25     1     1     2     0     0 -1.977103118E-01 -2.505688848E+02  1.589747981E+02  3.219981235E+02  1.250000000E+02  0.00000E+00  9.000E+00
      25     1     1     2     0     0  2.418236636E+01  2.405782111E+02 -8.168564964E+00  2.723130330E+02  1.250000000E+02  0.00000E+00  9.000E+00
      21     1     1     2   511   502 -2.398465605E+01  9.990673684E+00  1.451662187E+02  1.474730767E+02  1.907348633E-06  0.00000E+00  9.000E+00
#rwgt            1           1   2.7799296589075356E-002          10      274548           0
</event>
<event>
      5   9999  3.19816E-02  1.61227E+02 -1.00000E+00  1.15165E-01
       2    -1     0     0   502     0  0.000000000E+00  0.000000000E+00  7.596409959E+02  7.596409959E+02  0.000000000E+00  0.00000E+00  9.000E+00
      21    -1     0     0   501   502  0.000000000E+00  0.000000000E+00 -1.272399051E+03  1.272399051E+03  0.000000000E+00  0.00000E+00  9.000E+00
      25     1     1     2     0     0 -1.798354174E+02  3.922621095E+02 -7.136997914E+02  8.433283656E+02  1.250000000E+02  0.00000E+00  9.000E+00
      25     1     1     2     0     0  3.370443567E+02 -4.280317044E+02 -3.195277157E+02  6.438423716E+02  1.250000000E+02  0.00000E+00  9.000E+00
       2     1     1     2   501     0 -1.572089393E+02  3.576959495E+01  5.204694519E+02  5.448693099E+02  7.629394531E-06  0.00000E+00  9.000E+00
#rwgt            1           1   3.0141420785378847E-002          10      274666           0
</event>
<event>
      5   9999  3.19816E-02  1.41023E+02 -1.00000E+00  1.17466E-01
      21    -1     0     0   502   501  0.000000000E+00  0.000000000E+00  1.012667266E+03  1.012667266E+03  0.000000000E+00  0.00000E+00  9.000E+00
      21    -1     0     0   501   511  0.000000000E+00  0.000000000E+00 -3.703228094E+02  3.703228094E+02  0.000000000E+00  0.00000E+00  9.000E+00
      25     1     1     2     0     0 -1.571990751E+02 -1.529989762E+02 -1.836940113E+02  3.122318461E+02  1.250000000E+02  0.00000E+00  9.000E+00
      25     1     1     2     0     0  2.932616911E+01  2.124624601E+02  8.840701412E+02  9.182621280E+02  1.250000000E+02  0.00000E+00  9.000E+00
      21     1     1     2   502   511  1.278729060E+02 -5.946348383E+01 -5.803167287E+01  1.524961018E+02  2.523185073E-06  0.00000E+00  9.000E+00
#rwgt            1           1   2.7521112628068257E-002          10      274703           0
</event>
<event>
      5   9999  3.19816E-02  1.88715E+01 -1.00000E+00  1.68478E-01
      21    -1     0     0   502   501  0.000000000E+00  0.000000000E+00  6.349379692E+01  6.349379692E+01  0.000000000E+00  0.00000E+00  9.000E+00
      21    -1     0     0   501   512  0.000000000E+00  0.000000000E+00 -1.388864983E+03  1.388864983E+03  0.000000000E+00  0.00000E+00  9.000E+00
      25     1     1     2     0     0  1.577614206E+02 -5.680684736E+01 -2.321739855E+02  3.124827088E+02  1.250000000E+02  0.00000E+00  9.000E+00
      25     1     1     2     0     0 -1.599934629E+02  3.806786022E+01 -4.365476431E+02  4.829553963E+02  1.250000000E+02  0.00000E+00  9.000E+00
      21     1     1     2   502   512  2.232042244E+00  1.873898715E+01 -6.566495578E+02  6.569206751E+02  1.321449896E-05  0.00000E+00  9.000E+00
#rwgt            1           1   2.5982132963703580E-002          10      274769           0
</event>
<event>
      5   9999  3.19816E-02  9.92671E+01 -1.00000E+00  1.23972E-01
      21    -1     0     0   502   501  0.000000000E+00  0.000000000E+00  2.188000819E+02  2.188000819E+02  0.000000000E+00  0.00000E+00  9.000E+00
      21    -1     0     0   501   511  0.000000000E+00  0.000000000E+00 -5.333761313E+02  5.333761313E+02  0.000000000E+00  0.00000E+00  9.000E+00
      25     1     1     2     0     0 -1.051234043E+02  1.833499523E+02 -8.502688029E-01  2.455480769E+02  1.250000000E+02  0.00000E+00  9.000E+00
      25     1     1     2     0     0  4.196678455E+01 -2.599345721E+02 -1.896712433E+02  3.477461335E+02  1.250000000E+02  0.00000E+00  9.000E+00
      21     1     1     2   502   511  6.315661970E+01  7.658461980E+01 -1.240545373E+02  1.588820028E+02  1.907348633E-06  0.00000E+00  9.000E+00
#rwgt            1           1   2.7929813118034580E-002          10      274913           0
</event>
<event>
      5   9999  3.19816E-02  5.67684E+01 -1.00000E+00  1.36001E-01
      21    -1     0     0   502   501  0.000000000E+00  0.000000000E+00  1.069011675E+02  1.069011675E+02  0.000000000E+00  0.00000E+00  9.000E+00
      21    -1     0     0   501   512  0.000000000E+00  0.000000000E+00 -7.837901195E+02  7.837901195E+02  0.000000000E+00  0.00000E+00  9.000E+00
      25     1     1     2     0     0  1.461499667E+02 -1.127618748E+02 -1.944538555E+02  2.958248723E+02  1.250000000E+02  0.00000E+00  9.000E+00
      25     1     1     2     0     0 -8.945884523E+01  1.098001556E+02 -1.109628480E+02  2.190815209E+02  1.250000000E+02  0.00000E+00  9.000E+00
      21     1     1     2   502   512 -5.669112146E+01  2.961719215E+00 -3.714722485E+02  3.757848938E+02  5.394796609E-06  0.00000E+00  9.000E+00
#rwgt            1           1   2.9256654708405567E-002          10      274968           0
</event>
<event>
      5   9999  3.19816E-02  1.49804E+01 -1.00000E+00  1.77437E-01
      21    -1     0     0   511   501  0.000000000E+00  0.000000000E+00  9.500424118E+01  9.500424118E+01  0.000000000E+00  0.00000E+00  9.000E+00
      21    -1     0     0   501   502  0.000000000E+00  0.000000000E+00 -1.101207419E+03  1.101207419E+03  0.000000000E+00  0.00000E+00  9.000E+00
      25     1     1     2     0     0  2.876194695E+02 -1.011008851E+01 -5.445685442E+02  6.284958810E+02  1.250000000E+02  0.00000E+00  9.000E+00
      25     1     1     2     0     0 -2.774482512E+02  2.110819983E+01 -4.609225789E+02  5.527184744E+02  1.250000000E+02  0.00000E+00  9.000E+00
      21     1     1     2   511   502 -1.017121825E+01 -1.099811132E+01 -7.120548972E-01  1.499730494E+01  3.057462652E-07  0.00000E+00  9.000E+00
#rwgt            1           1   2.8836288527182116E-002          10      275026           0
</event>
<event>
      5   9999  3.19816E-02  1.04928E+02 -1.00000E+00  1.22896E-01
      21    -1     0     0   502   512  0.000000000E+00  0.000000000E+00  7.620506808E+02  7.620506808E+02  0.000000000E+00  0.00000E+00  9.000E+00
      21    -1     0     0   501   502  0.000000000E+00  0.000000000E+00 -2.635295977E+02  2.635295977E+02  0.000000000E+00  0.00000E+00  9.000E+00
      25     1     1     2     0     0  1.067903270E+02  2.060505738E+01  4.900599462E+02  5.173127615E+02  1.250000000E+02  0.00000E+00  9.000E+00
      25     1     1     2     0     0 -6.240004091E+01  7.447023398E+01 -2.117174661E+02  2.643650248E+02  1.250000000E+02  0.00000E+00  9.000E+00
      21     1     1     2   501   512 -4.439028609E+01 -9.507529136E+01  2.201786029E+02  2.439024922E+02  5.394796609E-06  0.00000E+00  9.000E+00
#rwgt            1           1   2.8769541124023863E-002          10      275192           0
</event>
<event>
      5   9999  3.19816E-02  5.76624E+01 -1.00000E+00  1.35632E-01
      21    -1     0     0   502   511  0.000000000E+00  0.000000000E+00  1.141551116E+02  1.141551116E+02  0.000000000E+00  0.00000E+00  9.000E+00
      21    -1     0     0   501   502  0.000000000E+00  0.000000000E+00 -1.294548612E+03  1.294548612E+03  0.000000000E+00  0.00000E+00  9.000E+00
      25     1     1     2     0     0  1.390553450E+02 -9.294147539E+00 -1.069820642E+03  1.086077335E+03  1.250000000E+02  0.00000E+00  9.000E+00
      25     1     1     2     0     0 -1.716575948E+02 -3.826680952E+01 -1.406790301E+02  2.575776933E+02  1.250000000E+02  0.00000E+00  9.000E+00
      21     1     1     2   501   511  3.260224980E+01  4.756095706E+01  3.010617145E+01  6.504869628E+01  2.336015456E-06  0.00000E+00  9.000E+00
#rwgt            1           1   3.0081361367169591E-002          10      275262           0
</event>
<event>
      5   9999  3.19816E-02  7.69852E+00 -1.00000E+00  2.09876E-01
      21    -1     0     0   502   501  0.000000000E+00  0.000000000E+00  2.654952017E+03  2.654952017E+03  0.000000000E+00  0.00000E+00  9.000E+00
      21    -1     0     0   501   512  0.000000000E+00  0.000000000E+00 -2.846221602E+02  2.846221602E+02  0.000000000E+00  0.00000E+00  9.000E+00
      25     1     1     2     0     0 -1.115475326E+02 -2.707672533E+02 -1.801738140E+02  3.658488222E+02  1.250000000E+02  0.00000E+00  9.000E+00
      25     1     1     2     0     0  1.041518324E+02  2.686293001E+02  2.544894478E+03  2.564200111E+03  1.250000000E+02  0.00000E+00  9.000E+00
      21     1     1     2   502   512  7.395700240E+00  2.137953135E+00  5.609192234E+00  9.525243470E+00  1.788139343E-07  0.00000E+00  9.000E+00
#rwgt            1           1   2.7708507440507166E-002          10      275352           0
</event>
<event>
      5   9999  3.19816E-02  1.21657E+01 -1.00000E+00  1.86404E-01
      21    -1     0     0   502   501  0.000000000E+00  0.000000000E+00  2.059542012E+02  2.059542012E+02  0.000000000E+00  0.00000E+00  9.000E+00
      21    -1     0     0   511   502  0.000000000E+00  0.000000000E+00 -4.319022505E+02  4.319022505E+02  0.000000000E+00  0.00000E+00  9.000E+00
      25     1     1     2     0     0  1.295306727E+02  1.796786335E+02  4.686293874E+01  2.586189118E+02  1.250000000E+02  0.00000E+00  9.000E+00
      25     1     1     2     0     0 -1.290494330E+02 -1.675224476E+02 -2.366893621E+02  3.411222372E+02  1.250000000E+02  0.00000E+00  9.000E+00
      21     1     1     2   511   501 -4.812397760E-01 -1.215618587E+01 -3.612162584E+01  3.811530270E+01  4.768371582E-07  0.00000E+00  9.000E+00
#rwgt            1           1   2.8173743023925644E-002          10      275658           0
</event>
<event>
      5   9999  3.19816E-02  8.80126E+00 -1.00000E+00  2.02394E-01
       1    -1     0     0   502     0  0.000000000E+00  0.000000000E+00  2.490022092E+03  2.490022092E+03  0.000000000E+00  0.00000E+00  9.000E+00
      21    -1     0     0   501   502  0.000000000E+00  0.000000000E+00 -5.805632221E+02  5.805632221E+02  0.000000000E+00  0.00000E+00  9.000E+00
      25     1     1     2     0     0  3.367601637E+02  2.702669888E+02 -2.348915355E+02  5.071988629E+02  1.250000000E+02  0.00000E+00  9.000E+00
      25     1     1     2     0     0 -3.352495459E+02 -2.789376423E+02  3.609353053E+01  4.551112053E+02  1.250000000E+02  0.00000E+00  9.000E+00
       1     1     1     2   501     0 -1.510617825E+00  8.670653440E+00  2.108256875E+03  2.108275246E+03  0.000000000E+00  0.00000E+00  9.000E+00
#rwgt            1           1   2.5629769095856670E-002          10      275861           0
</event>
<event>
      5   9999  3.19816E-02  4.08401E+02 -1.00000E+00  1.01415E-01
      21    -1     0     0   502   501  0.000000000E+00  0.000000000E+00  2.406748181E+03  2.406748181E+03  0.000000000E+00  0.00000E+00  9.000E+00
      21    -1     0     0   511   502  0.000000000E+00  0.000000000E+00 -9.271377777E+02  9.271377777E+02  0.000000000E+00  0.00000E+00  9.000E+00
      25     1     1     2     0     0  3.720385435E+02 -4.966982012E+02  1.191745154E+03  1.349445550E+03  1.250000000E+02  0.00000E+00  9.000E+00
      25     1     1     2     0     0  3.631652240E+01  4.905943691E+02  1.023838197E+03  1.142747294E+03  1.250000000E+02  0.00000E+00  9.000E+00
      21     1     1     2   511   501 -4.083550659E+02  6.103832110E+00 -7.359729485E+02  8.416931136E+02  1.868812365E-05  0.00000E+00  9.000E+00
#rwgt            2          11   6.3607477827624520E-003          10      276252           0
</event>
<event>
      5   9999  3.19816E-02  5.32229E+01 -1.00000E+00  1.37545E-01
      21    -1     0     0   502   501  0.000000000E+00  0.000000000E+00  2.767322765E+02  2.767322765E+02  0.000000000E+00  0.00000E+00  9.000E+00
      21    -1     0     0   501   512  0.000000000E+00  0.000000000E+00 -7.025882891E+02  7.025882891E+02  0.000000000E+00  0.00000E+00  9.000E+00
      25     1     1     2     0     0 -8.366324865E+01  2.128405687E+02  1.607619342E+02  3.062189516E+02  1.250000000E+02  0.00000E+00  9.000E+00
      25     1     1     2     0     0  1.318405539E+02 -1.902213611E+02 -3.976171238E+02  4.767499082E+02  1.250000000E+02  0.00000E+00  9.000E+00
      21     1     1     2   502   512 -4.817730523E+01 -2.261920759E+01 -1.890008230E+02  1.963517058E+02  0.000000000E+00  0.00000E+00  9.000E+00
#rwgt            1           1   2.7987981375941565E-002          10      276272           0
</event>
<event>
      5   9999  3.19816E-02  1.81264E+02 -1.00000E+00  1.13226E-01
      21    -1     0     0   502   501  0.000000000E+00  0.000000000E+00  3.208975537E+02  3.208975537E+02  0.000000000E+00  0.00000E+00  9.000E+00
      21    -1     0     0   501   511  0.000000000E+00  0.000000000E+00 -1.292291453E+03  1.292291453E+03  0.000000000E+00  0.00000E+00  9.000E+00
      25     1     1     2     0     0  1.377457605E+02 -5.151508111E+01 -2.506598149E+02  3.163590380E+02  1.250000000E+02  0.00000E+00  9.000E+00
      25     1     1     2     0     0 -1.958589573E+01  1.889736975E+02  2.332553909E+02  3.257725327E+02  1.250000000E+02  0.00000E+00  9.000E+00
      21     1     1     2   502   511 -1.181598648E+02 -1.374586164E+02 -9.539894751E+02  9.710574357E+02  1.525878906E-05  0.00000E+00  9.000E+00
#rwgt            2          11   2.4790602346207091E-003          10      276392           0
</event>
<event>
      5   9999  3.19816E-02  1.04474E+01 -1.00000E+00  1.93585E-01
       3    -1     0     0   502     0  0.000000000E+00  0.000000000E+00  1.281889440E+03  1.281889440E+03  0.000000000E+00  0.00000E+00  9.000E+00
      21    -1     0     0   501   502  0.000000000E+00  0.000000000E+00 -1.044087288E+03  1.044087288E+03  0.000000000E+00  0.00000E+00  9.000E+00
      25     1     1     2     0     0  3.304365388E+02 -3.100622715E+02  1.266046410E+02  4.868065873E+02  1.250000000E+02  0.00000E+00  9.000E+00
      25     1     1     2     0     0 -3.396872719E+02  3.149173238E+02 -7.973483505E+02  9.305642135E+02  1.250000000E+02  0.00000E+00  9.000E+00
       3     1     1     2   501     0  9.250733171E+00 -4.855052322E+00  9.085458618E+02  9.086059270E+02  1.078959322E-05  0.00000E+00  9.000E+00
#rwgt            1           1   3.5385831181723788E-002          10      276427           0
</event>
<event>
      5   9999  3.19816E-02  1.30569E+02 -1.00000E+00  1.18833E-01
       1    -1     0     0   502     0  0.000000000E+00  0.000000000E+00  1.422090764E+03  1.422090764E+03  0.000000000E+00  0.00000E+00  9.000E+00
      21    -1     0     0   501   502  0.000000000E+00  0.000000000E+00 -3.405244523E+02  3.405244523E+02  0.000000000E+00  0.00000E+00  9.000E+00
      25     1     1     2     0     0  2.215501334E+01  1.122276319E+02 -2.518541452E+02  3.035480134E+02  1.250000000E+02  0.00000E+00  9.000E+00
      25     1     1     2     0     0 -1.263348615E+02 -1.909348800E+02  2.294527171E+02  3.474049150E+02  1.250000000E+02  0.00000E+00  9.000E+00
       1     1     1     2   501     0  1.041798481E+02  7.870724808E+01  1.103967739E+03  1.111662287E+03  1.525878906E-05  0.00000E+00  9.000E+00
#rwgt            1           1   2.7114962104506691E-002          10      276642           0
</event>
<event>
      5   9999  3.19816E-02  6.81648E+02 -1.00000E+00  9.51731E-02
      21    -1     0     0   502   501  0.000000000E+00  0.000000000E+00  2.696803628E+03  2.696803628E+03  0.000000000E+00  0.00000E+00  9.000E+00
      21    -1     0     0   501   511  0.000000000E+00  0.000000000E+00 -1.233839032E+03  1.233839032E+03  0.000000000E+00  0.00000E+00  9.000E+00
      25     1     1     2     0     0 -2.685731782E+02  8.457017777E+02 -1.857531230E+02  9.151351111E+02  1.250000000E+02  0.00000E+00  9.000E+00
      25     1     1     2     0     0 -5.548759574E+01 -1.445392285E+03  1.804735477E+03  2.316232474E+03  1.250000000E+02  0.00000E+00  9.000E+00
      21     1     1     2   502   511  3.240607740E+02  5.996905069E+02 -1.560177581E+02  6.992750747E+02  9.344061824E-06  0.00000E+00  9.000E+00
#rwgt            2          11   5.4233995316732694E-003          10      276874           0
</event>
<event>
      5   9999  3.19816E-02  1.51837E+02 -1.00000E+00  1.16185E-01
      21    -1     0     0   502   501  0.000000000E+00  0.000000000E+00  9.503063404E+02  9.503063404E+02  0.000000000E+00  0.00000E+00  9.000E+00
       1    -1     0     0   501     0  0.000000000E+00  0.000000000E+00 -6.078185466E+02  6.078185466E+02  0.000000000E+00  0.00000E+00  9.000E+00
      25     1     1     2     0     0  3.797286731E+02 -3.636863372E+02  4.228048933E+02  6.861855397E+02  1.250000000E+02  0.00000E+00  9.000E+00
      25     1     1     2     0     0 -5.015708997E+02  2.730838988E+02 -2.573168942E+02  6.387371660E+02  1.250000000E+02  0.00000E+00  9.000E+00
       1     1     1     2   502     0  1.218422267E+02  9.060243848E+01  1.769997946E+02  2.332021813E+02  2.697398305E-06  0.00000E+00  9.000E+00
#rwgt            1           1   3.1685051900519394E-002          10      276894           0
</event>
<event>
      5   9999  3.19816E-02  7.51950E+02 -1.00000E+00  9.40653E-02
      21    -1     0     0   502   501  0.000000000E+00  0.000000000E+00  1.323419670E+03  1.323419670E+03  0.000000000E+00  0.00000E+00  9.000E+00
      21    -1     0     0   501   511  0.000000000E+00  0.000000000E+00 -8.720128074E+02  8.720128074E+02  0.000000000E+00  0.00000E+00  9.000E+00
      25     1     1     2     0     0 -2.364981452E+02  4.511543684E+01 -1.117458016E+02  2.933920576E+02  1.250000000E+02  0.00000E+00  9.000E+00
      25     1     1     2     0     0 -5.154149364E+02 -3.767930206E+01  9.254884554E+02  1.067345383E+03  1.250000000E+02  0.00000E+00  9.000E+00
      21     1     1     2   502   511  7.519130815E+02 -7.436134786E+00 -3.623357912E+02  8.346950364E+02  9.344061824E-06  0.00000E+00  9.000E+00
#rwgt            2          11   2.0412855829299906E-003          10      277026           0
</event>
<event>
      5   9999  3.19816E-02  1.34306E+02 -1.00000E+00  1.18328E-01
       2    -1     0     0   502     0  0.000000000E+00  0.000000000E+00  4.528604397E+03  4.528604397E+03  0.000000000E+00  0.00000E+00  9.000E+00
      21    -1     0     0   501   502  0.000000000E+00  0.000000000E+00 -1.138766324E+03  1.138766324E+03  0.000000000E+00  0.00000E+00  9.000E+00
      25     1     1     2     0     0 -8.654491125E+02  1.797363304E+03  1.062260393E+03  2.263523615E+03  1.250000000E+02  0.00000E+00  9.000E+00
      25     1     1     2     0     0  7.929467273E+02 -1.910418809E+03  1.481899747E+03  2.547570685E+03  1.250000000E+02  0.00000E+00  9.000E+00
       2     1     1     2   501     0  7.250238511E+01  1.130555042E+02  8.456779327E+02  8.562764207E+02  0.000000000E+00  0.00000E+00  9.000E+00
#rwgt            1           1   9.0983510696385165E-003          10      277046           0
</event>
<event>
      5   9999  3.19816E-02  1.72806E+01 -1.00000E+00  1.71782E-01
      21    -1     0     0   502   501  0.000000000E+00  0.000000000E+00  4.714197522E+01  4.714197522E+01  0.000000000E+00  0.00000E+00  9.000E+00
       2    -1     0     0   501     0  0.000000000E+00  0.000000000E+00 -9.258450973E+02  9.258450973E+02  0.000000000E+00  0.00000E+00  9.000E+00
      25     1     1     2     0     0 -9.525117070E-01  3.488880215E+01 -6.676455607E+02  6.801424340E+02  1.250000000E+02  0.00000E+00  9.000E+00
      25     1     1     2     0     0  2.372417536E-01 -1.762298720E+01 -5.818839215E+01  1.390018523E+02  1.250000000E+02  0.00000E+00  9.000E+00
       2     1     1     2   502     0  7.152699533E-01 -1.726581495E+01 -1.528691692E+02  1.538427862E+02  1.907348633E-06  0.00000E+00  9.000E+00
#rwgt            1           1   2.6005317912340467E-002          10      277141           0
</event>
<event>
      5   9999  3.19816E-02  2.63150E+02 -1.00000E+00  1.07475E-01
      21    -1     0     0   502   501  0.000000000E+00  0.000000000E+00  1.505489824E+03  1.505489824E+03  0.000000000E+00  0.00000E+00  9.000E+00
       1    -1     0     0   501     0  0.000000000E+00  0.000000000E+00 -2.271614084E+02  2.271614084E+02  0.000000000E+00  0.00000E+00  9.000E+00
      25     1     1     2     0     0  1.147799273E+02 -4.780431210E+02  8.505137867E+02  9.903021552E+02  1.250000000E+02  0.00000E+00  9.000E+00
      25     1     1     2     0     0  8.341414992E+01  3.049329988E+02  2.009142437E+02  3.948842710E+02  1.250000000E+02  0.00000E+00  9.000E+00
       1     1     1     2   502     0 -1.981940772E+02  1.731101222E+02  2.269003847E+02  3.474648057E+02  0.000000000E+00  0.00000E+00  9.000E+00
#rwgt            1           1   2.8429822503636890E-002          10      277288           0
</event>
<event>
      5   9999  3.19816E-02  7.29198E+01 -1.00000E+00  1.30328E-01
      21    -1     0     0   502   501  0.000000000E+00  0.000000000E+00  8.632074317E+02  8.632074317E+02  0.000000000E+00  0.00000E+00  9.000E+00
      21    -1     0     0   501   511  0.000000000E+00  0.000000000E+00 -1.854721022E+02  1.854721022E+02  0.000000000E+00  0.00000E+00  9.000E+00
      25     1     1     2     0     0  7.534980386E+01  1.047473077E+02  5.321152937E+02  5.616237862E+02  1.250000000E+02  0.00000E+00  9.000E+00
      25     1     1     2     0     0 -1.308503513E+02 -1.520440446E+02  2.600215759E+02  3.513907026E+02  1.250000000E+02  0.00000E+00  9.000E+00
      21     1     1     2   502   511  5.550054743E+01  4.729673690E+01 -1.144015401E+02  1.356650451E+02  0.000000000E+00  0.00000E+00  9.000E+00
#rwgt            1           1   2.8200313614514201E-002          10      277343           0
</event>
<event>
      5   9999  3.19816E-02  8.13017E+01 -1.00000E+00  1.28011E-01
       2    -1     0     0   502     0  0.000000000E+00  0.000000000E+00  2.317459206E+03  2.317459206E+03  0.000000000E+00  0.00000E+00  9.000E+00
      21    -1     0     0   501   502  0.000000000E+00  0.000000000E+00 -5.112833886E+01  5.112833886E+01  0.000000000E+00  0.00000E+00  9.000E+00
      25     1     1     2     0     0 -1.087603275E+02 -1.359966618E+02  3.923113519E+02  4.470537973E+02  1.250000000E+02  0.00000E+00  9.000E+00
      25     1     1     2     0     0  7.739966458E+01  2.110065486E+02  7.181752426E+02  7.628336324E+02  1.250000000E+02  0.00000E+00  9.000E+00
       2     1     1     2   501     0  3.136066292E+01 -7.500988684E+01  1.155844272E+03  1.158700115E+03  0.000000000E+00  0.00000E+00  9.000E+00
#rwgt            1           1   2.8174691485725215E-002          10      277419           0
</event>
<event>
      5   9999  3.19816E-02  4.67474E+01 -1.00000E+00  1.40763E-01
      21    -1     0     0   502   511  0.000000000E+00  0.000000000E+00  7.676083058E+02  7.676083058E+02  0.000000000E+00  0.00000E+00  9.000E+00
      21    -1     0     0   501   502  0.000000000E+00  0.000000000E+00 -1.978652078E+02  1.978652078E+02  0.000000000E+00  0.00000E+00  9.000E+00
      25     1     1     2     0     0 -1.460124428E+01  3.475740134E+02  2.378053756E+02  4.395421343E+02  1.250000000E+02  0.00000E+00  9.000E+00
      25     1     1     2     0     0  5.900583185E+01 -3.329604909E+02  2.836534856E+02  4.587250556E+02  1.250000000E+02  0.00000E+00  9.000E+00
      21     1     1     2   501   511 -4.440458757E+01 -1.461352256E+01  4.828423674E+01  6.720632378E+01  6.743495762E-07  0.00000E+00  9.000E+00
#rwgt            1           1   2.6939101030543762E-002          10      277464           0
</event>
<event>
      5   9999  3.19816E-02  4.43163E+00 -1.00000E+00  2.53407E-01
      21    -1     0     0   512   501  0.000000000E+00  0.000000000E+00  1.478552119E+02  1.478552119E+02  0.000000000E+00  0.00000E+00  9.000E+00
      21    -1     0     0   501   502  0.000000000E+00  0.000000000E+00 -1.855949155E+03  1.855949155E+03  0.000000000E+00  0.00000E+00  9.000E+00
      25     1     1     2     0     0 -2.701882632E+01 -3.878580238E+02 -1.477869342E+03  1.533260140E+03  1.250000000E+02  0.00000E+00  9.000E+00
      25     1     1     2     0     0  3.039965274E+01  3.849928213E+02 -2.271601820E+02  4.651562744E+02  1.250000000E+02  0.00000E+00  9.000E+00
      21     1     1     2   512   502 -3.380826421E+00  2.865202539E+00 -3.064419060E+00  5.387952956E+00  1.397852826E-07  0.00000E+00  9.000E+00
#rwgt            2          11   8.6403147079539087E-004          10      277578           0
</event>
<event>
      5   9999  3.19816E-02  7.43016E+01 -1.00000E+00  1.29922E-01
      21    -1     0     0   502   511  0.000000000E+00  0.000000000E+00  3.175920248E+02  3.175920248E+02  0.000000000E+00  0.00000E+00  9.000E+00
      21    -1     0     0   501   502  0.000000000E+00  0.000000000E+00 -4.261751841E+02  4.261751841E+02  0.000000000E+00  0.00000E+00  9.000E+00
      25     1     1     2     0     0  2.390076202E+02  3.894113320E+01  1.085617384E+02  2.933457097E+02  1.250000000E+02  0.00000E+00  9.000E+00
      25     1     1     2     0     0 -2.358922485E+02 -1.131773931E+02 -2.358853600E+02  3.737929617E+02  1.250000000E+02  0.00000E+00  9.000E+00
      21     1     1     2   501   511 -3.115371731E+00  7.423625987E+01  1.874046237E+01  7.662853744E+01  1.039242493E-06  0.00000E+00  9.000E+00
#rwgt            1           1   3.0068345295893428E-002          10      277598           0
</event>
<event>
      5   9999  3.19816E-02  9.32515E+00 -1.00000E+00  1.99332E-01
      21    -1     0     0   512   501  0.000000000E+00  0.000000000E+00  4.076464909E+02  4.076464909E+02  0.000000000E+00  0.00000E+00  9.000E+00
      21    -1     0     0   501   502  0.000000000E+00  0.000000000E+00 -7.249515321E+01  7.249515321E+01  0.000000000E+00  0.00000E+00  9.000E+00
      25     1     1     2     0     0 -6.569978261E+01 -6.934245543E+01  8.580016564E+01  1.791968359E+02  1.250000000E+02  0.00000E+00  9.000E+00
      25     1     1     2     0     0  5.868119004E+01  7.548231065E+01  2.225703973E+02  2.725869458E+02  1.250000000E+02  0.00000E+00  9.000E+00
      21     1     1     2   512   502  7.018592569E+00 -6.139855226E+00  2.678077479E+01  2.835786244E+01  0.000000000E+00  0.00000E+00  9.000E+00
#rwgt            1           1   2.5450240917942187E-002          10      277692           0
</event>
<event>
      5   9999  3.19816E-02  1.27756E+02 -1.00000E+00  1.19225E-01
      21    -1     0     0   502   501  0.000000000E+00  0.000000000E+00  5.114183872E+02  5.114183872E+02  0.000000000E+00  0.00000E+00  9.000E+00
      21    -1     0     0   511   502  0.000000000E+00  0.000000000E+00 -1.776322493E+02  1.776322493E+02  0.000000000E+00  0.00000E+00  9.000E+00
      25     1     1     2     0     0  6.980515685E+01 -9.730791138E+01  2.915491724E+02  3.390685911E+02  1.250000000E+02  0.00000E+00  9.000E+00
      25     1     1     2     0     0  3.037147152E+01  1.765944591E+02  1.265291042E+01  2.188449803E+02  1.250000000E+02  0.00000E+00  9.000E+00
      21     1     1     2   511   501 -1.001766284E+02 -7.928654775E+01  2.958405510E+01  1.311370651E+02  8.920806376E-07  0.00000E+00  9.000E+00
#rwgt            2          11   3.2255584206578322E-003          10      277881           0
</event>
<event>
      5   9999  3.19816E-02  1.37442E+01 -1.00000E+00  1.81037E-01
      21    -1     0     0   512   501  0.000000000E+00  0.000000000E+00  1.844640132E+03  1.844640132E+03  0.000000000E+00  0.00000E+00  9.000E+00
      21    -1     0     0   501   502  0.000000000E+00  0.000000000E+00 -1.974897243E+02  1.974897243E+02  0.000000000E+00  0.00000E+00  9.000E+00
      25     1     1     2     0     0 -4.239598538E+02 -3.489163447E+02  1.098994163E+03  1.234867501E+03  1.250000000E+02  0.00000E+00  9.000E+00
      25     1     1     2     0     0  4.245447875E+02  3.351846120E+02  4.685102189E+02  7.264391412E+02  1.250000000E+02  0.00000E+00  9.000E+00
      21     1     1     2   512   502 -5.849336942E-01  1.373173270E+01  7.964602546E+01  8.082321450E+01  9.536743164E-07  0.00000E+00  9.000E+00
#rwgt            1           1   3.0821991855724692E-002          10      277931           0
</event>
<event>
      5   9999  3.19816E-02  7.73015E+01 -1.00000E+00  1.29075E-01
      21    -1     0     0   502   501  0.000000000E+00  0.000000000E+00  3.832863238E+02  3.832863238E+02  0.000000000E+00  0.00000E+00  9.000E+00
      21    -1     0     0   511   502  0.000000000E+00  0.000000000E+00 -4.863828701E+02  4.863828701E+02  0.000000000E+00  0.00000E+00  9.000E+00
      25     1     1     2     0     0 -3.646580279E+02  1.489482080E+00  4.074232040E+01  3.876372435E+02  1.250000000E+02  0.00000E+00  9.000E+00
      25     1     1     2     0     0  3.036130427E+02 -4.891339681E+01 -1.563873972E+01  3.323296109E+02  1.250000000E+02  0.00000E+00  9.000E+00
      21     1     1     2   511   501  6.104498522E+01  4.742391473E+01 -1.282001269E+02  1.497023395E+02  2.697398305E-06  0.00000E+00  9.000E+00
#rwgt            1           1   3.0610871591406272E-002          10      278176           0
</event>
<event>
      5   9999  3.19816E-02  4.03424E+01 -1.00000E+00  1.44611E-01
      21    -1     0     0   502   501  0.000000000E+00  0.000000000E+00  1.458418417E+02  1.458418417E+02  0.000000000E+00  0.00000E+00  9.000E+00
      21    -1     0     0   501   512  0.000000000E+00  0.000000000E+00 -6.013135760E+02  6.013135760E+02  0.000000000E+00  0.00000E+00  9.000E+00
      25     1     1     2     0     0  2.075705365E+02 -9.991572894E+01 -2.601944735E+02  3.693167266E+02  1.250000000E+02  0.00000E+00  9.000E+00
      25     1     1     2     0     0 -1.868441371E+02  1.345267539E+02 -1.112369218E+02  2.846169915E+02  1.250000000E+02  0.00000E+00  9.000E+00
      21     1     1     2   502   512 -2.072639940E+01 -3.461102499E+01 -8.404033907E+01  9.322169959E+01  9.536743164E-07  0.00000E+00  9.000E+00
#rwgt            1           1   2.7394241218811059E-002          10      278264           0
</event>
<event>
      5   9999  3.19816E-02  4.40930E+01 -1.00000E+00  1.42264E-01
      21    -1     0     0   511   501  0.000000000E+00  0.000000000E+00  2.095418887E+02  2.095418887E+02  0.000000000E+00  0.00000E+00  9.000E+00
      21    -1     0     0   501   502  0.000000000E+00  0.000000000E+00 -9.567256564E+02  9.567256564E+02  0.000000000E+00  0.00000E+00  9.000E+00
      25     1     1     2     0     0 -4.184699297E+02 -1.358768764E+01 -2.670504681E+02  5.120963384E+02  1.250000000E+02  0.00000E+00  9.000E+00
      25     1     1     2     0     0  3.744922728E+02  1.039999171E+01 -4.582223768E+02  6.049341855E+02  1.250000000E+02  0.00000E+00  9.000E+00
      21     1     1     2   511   502  4.397765697E+01  3.187695931E+00 -2.191092279E+01  4.923702119E+01  5.331201500E-07  0.00000E+00  9.000E+00
#rwgt            1           1   2.9318215210495598E-002          10      278332           0
</event>
<event>
      5   9999  3.19816E-02  6.78786E+01 -1.00000E+00  1.31901E-01
      21    -1     0     0   502   501  0.000000000E+00  0.000000000E+00  4.121449656E+02  4.121449656E+02  0.000000000E+00  0.00000E+00  9.000E+00
      21    -1     0     0   501   512  0.000000000E+00  0.000000000E+00 -3.582366609E+02  3.582366609E+02  0.000000000E+00  0.00000E+00  9.000E+00
      25     1     1     2     0     0 -1.866891331E+02 -4.043343800E+01  2.477467486E+02  3.368844710E+02  1.250000000E+02  0.00000E+00  9.000E+00
      25     1     1     2     0     0  2.542993336E+02  4.646340856E+01 -7.522502422E+01  2.968346403E+02  1.250000000E+02  0.00000E+00  9.000E+00
      21     1     1     2   502   512 -6.761020052E+01 -6.029970560E+00 -1.186134197E+02  1.366625153E+02  1.907348633E-06  0.00000E+00  9.000E+00
#rwgt            1           1   2.8433168813183304E-002          10      278479           0
</event>
<event>
      5   9999  3.19816E-02  2.76468E+02 -1.00000E+00  1.06758E-01
      21    -1     0     0   502   501  0.000000000E+00  0.000000000E+00  1.675521664E+02  1.675521664E+02  0.000000000E+00  0.00000E+00  9.000E+00
       2    -1     0     0   501     0  0.000000000E+00  0.000000000E+00 -1.809459928E+03  1.809459928E+03  0.000000000E+00  0.00000E+00  9.000E+00
      25     1     1     2     0     0  2.020320904E+02 -3.950879505E+02 -1.057213594E+03  1.153359023E+03  1.250000000E+02  0.00000E+00  9.000E+00
      25     1     1     2     0     0 -1.550914579E+02  1.226336425E+02 -7.824655852E+01  2.466574437E+02  1.250000000E+02  0.00000E+00  9.000E+00
       2     1     1     2   502     0 -4.694063243E+01  2.724543081E+02 -5.064476098E+02  5.769956278E+02  0.000000000E+00  0.00000E+00  9.000E+00
#rwgt            1           1   2.7347835023375081E-002          10      278519           0
</event>
<event>
      5   9999  3.19816E-02  6.26562E+01 -1.00000E+00  1.33706E-01
      21    -1     0     0   502   501  0.000000000E+00  0.000000000E+00  9.570242134E+02  9.570242134E+02  0.000000000E+00  0.00000E+00  9.000E+00
      21    -1     0     0   511   502  0.000000000E+00  0.000000000E+00 -5.086132621E+02  5.086132621E+02  0.000000000E+00  0.00000E+00  9.000E+00
      25     1     1     2     0     0 -1.536058601E+02  2.222498740E+02  2.156151256E+02  3.675658433E+02  1.250000000E+02  0.00000E+00  9.000E+00
      25     1     1     2     0     0  1.294495387E+02 -2.800622722E+02  6.211315444E+02  7.047137396E+02  1.250000000E+02  0.00000E+00  9.000E+00
      21     1     1     2   511   501  2.415632140E+01  5.781239813E+01 -3.883357187E+02  3.933578926E+02  5.394796609E-06  0.00000E+00  9.000E+00
#rwgt            1           1   2.6983659308583680E-002          10      278571           0
</event>
<event>
      5   9999  3.19816E-02  4.10993E+02 -1.00000E+00  1.01332E-01
      21    -1     0     0   502   501  0.000000000E+00  0.000000000E+00  2.656653631E+02  2.656653631E+02  0.000000000E+00  0.00000E+00  9.000E+00
       2    -1     0     0   501     0  0.000000000E+00  0.000000000E+00 -1.943441744E+03  1.943441744E+03  0.000000000E+00  0.00000E+00  9.000E+00
      25     1     1     2     0     0 -5.829948545E+02  1.771906912E+02 -7.016325825E+02  9.376528261E+02  1.250000000E+02  0.00000E+00  9.000E+00
      25     1     1     2     0     0  1.869120322E+02 -6.749433704E+01 -2.596779843E+01  2.362010158E+02  1.250000000E+02  0.00000E+00  9.000E+00
       2     1     1     2   502     0  3.960828224E+02 -1.096963542E+02 -9.501759995E+02  1.035253265E+03  1.078959322E-05  0.00000E+00  9.000E+00
#rwgt            2          13   1.1886754467538647E-003          10      278690           0
</event>
<event>
      5   9999  3.19816E-02  3.18601E+01 -1.00000E+00  1.51247E-01
      21    -1     0     0   502   501  0.000000000E+00  0.000000000E+00  1.929571261E+03  1.929571261E+03  0.000000000E+00  0.00000E+00  9.000E+00
      21    -1     0     0   501   511  0.000000000E+00  0.000000000E+00 -1.699707103E+03  1.699707103E+03  0.000000000E+00  0.00000E+00  9.000E+00
      25     1     1     2     0     0  1.286969254E+03 -4.253245675E+02 -7.765538212E+02  1.567115722E+03  1.250000000E+02  0.00000E+00  9.000E+00
      25     1     1     2     0     0 -1.276216684E+03  4.553153669E+02  1.231232332E+03  1.835101949E+03  1.250000000E+02  0.00000E+00  9.000E+00
      21     1     1     2   502   511 -1.075257038E+01 -2.999079938E+01 -2.248143520E+02  2.270606939E+02  2.697398305E-06  0.00000E+00  9.000E+00
#rwgt            1           1   3.1676916950318212E-002          10      278709           0
</event>
<event>
      5   9999  3.19816E-02  5.65097E+01 -1.00000E+00  1.36109E-01
      21    -1     0     0   512   501  0.000000000E+00  0.000000000E+00  5.896570877E+02  5.896570877E+02  0.000000000E+00  0.00000E+00  9.000E+00
      21    -1     0     0   501   502  0.000000000E+00  0.000000000E+00 -7.405944420E+01  7.405944420E+01  0.000000000E+00  0.00000E+00  9.000E+00
      25     1     1     2     0     0 -1.640632957E+00 -1.115622548E+02  2.493346263E+02  3.004023706E+02  1.250000000E+02  0.00000E+00  9.000E+00
      25     1     1     2     0     0 -3.179637227E+01  6.600662427E+01  7.355332447E+01  1.624899236E+02  1.250000000E+02  0.00000E+00  9.000E+00
      21     1     1     2   512   502  3.343700523E+01  4.555563049E+01  1.927096927E+02  2.008242377E+02  2.697398305E-06  0.00000E+00  9.000E+00
#rwgt            1           1   2.5750065538435819E-002          10      278944           0
</event>
<event>
      5   9999  3.19816E-02  2.51603E+01 -1.00000E+00  1.58543E-01
       2    -1     0     0   502     0  0.000000000E+00  0.000000000E+00  1.145291776E+03  1.145291776E+03  0.000000000E+00  0.00000E+00  9.000E+00
      21    -1     0     0   501   502  0.000000000E+00  0.000000000E+00 -2.506801291E+02  2.506801291E+02  0.000000000E+00  0.00000E+00  9.000E+00
      25     1     1     2     0     0 -2.555584033E+00  3.142266639E+02  3.958610798E+02  5.206495192E+02  1.250000000E+02  0.00000E+00  9.000E+00
      25     1     1     2     0     0 -1.017071366E+01 -2.925222098E+02 -5.329456144E+01  3.227041941E+02  1.250000000E+02  0.00000E+00  9.000E+00
       2     1     1     2   501     0  1.272629770E+01 -2.170445414E+01  5.520451287E+02  5.526181920E+02  0.000000000E+00  0.00000E+00  9.000E+00
#rwgt            1           1   2.7408149882746077E-002          10      279036           0
</event>
<event>
      5   9999  3.19816E-02  3.07873E+01 -1.00000E+00  1.52263E-01
      21    -1     0     0   511   501  0.000000000E+00  0.000000000E+00  1.331033057E+03  1.331033057E+03  0.000000000E+00  0.00000E+00  9.000E+00
      21    -1     0     0   501   502  0.000000000E+00  0.000000000E+00 -9.464953386E+01  9.464953386E+01  0.000000000E+00  0.00000E+00  9.000E+00
      25     1     1     2     0     0  1.032826778E+02  9.035675882E+01  6.373563200E+02  6.638371291E+02  1.250000000E+02  0.00000E+00  9.000E+00
      25     1     1     2     0     0 -1.271102867E+02 -7.086052823E+01  3.261167599E+01  1.945938356E+02  1.250000000E+02  0.00000E+00  9.000E+00
      21     1     1     2   511   502  2.382760888E+01 -1.949623059E+01  5.664155277E+02  5.672516267E+02  7.629394531E-06  0.00000E+00  9.000E+00
#rwgt            1           1   2.6709416533635261E-002          10      279175           0
</event>
<event>
      5   9999  3.19816E-02  2.05238E+02 -1.00000E+00  1.11241E-01
      21    -1     0     0   502   512  0.000000000E+00  0.000000000E+00  9.480521915E+02  9.480521915E+02  0.000000000E+00  0.00000E+00  9.000E+00
      21    -1     0     0   501   502  0.000000000E+00  0.000000000E+00 -4.907475140E+02  4.907475140E+02  0.000000000E+00  0.00000E+00  9.000E+00
      25     1     1     2     0     0 -1.099446704E+02 -2.559936095E+02 -1.711622258E+01  3.058406836E+02  1.250000000E+02  0.00000E+00  9.000E+00
      25     1     1     2     0     0  2.614692402E+02  3.944231872E+02 -1.201341291E+02  5.039772050E+02  1.250000000E+02  0.00000E+00  9.000E+00
      21     1     1     2   501   512 -1.515245698E+02 -1.384295777E+02  5.945550292E+02  6.289818169E+02  7.629394531E-06  0.00000E+00  9.000E+00
#rwgt            1           1   2.4604403845732311E-002          10      279287           0
</event>
<event>
      5   9999  3.19816E-02  1.57764E+01 -1.00000E+00  1.75343E-01
      21    -1     0     0   502   501  0.000000000E+00  0.000000000E+00  7.596856267E+02  7.596856267E+02  0.000000000E+00  0.00000E+00  9.000E+00
      21    -1     0     0   511   502  0.000000000E+00  0.000000000E+00 -6.680310532E+01  6.680310532E+01  0.000000000E+00  0.00000E+00  9.000E+00
      25     1     1     2     0     0 -1.330451489E+02 -5.738541526E+01  1.548625461E+02  2.461737308E+02  1.250000000E+02  0.00000E+00  9.000E+00
      25     1     1     2     0     0  1.173441058E+02  5.892565999E+01  5.341410548E+02  5.640687361E+02  1.250000000E+02  0.00000E+00  9.000E+00
      21     1     1     2   511   501  1.570104313E+01 -1.540244732E+00  3.878920454E+00  1.624626520E+01  1.115100797E-07  0.00000E+00  9.000E+00
#rwgt            1           1   2.6730853927482465E-002          10      279350           0
</event>
<event>
      5   9999  3.19816E-02  6.99332E+01 -1.00000E+00  1.31242E-01
      21    -1     0     0   502   501  0.000000000E+00  0.000000000E+00  3.237980066E+02  3.237980066E+02  0.000000000E+00  0.00000E+00  9.000E+00
      21    -1     0     0   512   502  0.000000000E+00  0.000000000E+00 -3.608751168E+02  3.608751168E+02  0.000000000E+00  0.00000E+00  9.000E+00
      25     1     1     2     0     0 -2.438319226E+01 -6.509193071E+01  2.568104801E+02  2.939525850E+02  1.250000000E+02  0.00000E+00  9.000E+00
      25     1     1     2     0     0  9.102564210E+01  8.629189511E+01 -1.554867552E+02  2.356545983E+02  1.250000000E+02  0.00000E+00  9.000E+00
      21     1     1     2   512   501 -6.664244985E+01 -2.119996440E+01 -1.384008352E+02  1.550659401E+02  1.907348633E-06  0.00000E+00  9.000E+00
#rwgt            1           1   2.8298333184183021E-002          10      279552           0
</event>
<event>
      5   9999  3.19816E-02  2.97780E+02 -1.00000E+00  1.05697E-01
      21    -1     0     0   502   501  0.000000000E+00  0.000000000E+00  9.854169286E+02  9.854169286E+02  0.000000000E+00  0.00000E+00  9.000E+00
      21    -1     0     0   501   511  0.000000000E+00  0.000000000E+00 -2.992410323E+02  2.992410323E+02  0.000000000E+00  0.00000E+00  9.000E+00
      25     1     1     2     0     0  3.763830419E+02  2.129251402E+02  5.243160358E+02  6.910380706E+02  1.250000000E+02  0.00000E+00  9.000E+00
      25     1     1     2     0     0 -7.907880009E+01 -2.297495468E+02  7.187374039E+01  2.825405200E+02  1.250000000E+02  0.00000E+00  9.000E+00
      21     1     1     2   502   511 -2.973042418E+02  1.682440650E+01  8.998612013E+01  3.110793703E+02  6.106495130E-06  0.00000E+00  9.000E+00
#rwgt            2          11   3.8447881027761309E-003          10      279600           0
</event>
<event>
      5   9999  3.19816E-02  1.85562E+01 -1.00000E+00  1.69100E-01
      21    -1     0     0   502   501  0.000000000E+00  0.000000000E+00  2.774899444E+02  2.774899444E+02  0.000000000E+00  0.00000E+00  9.000E+00
      21    -1     0     0   501   512  0.000000000E+00  0.000000000E+00 -2.277578790E+02  2.277578790E+02  0.000000000E+00  0.00000E+00  9.000E+00
      25     1     1     2     0     0 -1.369492294E+02 -5.396010199E+00 -6.592271472E+01  1.968629287E+02  1.250000000E+02  0.00000E+00  9.000E+00
      25     1     1     2     0     0  1.303329634E+02 -1.194058122E+01  1.716254268E+02  2.494184154E+02  1.250000000E+02  0.00000E+00  9.000E+00
      21     1     1     2   502   512  6.616266049E+00  1.733659142E+01 -5.597064679E+01  5.896647930E+01  6.743495762E-07  0.00000E+00  9.000E+00
#rwgt            1           1   2.7678223118511685E-002          10      279665           0
</event>
<event>
      5   9999  3.19816E-02  2.70994E+01 -1.00000E+00  1.56172E-01
      21    -1     0     0   502   511  0.000000000E+00  0.000000000E+00  8.961411163E+02  8.961411163E+02  0.000000000E+00  0.00000E+00  9.000E+00
      21    -1     0     0   501   502  0.000000000E+00  0.000000000E+00 -2.876217773E+02  2.876217773E+02  0.000000000E+00  0.00000E+00  9.000E+00
      25     1     1     2     0     0 -3.095699454E+01 -2.025016469E+01 -2.642423429E+02  2.946479603E+02  1.250000000E+02  0.00000E+00  9.000E+00
      25     1     1     2     0     0  5.555288811E+01  3.162641546E+01  6.701291406E+02  6.846783322E+02  1.250000000E+02  0.00000E+00  9.000E+00
      21     1     1     2   501   511 -2.459589357E+01 -1.137625076E+01  2.026325413E+02  2.044366011E+02  2.697398305E-06  0.00000E+00  9.000E+00
#rwgt            1           1   2.9828687768453179E-002          10      279811           0
</event>
<event>
      5   9999  3.19816E-02  5.66258E+01 -1.00000E+00  1.36061E-01
      21    -1     0     0   502   512  0.000000000E+00  0.000000000E+00  5.942117330E+02  5.942117330E+02  0.000000000E+00  0.00000E+00  9.000E+00
      21    -1     0     0   501   502  0.000000000E+00  0.000000000E+00 -8.861278387E+02  8.861278387E+02  0.000000000E+00  0.00000E+00  9.000E+00
      25     1     1     2     0     0  3.376506388E+02 -5.688042109E+01 -6.617298177E+02  7.554830825E+02  1.250000000E+02  0.00000E+00  9.000E+00
      25     1     1     2     0     0 -3.036030911E+02  1.021269720E+02 -6.895955269E+00  3.439146835E+02  1.250000000E+02  0.00000E+00  9.000E+00
      21     1     1     2   501   512 -3.404754769E+01 -4.524655086E+01  3.767096673E+02  3.809418057E+02  5.394796609E-06  0.00000E+00  9.000E+00
#rwgt            1           1   2.9028306923894329E-002          10      279949           0
</event>
<event>
      5   9999  3.19816E-02  4.00341E+01 -1.00000E+00  1.44817E-01
      21    -1     0     0   502   501  0.000000000E+00  0.000000000E+00  1.718738408E+02  1.718738408E+02  0.000000000E+00  0.00000E+00  9.000E+00
      21    -1     0     0   511   502  0.000000000E+00  0.000000000E+00 -7.081400233E+02  7.081400233E+02  0.000000000E+00  0.00000E+00  9.000E+00
      25     1     1     2     0     0 -2.830687255E+02  1.252377027E+02 -1.819299029E+02  3.801787410E+02  1.250000000E+02  0.00000E+00  9.000E+00
      25     1     1     2     0     0  2.494913692E+02 -1.034364929E+02 -2.520699748E+02  3.900119531E+02  1.250000000E+02  0.00000E+00  9.000E+00
      21     1     1     2   511   501  3.357735633E+01 -2.180120976E+01 -1.022663047E+02  1.098231700E+02  0.000000000E+00  0.00000E+00  9.000E+00
#rwgt            1           1   2.5472812038755760E-002          10      280065           0
</event>
<event>
      5   9999  3.19816E-02  1.36228E+02 -1.00000E+00  1.18076E-01
      21    -1     0     0   502   501  0.000000000E+00  0.000000000E+00  1.012285179E+02  1.012285179E+02  0.000000000E+00  0.00000E+00  9.000E+00
       2    -1     0     0   501     0  0.000000000E+00  0.000000000E+00 -2.004783478E+03  2.004783478E+03  0.000000000E+00  0.00000E+00  9.000E+00
      25     1     1     2     0     0  1.616487083E+01  6.668544102E+01  3.853786495E-01  1.425952300E+02  1.250000000E+02  0.00000E+00  9.000E+00
      25     1     1     2     0     0  1.168754856E+02 -9.598111547E+01 -3.324390259E+02  3.860219678E+02  1.250000000E+02  0.00000E+00  9.000E+00
       2     1     1     2   502     0 -1.330403564E+02  2.929567446E+01 -1.571501312E+03  1.577394798E+03  2.157918644E-05  0.00000E+00  9.000E+00
#rwgt            1           1   2.8695180820623768E-002          10      280183           0
</event>
<event>
      5   9999  3.19816E-02  1.15690E+02 -1.00000E+00  1.21046E-01
      21    -1     0     0   502   501  0.000000000E+00  0.000000000E+00  9.596099906E+01  9.596099906E+01  0.000000000E+00  0.00000E+00  9.000E+00
      21    -1     0     0   511   502  0.000000000E+00  0.000000000E+00 -6.003489544E+02  6.003489544E+02  0.000000000E+00  0.00000E+00  9.000E+00
      25     1     1     2     0     0 -1.535919809E+02 -5.811654761E+01 -1.612615952E+02  2.619128324E+02  1.250000000E+02  0.00000E+00  9.000E+00
      25     1     1     2     0     0  7.850077768E+01 -2.989241817E+01 -1.881218218E+02  2.409787306E+02  1.250000000E+02  0.00000E+00  9.000E+00
      21     1     1     2   511   501  7.509120324E+01  8.800896577E+01 -1.550045384E+02  1.934183905E+02  2.697398305E-06  0.00000E+00  9.000E+00
#rwgt            1           1   2.7930551225293494E-002          10      280218           0
</event>
<event>
      5   9999  3.19816E-02  3.90888E+01 -1.00000E+00  1.45464E-01
      21    -1     0     0   502   501  0.000000000E+00  0.000000000E+00  4.837597048E+02  4.837597048E+02  0.000000000E+00  0.00000E+00  9.000E+00
      21    -1     0     0   501   512  0.000000000E+00  0.000000000E+00 -2.496581324E+02  2.496581324E+02  0.000000000E+00  0.00000E+00  9.000E+00
      25     1     1     2     0     0 -1.205495939E+02 -2.565740053E+02  7.651650199E+01  3.191272471E+02  1.250000000E+02  0.00000E+00  9.000E+00
      25     1     1     2     0     0  1.489343713E+02  2.834485403E+02  1.466141852E+02  3.736913717E+02  1.250000000E+02  0.00000E+00  9.000E+00
      21     1     1     2   502   512 -2.838477741E+01 -2.687453503E+01  1.097088512E+01  4.059921849E+01  5.591411304E-07  0.00000E+00  9.000E+00
#rwgt            1           1   2.5378153924195790E-002          10      280278           0
</event>
<event>
      5   9999  3.19816E-02  3.18570E+01 -1.00000E+00  1.51250E-01
      21    -1     0     0   502   501  0.000000000E+00  0.000000000E+00  2.903354656E+03  2.903354656E+03  0.000000000E+00  0.00000E+00  9.000E+00
      21    -1     0     0   501   511  0.000000000E+00  0.000000000E+00 -1.294478805E+01  1.294478805E+01  0.000000000E+00  0.00000E+00  9.000E+00
      25     1     1     2     0     0 -4.445700904E+01  9.786109588E+01  1.001533655E+03  1.015011272E+03  1.250000000E+02  0.00000E+00  9.000E+00
      25     1     1     2     0     0  1.317230776E+01 -1.038723311E+02  1.789890364E+03  1.797302280E+03  1.250000000E+02  0.00000E+00  9.000E+00
      21     1     1     2   502   511  3.128470127E+01  6.011235204E+00  9.898584916E+01  1.039858924E+02  3.015782986E-06  0.00000E+00  9.000E+00
#rwgt            1           1   3.1530689984686715E-002          10      280353           0
</event>
<event>
      5   9999  3.19816E-02  4.12048E+02 -1.00000E+00  1.01299E-01
      21    -1     0     0   512   501  0.000000000E+00  0.000000000E+00  6.190057649E+02  6.190057649E+02  0.000000000E+00  0.00000E+00  9.000E+00
      21    -1     0     0   501   502  0.000000000E+00  0.000000000E+00 -4.557670494E+02  4.557670494E+02  0.000000000E+00  0.00000E+00  9.000E+00
      25     1     1     2     0     0  1.440491661E+02  4.158721863E+02  1.402651434E+02  4.785385544E+02  1.250000000E+02  0.00000E+00  9.000E+00
      25     1     1     2     0     0 -1.011888800E+02 -6.059464782E+00 -6.725151641E+01  1.744238315E+02  1.250000000E+02  0.00000E+00  9.000E+00
      21     1     1     2   512   502 -4.286028606E+01 -4.098127215E+02  9.022508855E+01  4.218104283E+02  4.046097457E-06  0.00000E+00  9.000E+00
#rwgt            2          11   3.3446252191189252E-003          10      280920           0
</event>
<event>
      5   9999  3.19816E-02  1.86304E+01 -1.00000E+00  1.68952E-01
      21    -1     0     0   502   511  0.000000000E+00  0.000000000E+00  1.003434310E+03  1.003434310E+03  0.000000000E+00  0.00000E+00  9.000E+00
      21    -1     0     0   501   502  0.000000000E+00  0.000000000E+00 -1.612129121E+03  1.612129121E+03  0.000000000E+00  0.00000E+00  9.000E+00
      25     1     1     2     0     0 -1.195159810E+01  1.225435587E+03 -5.416617017E+02  1.345681098E+03  1.250000000E+02  0.00000E+00  9.000E+00
      25     1     1     2     0     0  3.042888866E+01 -1.223051755E+03 -9.804830514E+01  1.233701740E+03  1.250000000E+02  0.00000E+00  9.000E+00
      21     1     1     2   501   511 -1.847729055E+01 -2.383831255E+00  3.101519619E+01  3.618059303E+01  3.371747881E-07  0.00000E+00  9.000E+00
#rwgt            1           1   7.0477788543199554E-002          10      280940           0
</event>
<event>
      5   9999  3.19816E-02  4.59681E+01 -1.00000E+00  1.41191E-01
      21    -1     0     0   502   501  0.000000000E+00  0.000000000E+00  4.907506455E+02  4.907506455E+02  0.000000000E+00  0.00000E+00  9.000E+00
      21    -1     0     0   512   502  0.000000000E+00  0.000000000E+00 -1.482654242E+02  1.482654242E+02  0.000000000E+00  0.00000E+00  9.000E+00
      25     1     1     2     0     0 -8.253788216E+01 -4.401042374E+01 -9.415753587E+00  1.564067639E+02  1.250000000E+02  0.00000E+00  9.000E+00
      25     1     1     2     0     0  1.258963641E+02  5.927822668E+01  3.835967329E+02  4.267730734E+02  1.250000000E+02  0.00000E+00  9.000E+00
      21     1     1     2   512   501 -4.335848198E+01 -1.526780294E+01 -3.169575802E+01  5.583623235E+01  6.743495762E-07  0.00000E+00  9.000E+00
#rwgt            1           1   2.9581317111468636E-002          10      281267           0
</event>
<event>
      5   9999  3.19816E-02  2.54057E+02 -1.00000E+00  1.07992E-01
      21    -1     0     0   502   501  0.000000000E+00  0.000000000E+00  2.898003208E+02  2.898003208E+02  0.000000000E+00  0.00000E+00  9.000E+00
      21    -1     0     0   511   502  0.000000000E+00  0.000000000E+00 -9.227093973E+02  9.227093973E+02  0.000000000E+00  0.00000E+00  9.000E+00
      25     1     1     2     0     0 -1.674290101E+01 -9.936960493E+01 -1.729409441E+02  2.359835021E+02  1.250000000E+02  0.00000E+00  9.000E+00
      25     1     1     2     0     0  2.705667692E+02  8.849669301E+01  1.278405020E+02  3.361640005E+02  1.250000000E+02  0.00000E+00  9.000E+00
      21     1     1     2   511   501 -2.538238682E+02  1.087291192E+01 -5.878086345E+02  6.403622155E+02  7.629394531E-06  0.00000E+00  9.000E+00
#rwgt            2          11   2.8885583634091160E-003          10      281446           0
</event>
<event>
      5   9999  3.19816E-02  3.96386E+01 -1.00000E+00  1.45085E-01
      21    -1     0     0   502   501  0.000000000E+00  0.000000000E+00  4.995214784E+02  4.995214784E+02  0.000000000E+00  0.00000E+00  9.000E+00
      21    -1     0     0   501   512  0.000000000E+00  0.000000000E+00 -1.239636622E+03  1.239636622E+03  0.000000000E+00  0.00000E+00  9.000E+00
      25     1     1     2     0     0  5.485350691E+02 -1.711603426E+02  1.728671282E+02  6.129393355E+02  1.250000000E+02  0.00000E+00  9.000E+00
      25     1     1     2     0     0 -5.381822294E+02  2.094230702E+02 -7.308435722E+02  9.398167169E+02  1.250000000E+02  0.00000E+00  9.000E+00
      21     1     1     2   502   512 -1.035283978E+01 -3.826272762E+01 -1.821386996E+02  1.864020481E+02  0.000000000E+00  0.00000E+00  9.000E+00
#rwgt            1           1   3.1669675576328132E-002          10      281466           0
</event>
<event>
      5   9999  3.19816E-02  3.10259E+02 -1.00000E+00  1.05120E-01
       2    -1     0     0   502     0  0.000000000E+00  0.000000000E+00  2.774123235E+03  2.774123235E+03  0.000000000E+00  0.00000E+00  9.000E+00
      21    -1     0     0   501   502  0.000000000E+00  0.000000000E+00 -3.099248455E+02  3.099248455E+02  0.000000000E+00  0.00000E+00  9.000E+00
      25     1     1     2     0     0  2.734222680E+01  6.561707562E+01  4.354322234E+02  4.585623394E+02  1.250000000E+02  0.00000E+00  9.000E+00
      25     1     1     2     0     0 -3.170441050E+02  4.543802212E+01 -1.847671388E+02  3.903145833E+02  1.250000000E+02  0.00000E+00  9.000E+00
       2     1     1     2   501     0  2.897018782E+02 -1.110550977E+02  2.213533305E+03  2.235171158E+03  4.315837288E-05  0.00000E+00  9.000E+00
#rwgt            1           1   2.9914262928844464E-002          10      281588           0
</event>
<event>
      5   9999  3.19816E-02  7.51672E+01 -1.00000E+00  1.29673E-01
      21    -1     0     0   502   501  0.000000000E+00  0.000000000E+00  1.119171616E+02  1.119171616E+02  0.000000000E+00  0.00000E+00  9.000E+00
      21    -1     0     0   511   502  0.000000000E+00  0.000000000E+00 -1.510640853E+03  1.510640853E+03  0.000000000E+00  0.00000E+00  9.000E+00
      25     1     1     2     0     0 -9.885384559E+01 -2.495174643E+02 -2.787523554E+02  4.066434844E+02  1.250000000E+02  0.00000E+00  9.000E+00
      25     1     1     2     0     0  7.933775857E+01  3.221069043E+02 -6.538274563E+02  7.437490708E+02  1.250000000E+02  0.00000E+00  9.000E+00
      21     1     1     2   511   501  1.951608702E+01 -7.258944003E+01 -4.661438795E+02  4.721654592E+02  5.394796609E-06  0.00000E+00  9.000E+00
#rwgt            1           1   2.7924749141365439E-002          10      281630           0
</event>
<event>
      5   9999  3.19816E-02  2.45851E+01 -1.00000E+00  1.59297E-01
      21    -1     0     0   502   501  0.000000000E+00  0.000000000E+00  6.787991501E+00  6.787991501E+00  0.000000000E+00  0.00000E+00  9.000E+00
      21    -1     0     0   512   502  0.000000000E+00  0.000000000E+00 -3.771209927E+03  3.771209927E+03  0.000000000E+00  0.00000E+00  9.000E+00
      25     1     1     2     0     0 -6.717906770E-01  3.064470343E+01 -8.583490540E+02  8.679444957E+02  1.250000000E+02  0.00000E+00  9.000E+00
      25     1     1     2     0     0 -5.297746642E+00 -6.795311854E+00 -2.588279775E+03  2.591310756E+03  1.250000000E+02  0.00000E+00  9.000E+00
      21     1     1     2   512   501  5.969537319E+00 -2.384939157E+01 -3.177931066E+02  3.187426666E+02  3.814697266E-06  0.00000E+00  9.000E+00
#rwgt            1           1   1.6727139113752912E-002          10      281707           0
</event>
<event>
      5   9999  3.19816E-02  2.80598E+01 -1.00000E+00  1.55084E-01
      21    -1     0     0   511   501  0.000000000E+00  0.000000000E+00  7.504912840E+02  7.504912840E+02  0.000000000E+00  0.00000E+00  9.000E+00
      21    -1     0     0   501   502  0.000000000E+00  0.000000000E+00 -2.762661472E+03  2.762661472E+03  0.000000000E+00  0.00000E+00  9.000E+00
      25     1     1     2     0     0 -1.097659678E+03 -4.936969215E+02 -1.812303168E+03  2.179142307E+03  1.250000000E+02  0.00000E+00  9.000E+00
      25     1     1     2     0     0  1.125653097E+03  4.917678193E+02 -2.652163675E+02  1.262891605E+03  1.250000000E+02  0.00000E+00  9.000E+00
      21     1     1     2   511   502 -2.799341910E+01  1.929102280E+00  6.534934710E+01  7.111884501E+01  1.348699152E-06  0.00000E+00  9.000E+00
#rwgt            1           1   4.3384582688758083E-002          10      281804           0
</event>
<event>
      5   9999  3.19816E-02  9.41722E+01 -1.00000E+00  1.25012E-01
      21    -1     0     0   502   512  0.000000000E+00  0.000000000E+00  7.614649907E+02  7.614649907E+02  0.000000000E+00  0.00000E+00  9.000E+00
      21    -1     0     0   501   502  0.000000000E+00  0.000000000E+00 -1.427347428E+03  1.427347428E+03  0.000000000E+00  0.00000E+00  9.000E+00
      25     1     1     2     0     0  1.630430331E+02 -3.069867506E+02  1.923133504E+02  4.164532632E+02  1.250000000E+02  0.00000E+00  9.000E+00
      25     1     1     2     0     0 -7.502372287E+01  3.404682408E+02 -1.283957012E+03  1.336307521E+03  1.250000000E+02  0.00000E+00  9.000E+00
      21     1     1     2   501   512 -8.801931021E+01 -3.348149020E+01  4.257612235E+02  4.360516353E+02  0.000000000E+00  0.00000E+00  9.000E+00
#rwgt            1           1   3.5890488994205903E-002          10      282041           0
</event>
<event>
      5   9999  3.19816E-02  3.37913E+01 -1.00000E+00  1.49535E-01
      21    -1     0     0   502   501  0.000000000E+00  0.000000000E+00  1.187982864E+02  1.187982864E+02  0.000000000E+00  0.00000E+00  9.000E+00
      21    -1     0     0   511   502  0.000000000E+00  0.000000000E+00 -7.026371514E+02  7.026371514E+02  0.000000000E+00  0.00000E+00  9.000E+00
      25     1     1     2     0     0 -2.214420544E+02  2.444469274E+01 -1.739799722E+02  3.090762968E+02  1.250000000E+02  0.00000E+00  9.000E+00
      25     1     1     2     0     0  2.341787842E+02 -5.574373563E+01 -3.415739866E+02  4.361706722E+02  1.250000000E+02  0.00000E+00  9.000E+00
      21     1     1     2   511   501 -1.273672973E+01  3.129904290E+01 -6.828490614E+01  7.618846879E+01  9.536743164E-07  0.00000E+00  9.000E+00
#rwgt            1           1   2.7422071538828585E-002          10      282196           0
</event>
<event>
      5   9999  3.19816E-02  3.12303E+02 -1.00000E+00  1.05028E-01
      21    -1     0     0   512   501  0.000000000E+00  0.000000000E+00  7.340098115E+02  7.340098115E+02  0.000000000E+00  0.00000E+00  9.000E+00
      21    -1     0     0   501   502  0.000000000E+00  0.000000000E+00 -3.975348486E+02  3.975348486E+02  0.000000000E+00  0.00000E+00  9.000E+00
      25     1     1     2     0     0 -2.969996381E+02 -7.905185127E+01 -2.293020906E+02  4.033143055E+02  1.250000000E+02  0.00000E+00  9.000E+00
      25     1     1     2     0     0 -5.523283466E+00  1.507044994E+00  7.312857919E+01  1.449329740E+02  1.250000000E+02  0.00000E+00  9.000E+00
      21     1     1     2   512   502  3.025229216E+02  7.754480627E+01  4.926484743E+02  5.832973807E+02  1.206313194E-05  0.00000E+00  9.000E+00
#rwgt            2          11   4.1821073325699135E-003          10      282541           0
</event>
<event>
      5   9999  3.19816E-02  8.67902E+01 -1.00000E+00  1.26660E-01
      21    -1     0     0   502   511  0.000000000E+00  0.000000000E+00  9.447081676E+02  9.447081676E+02  0.000000000E+00  0.00000E+00  9.000E+00
      21    -1     0     0   501   502  0.000000000E+00  0.000000000E+00 -3.891563012E+02  3.891563012E+02  0.000000000E+00  0.00000E+00  9.000E+00
      25     1     1     2     0     0  2.407874565E+02 -3.570581887E+02  2.417407269E+02  5.094435478E+02  1.250000000E+02  0.00000E+00  9.000E+00
      25     1     1     2     0     0 -1.745810009E+02  3.009400171E+02 -1.148074771E+02  3.871035734E+02  1.250000000E+02  0.00000E+00  9.000E+00
      21     1     1     2   501   511 -6.620645561E+01  5.611817166E+01  4.286186166E+02  4.373173475E+02  5.394796609E-06  0.00000E+00  9.000E+00
#rwgt            1           1   2.6679429369597656E-002          10      282561           0
</event>
<event>
      5   9999  3.19816E-02  1.71859E+01 -1.00000E+00  1.71993E-01
      21    -1     0     0   502   512  0.000000000E+00  0.000000000E+00  1.029182712E+03  1.029182712E+03  0.000000000E+00  0.00000E+00  9.000E+00
      21    -1     0     0   501   502  0.000000000E+00  0.000000000E+00 -2.930684858E+02  2.930684858E+02  0.000000000E+00  0.00000E+00  9.000E+00
      25     1     1     2     0     0 -2.671750866E+02  1.020082708E+02  8.378167188E+02  8.940637944E+02  1.250000000E+02  0.00000E+00  9.000E+00
      25     1     1     2     0     0  2.818281251E+02 -9.302806878E+01 -1.655302579E+02  3.620864261E+02  1.250000000E+02  0.00000E+00  9.000E+00
      21     1     1     2   501   512 -1.465303853E+01 -8.980202019E+00  6.382776486E+01  6.610097679E+01  6.743495762E-07  0.00000E+00  9.000E+00
#rwgt            2          11   6.2380187457564424E-003          10      282675           0
</event>
<event>
      5   9999  3.19816E-02  2.80189E+02 -1.00000E+00  1.06565E-01
      21    -1     0     0   502   501  0.000000000E+00  0.000000000E+00  6.692501555E+02  6.692501555E+02  0.000000000E+00  0.00000E+00  9.000E+00
      21    -1     0     0   511   502  0.000000000E+00  0.000000000E+00 -3.746304189E+02  3.746304189E+02  0.000000000E+00  0.00000E+00  9.000E+00
      25     1     1     2     0     0 -6.875276083E+01  4.068129005E+02  1.887479095E+02  4.706107218E+02  1.250000000E+02  0.00000E+00  9.000E+00
      25     1     1     2     0     0  3.494117756E+00 -1.343291492E+02  2.058457439E+02  2.757788960E+02  1.250000000E+02  0.00000E+00  9.000E+00
      21     1     1     2   511   501  6.525864307E+01 -2.724837513E+02 -9.997391695E+01  2.974909566E+02  1.348699152E-06  0.00000E+00  9.000E+00
#rwgt            1           1   3.0106320509756701E-002          10      282710           0
</event>
<event>
      5   9999  3.19816E-02  9.09152E+01 -1.00000E+00  1.25717E-01
      21    -1     0     0   502   501  0.000000000E+00  0.000000000E+00  1.882806120E+03  1.882806120E+03  0.000000000E+00  0.00000E+00  9.000E+00
      21    -1     0     0   501   512  0.000000000E+00  0.000000000E+00 -1.509889116E+03  1.509889116E+03  0.000000000E+00  0.00000E+00  9.000E+00
      25     1     1     2     0     0 -8.180718079E+02 -4.486065914E+02 -1.159981283E+03  1.493877817E+03  1.250000000E+02  0.00000E+00  9.000E+00
      25     1     1     2     0     0  7.271605858E+02  4.494617807E+02  1.576712907E+03  1.797895159E+03  1.250000000E+02  0.00000E+00  9.000E+00
      21     1     1     2   502   512  9.091122208E+01 -8.551892368E-01 -4.381462050E+01  1.009222603E+02  2.236564522E-06  0.00000E+00  9.000E+00
#rwgt            1           1   3.4047538330859071E-002          10      282746           0
</event>
<event>
      5   9999  3.19816E-02  9.40288E+01 -1.00000E+00  1.25043E-01
      21    -1     0     0   502   501  0.000000000E+00  0.000000000E+00  1.556282847E+03  1.556282847E+03  0.000000000E+00  0.00000E+00  9.000E+00
      21    -1     0     0   501   511  0.000000000E+00  0.000000000E+00 -4.048545510E+02  4.048545510E+02  0.000000000E+00  0.00000E+00  9.000E+00
      25     1     1     2     0     0  3.307817267E+02  2.940077679E+02  1.210292794E+03  1.294716480E+03  1.250000000E+02  0.00000E+00  9.000E+00
      25     1     1     2     0     0 -3.840625588E+02 -3.714839651E+02 -1.095807065E+02  5.595867374E+02  1.250000000E+02  0.00000E+00  9.000E+00
      21     1     1     2   502   511  5.328083209E+01  7.747619716E+01  5.071620854E+01  1.068341799E+02  2.132480600E-06  0.00000E+00  9.000E+00
#rwgt            1           1   3.1239242638907927E-002          10      282893           0
</event>
<event>
      5   9999  3.19816E-02  5.06497E+01 -1.00000E+00  1.38756E-01
      21    -1     0     0   512   501  0.000000000E+00  0.000000000E+00  2.048453092E+03  2.048453092E+03  0.000000000E+00  0.00000E+00  9.000E+00
      21    -1     0     0   501   502  0.000000000E+00  0.000000000E+00 -2.211774694E+02  2.211774694E+02  0.000000000E+00  0.00000E+00  9.000E+00
      25     1     1     2     0     0 -2.857265248E+01  3.570179582E+02  1.654625235E+02  4.138611671E+02  1.250000000E+02  0.00000E+00  9.000E+00
      25     1     1     2     0     0  7.599864012E+01 -3.747990012E+02  3.228691189E+02  5.158677665E+02  1.250000000E+02  0.00000E+00  9.000E+00
      21     1     1     2   512   502 -4.742598764E+01  1.778104296E+01  1.338943981E+03  1.339901628E+03  2.642899792E-05  0.00000E+00  9.000E+00
#rwgt            1           1   2.2706570481366033E-002          10      283008           0
</event>
<event>
      5   9999  3.19816E-02  1.42264E+01 -1.00000E+00  1.79578E-01
      21    -1     0     0   502   511  0.000000000E+00  0.000000000E+00  7.939033116E+02  7.939033116E+02  0.000000000E+00  0.00000E+00  9.000E+00
      21    -1     0     0   501   502  0.000000000E+00  0.000000000E+00 -4.540607099E+02  4.540607099E+02  0.000000000E+00  0.00000E+00  9.000E+00
      25     1     1     2     0     0 -3.033984525E+02 -1.426795086E+02 -9.068249748E+01  3.691292165E+02  1.250000000E+02  0.00000E+00  9.000E+00
      25     1     1     2     0     0  2.894676516E+02  1.455644047E+02 -8.948778487E+01  3.586273565E+02  1.250000000E+02  0.00000E+00  9.000E+00
      21     1     1     2   501   511  1.393080095E+01 -2.884896095E+00  5.200128840E+02  5.202074484E+02  0.000000000E+00  0.00000E+00  9.000E+00
#rwgt            1           1   2.8020601178483904E-002          10      283074           0
</event>
<event>
      5   9999  3.19816E-02  1.85677E+01 -1.00000E+00  1.69076E-01
      21    -1     0     0   512   501  0.000000000E+00  0.000000000E+00  5.699569568E+02  5.699569568E+02  0.000000000E+00  0.00000E+00  9.000E+00
      21    -1     0     0   501   502  0.000000000E+00  0.000000000E+00 -9.958965408E+02  9.958965408E+02  0.000000000E+00  0.00000E+00  9.000E+00
      25     1     1     2     0     0 -4.843100262E+02 -1.071817818E+02 -1.793390311E+02  5.420623801E+02  1.250000000E+02  0.00000E+00  9.000E+00
      25     1     1     2     0     0  5.011100378E+02  1.150887872E+02 -5.246374082E+02  7.451349603E+02  1.250000000E+02  0.00000E+00  9.000E+00
      21     1     1     2   512   502 -1.680001163E+01 -7.907005369E+00  2.780368552E+02  2.786561573E+02  0.000000000E+00  0.00000E+00  9.000E+00
#rwgt            1           1   3.0106205793690822E-002          10      283329           0
</event>
<event>
      5   9999  3.19816E-02  3.83273E+01 -1.00000E+00  1.46000E-01
      21    -1     0     0   502   511  0.000000000E+00  0.000000000E+00  1.579426235E+02  1.579426235E+02  0.000000000E+00  0.00000E+00  9.000E+00
      21    -1     0     0   501   502  0.000000000E+00  0.000000000E+00 -2.264493645E+02  2.264493645E+02  0.000000000E+00  0.00000E+00  9.000E+00
      25     1     1     2     0     0  3.346555264E+01 -9.050110998E+00  2.952980029E+01  1.330370506E+02  1.250000000E+02  0.00000E+00  9.000E+00
      25     1     1     2     0     0 -5.922912870E+01  3.742652469E+01 -1.358914140E+02  1.974849636E+02  1.250000000E+02  0.00000E+00  9.000E+00
      21     1     1     2   501   511  2.576357606E+01 -2.837641369E+01  3.785487260E+01  5.386997387E+01  1.168007728E-06  0.00000E+00  9.000E+00
#rwgt            1           1   6.3842766661171640E-002          10      283537           0
</event>
<event>
      5   9999  3.19816E-02  5.68781E+01 -1.00000E+00  1.35955E-01
      21    -1     0     0   502   501  0.000000000E+00  0.000000000E+00  1.109594299E+02  1.109594299E+02  0.000000000E+00  0.00000E+00  9.000E+00
       2    -1     0     0   501     0  0.000000000E+00  0.000000000E+00 -1.483236950E+03  1.483236950E+03  0.000000000E+00  0.00000E+00  9.000E+00
      25     1     1     2     0     0 -8.792972012E+01 -2.555733653E+02 -4.557579477E+02  5.444168326E+02  1.250000000E+02  0.00000E+00  9.000E+00
      25     1     1     2     0     0  8.049460686E+01  3.119634433E+02 -3.936216419E+02  5.237972591E+02  1.250000000E+02  0.00000E+00  9.000E+00
       2     1     1     2   502     0  7.435113262E+00 -5.639007796E+01 -5.228979301E+02  5.259822878E+02  1.321449896E-05  0.00000E+00  9.000E+00
#rwgt            1           1   3.6630104837929375E-002          10      283597           0
</event>
<event>
      5   9999  3.19816E-02  4.59660E+01 -1.00000E+00  1.41193E-01
      21    -1     0     0   502   501  0.000000000E+00  0.000000000E+00  3.965383796E+02  3.965383796E+02  0.000000000E+00  0.00000E+00  9.000E+00
      21    -1     0     0   501   511  0.000000000E+00  0.000000000E+00 -1.131047705E+03  1.131047705E+03  0.000000000E+00  0.00000E+00  9.000E+00
      25     1     1     2     0     0  9.986292541E+01  2.731742764E+01 -1.251553035E+02  2.049577901E+02  1.250000000E+02  0.00000E+00  9.000E+00
      25     1     1     2     0     0 -1.021149861E+02 -7.322819230E+01  3.340213676E+02  3.781337231E+02  1.250000000E+02  0.00000E+00  9.000E+00
      21     1     1     2   502   511  2.252060678E+00  4.591076465E+01 -9.433753890E+02  9.444945710E+02  1.078959322E-05  0.00000E+00  9.000E+00
#rwgt            1           1   2.7368413795696864E-002          10      283685           0
</event>
<event>
      5   9999  3.19816E-02  2.70703E+01 -1.00000E+00  1.56206E-01
      21    -1     0     0   502   501  0.000000000E+00  0.000000000E+00  6.273851207E+02  6.273851207E+02  0.000000000E+00  0.00000E+00  9.000E+00
      21    -1     0     0   501   512  0.000000000E+00  0.000000000E+00 -8.743243548E+01  8.743243548E+01  0.000000000E+00  0.00000E+00  9.000E+00
      25     1     1     2     0     0 -1.654584937E+02  2.553106586E+01  2.738070115E+02  3.444178103E+02  1.250000000E+02  0.00000E+00  9.000E+00
      25     1     1     2     0     0  1.887028847E+02 -3.940549851E+01  2.463733089E+02  3.368773951E+02  1.250000000E+02  0.00000E+00  9.000E+00
      21     1     1     2   502   512 -2.324439099E+01  1.387443265E+01  1.977236480E+01  3.352235080E+01  4.129530925E-07  0.00000E+00  9.000E+00
#rwgt            1           1   2.6528917840916010E-002          10      283746           0
</event>
<event>
      5   9999  3.19816E-02  1.40151E+02 -1.00000E+00  1.17575E-01
      21    -1     0     0   511   501  0.000000000E+00  0.000000000E+00  1.074370005E+03  1.074370005E+03  0.000000000E+00  0.00000E+00  9.000E+00
      21    -1     0     0   501   502  0.000000000E+00  0.000000000E+00 -4.968007263E+02  4.968007263E+02  0.000000000E+00  0.00000E+00  9.000E+00
      25     1     1     2     0     0  6.825465739E+02  6.143994802E+01  6.683505132E+01  6.998118439E+02  1.250000000E+02  0.00000E+00  9.000E+00
      25     1     1     2     0     0 -5.429595034E+02 -4.888299447E+01  4.531616823E+02  7.198437884E+02  1.250000000E+02  0.00000E+00  9.000E+00
      21     1     1     2   511   502 -1.395870705E+02 -1.255695355E+01  5.757254537E+01  1.515150993E+02  2.132480600E-06  0.00000E+00  9.000E+00
#rwgt            1           1   2.6889434365380237E-002          10      283866           0
</event>
<event>
      5   9999  3.19816E-02  4.38076E+01 -1.00000E+00  1.42433E-01
      21    -1     0     0   502   501  0.000000000E+00  0.000000000E+00  5.326587585E+01  5.326587585E+01  0.000000000E+00  0.00000E+00  9.000E+00
      21    -1     0     0   501   512  0.000000000E+00  0.000000000E+00 -1.350646278E+03  1.350646278E+03  0.000000000E+00  0.00000E+00  9.000E+00
      25     1     1     2     0     0  8.831104346E+01  1.310918583E+02 -4.039452774E+02  4.514207603E+02  1.250000000E+02  0.00000E+00  9.000E+00
      25     1     1     2     0     0 -1.244030997E+02 -1.062630278E+02 -3.411205192E+02  3.984421801E+02  1.250000000E+02  0.00000E+00  9.000E+00
      21     1     1     2   502   512  3.609205625E+01 -2.482883055E+01 -5.523146056E+02  5.540492134E+02  7.629394531E-06  0.00000E+00  9.000E+00
#rwgt            1           1   2.5261431248030323E-002          10      283940           0
</event>
<event>
      5   9999  3.19816E-02  1.19906E+02 -1.00000E+00  1.20383E-01
      21    -1     0     0   502   501  0.000000000E+00  0.000000000E+00  3.485965994E+02  3.485965994E+02  0.000000000E+00  0.00000E+00  9.000E+00
      -1    -1     0     0     0   502  0.000000000E+00  0.000000000E+00 -3.320574368E+02  3.320574368E+02  0.000000000E+00  0.00000E+00  9.000E+00
      25     1     1     2     0     0  1.140772179E+01  1.480052867E+02 -4.807128923E+01  1.999288620E+02  1.250000000E+02  0.00000E+00  9.000E+00
      25     1     1     2     0     0 -8.658423621E+00 -2.813112797E+01  2.376937233E+02  2.701659393E+02  1.250000000E+02  0.00000E+00  9.000E+00
      -1     1     1     2     0   501 -2.749298172E+00 -1.198741587E+02 -1.730832714E+02  2.105592349E+02  0.000000000E+00  0.00000E+00  9.000E+00
#rwgt            1           1   2.7648033218304141E-002          10      284040           0
</event>
<event>
      5   9999  3.19816E-02  2.26876E+01 -1.00000E+00  1.61974E-01
      21    -1     0     0   511   501  0.000000000E+00  0.000000000E+00  5.913827965E+02  5.913827965E+02  0.000000000E+00  0.00000E+00  9.000E+00
      21    -1     0     0   501   502  0.000000000E+00  0.000000000E+00 -4.818052988E+02  4.818052988E+02  0.000000000E+00  0.00000E+00  9.000E+00
      25     1     1     2     0     0 -1.375344869E+02 -3.052440882E+01  4.123942632E+02  4.533668525E+02  1.250000000E+02  0.00000E+00  9.000E+00
      25     1     1     2     0     0  1.514539723E+02  1.260865309E+01 -4.393557545E+02  4.814101815E+02  1.250000000E+02  0.00000E+00  9.000E+00
      21     1     1     2   511   502 -1.391948544E+01  1.791575573E+01  1.365389891E+02  1.384110614E+02  1.907348633E-06  0.00000E+00  9.000E+00
#rwgt            1           1   2.9795779573863618E-002          10      284086           0
</event>
<event>
      5   9999  3.19816E-02  3.67454E+01 -1.00000E+00  1.47164E-01
      21    -1     0     0   502   512  0.000000000E+00  0.000000000E+00  8.858941131E+02  8.858941131E+02  0.000000000E+00  0.00000E+00  9.000E+00
      21    -1     0     0   501   502  0.000000000E+00  0.000000000E+00 -1.626344391E+02  1.626344391E+02  0.000000000E+00  0.00000E+00  9.000E+00
      25     1     1     2     0     0 -2.588258304E+02  5.014102853E+01  5.109084452E+01  2.962097359E+02  1.250000000E+02  0.00000E+00  9.000E+00
      25     1     1     2     0     0  2.731469101E+02 -1.630121997E+01  5.883492275E+02  6.607985910E+02  1.250000000E+02  0.00000E+00  9.000E+00
      21     1     1     2   501   512 -1.432107975E+01 -3.383980856E+01  8.381960198E+01  9.152022533E+01  0.000000000E+00  0.00000E+00  9.000E+00
#rwgt            1           1   2.8821651803554487E-002          10      284320           0
</event>
<event>
      5   9999  3.19816E-02  1.84022E+01 -1.00000E+00  1.69409E-01
      21    -1     0     0   502   511  0.000000000E+00  0.000000000E+00  2.818084425E+03  2.818084425E+03  0.000000000E+00  0.00000E+00  9.000E+00
      21    -1     0     0   501   502  0.000000000E+00  0.000000000E+00 -3.119349392E+02  3.119349392E+02  0.000000000E+00  0.00000E+00  9.000E+00
      25     1     1     2     0     0 -3.142245837E+02 -5.933803975E+01  3.185899342E+02  4.683830037E+02  1.250000000E+02  0.00000E+00  9.000E+00
      25     1     1     2     0     0  3.121539799E+02  7.762338210E+01 -1.113795296E+02  3.626236289E+02  1.250000000E+02  0.00000E+00  9.000E+00
      21     1     1     2   501   511  2.070603838E+00 -1.828534235E+01  2.298939081E+03  2.299012731E+03  0.000000000E+00  0.00000E+00  9.000E+00
#rwgt            1           1   2.8867366412652043E-002          10      284451           0
</event>
<event>
      5   9999  3.19816E-02  1.17589E+01 -1.00000E+00  1.87960E-01
      21    -1     0     0   512   501  0.000000000E+00  0.000000000E+00  5.685496738E+02  5.685496738E+02  0.000000000E+00  0.00000E+00  9.000E+00
      21    -1     0     0   501   502  0.000000000E+00  0.000000000E+00 -2.204365656E+02  2.204365656E+02  0.000000000E+00  0.00000E+00  9.000E+00
      25     1     1     2     0     0  1.648946662E+02 -2.440542156E+02  3.079188836E+02  4.440627771E+02  1.250000000E+02  0.00000E+00  9.000E+00
      25     1     1     2     0     0 -1.614862440E+02  2.553082502E+02  2.823213162E+01  3.281496045E+02  1.250000000E+02  0.00000E+00  9.000E+00
      21     1     1     2   512   502 -3.408422184E+00 -1.125403461E+01  1.196209301E+01  1.677385782E+01  1.685873940E-07  0.00000E+00  9.000E+00
#rwgt            1           1   2.6595549841523972E-002          10      284633           0
</event>
<event>
      5   9999  3.19816E-02  2.50717E+02 -1.00000E+00  1.08188E-01
      21    -1     0     0   511   501  0.000000000E+00  0.000000000E+00  4.439006592E+02  4.439006592E+02  0.000000000E+00  0.00000E+00  9.000E+00
      21    -1     0     0   501   502  0.000000000E+00  0.000000000E+00 -8.720156399E+02  8.720156399E+02  0.000000000E+00  0.00000E+00  9.000E+00
      25     1     1     2     0     0 -1.165116647E+02  2.614262406E+02 -5.012771675E+02  5.906119250E+02  1.250000000E+02  0.00000E+00  9.000E+00
      25     1     1     2     0     0 -1.340475048E+02 -2.703242907E+02 -1.767024747E+02  3.713390907E+02  1.250000000E+02  0.00000E+00  9.000E+00
      21     1     1     2   511   502  2.505591695E+02  8.898050064E+00  2.498646617E+02  3.539652834E+02  2.697398305E-06  0.00000E+00  9.000E+00
#rwgt            2          11   4.7599508888949739E-003          10      285140           0
</event>
<event>
      5   9999  3.19816E-02  1.16553E+01 -1.00000E+00  1.88369E-01
      21    -1     0     0   502   512  0.000000000E+00  0.000000000E+00  1.022452084E+03  1.022452084E+03  0.000000000E+00  0.00000E+00  9.000E+00
      21    -1     0     0   501   502  0.000000000E+00  0.000000000E+00 -7.253228164E+01  7.253228164E+01  0.000000000E+00  0.00000E+00  9.000E+00
      25     1     1     2     0     0  4.516977313E+01 -7.954588028E+01  5.077018296E+01  1.630044998E+02  1.250000000E+02  0.00000E+00  9.000E+00
      25     1     1     2     0     0 -4.100053895E+01  6.866174536E+01  3.202149923E+02  3.529279258E+02  1.250000000E+02  0.00000E+00  9.000E+00
      21     1     1     2   501   512 -4.169234173E+00  1.088413492E+01  5.789346268E+02  5.790519398E+02  7.629394531E-06  0.00000E+00  9.000E+00
#rwgt            1           1   3.0926866400547925E-002          10      285160           0
</event>
<event>
      5   9999  3.19816E-02  7.09316E+01 -1.00000E+00  1.30931E-01
      21    -1     0     0   502   501  0.000000000E+00  0.000000000E+00  3.488820358E+02  3.488820358E+02  0.000000000E+00  0.00000E+00  9.000E+00
      21    -1     0     0   501   511  0.000000000E+00  0.000000000E+00 -9.161020850E+02  9.161020850E+02  0.000000000E+00  0.00000E+00  9.000E+00
      25     1     1     2     0     0  1.750186746E+02  4.218730617E+02 -1.875974463E+02  5.093390015E+02  1.250000000E+02  0.00000E+00  9.000E+00
      25     1     1     2     0     0 -1.536313145E+02 -4.895034384E+02 -2.037357827E+02  5.659942280E+02  1.250000000E+02  0.00000E+00  9.000E+00
      21     1     1     2   502   511 -2.138736013E+01  6.763037672E+01 -1.758868202E+02  1.896508912E+02  1.907348633E-06  0.00000E+00  9.000E+00
#rwgt            1           1   2.8482904254191903E-002          10      285304           0
</event>
<event>
      5   9999  3.19816E-02  3.80451E+01 -1.00000E+00  1.46203E-01
      21    -1     0     0   512   501  0.000000000E+00  0.000000000E+00  3.418565829E+02  3.418565829E+02  0.000000000E+00  0.00000E+00  9.000E+00
      21    -1     0     0   501   502  0.000000000E+00  0.000000000E+00 -6.377472890E+02  6.377472890E+02  0.000000000E+00  0.00000E+00  9.000E+00
      25     1     1     2     0     0  1.212166615E+02  1.892091814E+02  1.749630228E+01  2.577299244E+02  1.250000000E+02  0.00000E+00  9.000E+00
      25     1     1     2     0     0 -1.228098744E+02 -2.272209254E+02 -4.754921283E+02  5.553641853E+02  1.250000000E+02  0.00000E+00  9.000E+00
      21     1     1     2   512   502  1.593212893E+00  3.801174410E+01  1.621051199E+02  1.665097622E+02  2.697398305E-06  0.00000E+00  9.000E+00
#rwgt            1           1   2.7867807065191735E-002          10      285422           0
</event>
<event>
      5   9999  3.19816E-02  4.75313E+01 -1.00000E+00  1.40342E-01
      21    -1     0     0   502   501  0.000000000E+00  0.000000000E+00  2.142886043E+03  2.142886043E+03  0.000000000E+00  0.00000E+00  9.000E+00
      21    -1     0     0   501   511  0.000000000E+00  0.000000000E+00 -1.674021990E+03  1.674021990E+03  0.000000000E+00  0.00000E+00  9.000E+00
      25     1     1     2     0     0  1.684917411E+02  1.840037056E+02  1.931827741E+03  1.951878647E+03  1.250000000E+02  0.00000E+00  9.000E+00
      25     1     1     2     0     0 -1.213595842E+02 -1.901502235E+02  1.178177240E+02  2.835335470E+02  1.250000000E+02  0.00000E+00  9.000E+00
      21     1     1     2   502   511 -4.713215690E+01  6.146517928E+00 -1.580781412E+03  1.581495840E+03  2.157918644E-05  0.00000E+00  9.000E+00
#rwgt            1           1   3.6063133551545466E-002          10      285538           0
</event>
<event>
      5   9999  3.19816E-02  1.04288E+02 -1.00000E+00  1.23013E-01
       2    -1     0     0   502     0  0.000000000E+00  0.000000000E+00  1.985322725E+03  1.985322725E+03  0.000000000E+00  0.00000E+00  9.000E+00
      21    -1     0     0   501   502  0.000000000E+00  0.000000000E+00 -2.036294764E+02  2.036294764E+02  0.000000000E+00  0.00000E+00  9.000E+00
      25     1     1     2     0     0 -1.123254357E+02 -5.006796839E+01  2.188336719E+02  2.804228609E+02  1.250000000E+02  0.00000E+00  9.000E+00
      25     1     1     2     0     0  2.010934816E+02 -4.669540022E+00 -8.928597796E+01  2.530955923E+02  1.250000000E+02  0.00000E+00  9.000E+00
       2     1     1     2   501     0 -8.876804596E+01  5.473750841E+01  1.652145555E+03  1.655433748E+03  3.051757812E-05  0.00000E+00  9.000E+00
#rwgt            1           1   2.8193891282599155E-002          10      285632           0
</event>
<event>
      5   9999  3.19816E-02  2.07671E+01 -1.00000E+00  1.65032E-01
      21    -1     0     0   502   511  0.000000000E+00  0.000000000E+00  2.390625986E+02  2.390625986E+02  0.000000000E+00  0.00000E+00  9.000E+00
      21    -1     0     0   501   502  0.000000000E+00  0.000000000E+00 -5.571884421E+02  5.571884421E+02  0.000000000E+00  0.00000E+00  9.000E+00
      25     1     1     2     0     0  4.675630997E+01  3.299852881E+02 -1.005317404E+02  3.698757544E+02  1.250000000E+02  0.00000E+00  9.000E+00
      25     1     1     2     0     0 -2.820677617E+01 -3.206479021E+02 -2.106091871E+02  4.044649912E+02  1.250000000E+02  0.00000E+00  9.000E+00
      21     1     1     2   501   511 -1.854953381E+01 -9.337385917E+00 -6.984916002E+00  2.191029511E+01  3.953724850E-07  0.00000E+00  9.000E+00
#rwgt            1           1   2.6508207593200318E-002          10      285701           0
</event>
<event>
      5   9999  3.19816E-02  1.82242E+01 -1.00000E+00  1.69771E-01
      21    -1     0     0   502   501  0.000000000E+00  0.000000000E+00  1.243257115E+03  1.243257115E+03  0.000000000E+00  0.00000E+00  9.000E+00
      21    -1     0     0   501   512  0.000000000E+00  0.000000000E+00 -1.458645201E+02  1.458645201E+02  0.000000000E+00  0.00000E+00  9.000E+00
      25     1     1     2     0     0 -2.580775161E+02  1.870443059E+02  2.927211484E+02  4.504444998E+02  1.250000000E+02  0.00000E+00  9.000E+00
      25     1     1     2     0     0  2.403415007E+02 -1.912342538E+02  8.377055042E+02  9.009495483E+02  1.250000000E+02  0.00000E+00  9.000E+00
      21     1     1     2   502   512  1.773601544E+01  4.189947932E+00 -3.303405731E+01  3.772758739E+01  6.743495762E-07  0.00000E+00  9.000E+00
#rwgt            1           1   2.4346136006088835E-002          10      285853           0
</event>
<event>
      5   9999  3.19816E-02  2.61095E+01 -1.00000E+00  1.57351E-01
      21    -1     0     0   502   501  0.000000000E+00  0.000000000E+00  2.470663899E+03  2.470663899E+03  0.000000000E+00  0.00000E+00  9.000E+00
      21    -1     0     0   511   502  0.000000000E+00  0.000000000E+00 -1.181467099E+03  1.181467099E+03  0.000000000E+00  0.00000E+00  9.000E+00
      25     1     1     2     0     0 -1.630031340E+03  4.441052646E+02  8.517211723E+02  1.896123839E+03  1.250000000E+02  0.00000E+00  9.000E+00
      25     1     1     2     0     0  1.605101082E+03 -4.363470559E+02  4.490737204E+02  1.727437536E+03  1.250000000E+02  0.00000E+00  9.000E+00
      21     1     1     2   511   501  2.493025848E+01 -7.758208727E+00 -1.159809315E+01  2.856962295E+01  2.920019320E-07  0.00000E+00  9.000E+00
#rwgt            1           1   2.6554988772269274E-002          10      286050           0
</event>
<event>
      5   9999  3.19816E-02  5.87992E+01 -1.00000E+00  1.35174E-01
      21    -1     0     0   512   501  0.000000000E+00  0.000000000E+00  3.794430357E+02  3.794430357E+02  0.000000000E+00  0.00000E+00  9.000E+00
      21    -1     0     0   501   502  0.000000000E+00  0.000000000E+00 -2.520448087E+02  2.520448087E+02  0.000000000E+00  0.00000E+00  9.000E+00
      25     1     1     2     0     0  1.633494759E+02  1.514539914E+02 -9.086145093E+01  2.711128290E+02  1.250000000E+02  0.00000E+00  9.000E+00
      25     1     1     2     0     0 -1.624947813E+02 -9.266102950E+01  1.928435761E+02  2.963178448E+02  1.250000000E+02  0.00000E+00  9.000E+00
      21     1     1     2   512   502 -8.546946350E-01 -5.879296192E+01  2.541610189E+01  6.405717064E+01  5.840038640E-07  0.00000E+00  9.000E+00
#rwgt            1           1   2.7521695200760567E-002          10      286385           0
</event>
<event>
      5   9999  3.19816E-02  4.31117E+01 -1.00000E+00  1.42851E-01
      21    -1     0     0   502   501  0.000000000E+00  0.000000000E+00  1.142752605E+03  1.142752605E+03  0.000000000E+00  0.00000E+00  9.000E+00
      21    -1     0     0   511   502  0.000000000E+00  0.000000000E+00 -8.718055986E+01  8.718055986E+01  0.000000000E+00  0.00000E+00  9.000E+00
      25     1     1     2     0     0 -1.573709284E+02  9.170242856E-01  9.123327531E+02  9.342068842E+02  1.250000000E+02  0.00000E+00  9.000E+00
      25     1     1     2     0     0  1.660233890E+02 -4.315156350E+01  9.986664780E+01  2.345723140E+02  1.250000000E+02  0.00000E+00  9.000E+00
      21     1     1     2   511   501 -8.652460684E+00  4.223453922E+01  4.337264427E+01  6.115396676E+01  6.743495762E-07  0.00000E+00  9.000E+00
#rwgt            1           1   2.6536494899719567E-002          10      286459           0
</event>
<event>
      5   9999  3.19816E-02  5.93982E+01 -1.00000E+00  1.34938E-01
      21    -1     0     0   512   501  0.000000000E+00  0.000000000E+00  1.250941014E+03  1.250941014E+03  0.000000000E+00  0.00000E+00  9.000E+00
      21    -1     0     0   501   502  0.000000000E+00  0.000000000E+00 -2.389930362E+02  2.389930362E+02  0.000000000E+00  0.00000E+00  9.000E+00
      25     1     1     2     0     0  7.922597258E+01  5.070961788E+02  4.775596741E+02  7.121176389E+02  1.250000000E+02  0.00000E+00  9.000E+00
      25     1     1     2     0     0 -2.366411663E+01 -4.860955701E+02  4.493266376E+02  6.740684839E+02  1.250000000E+02  0.00000E+00  9.000E+00
      21     1     1     2   512   502 -5.556185595E+01 -2.100060869E+01  8.506166575E+01  1.037479271E+02  1.651812370E-06  0.00000E+00  9.000E+00
#rwgt            1           1   2.7970851551227045E-002          10      286605           0
</event>
<event>
      5   9999  3.19816E-02  2.55032E+01 -1.00000E+00  1.58105E-01
      21    -1     0     0   502   501  0.000000000E+00  0.000000000E+00  1.091583988E+03  1.091583988E+03  0.000000000E+00  0.00000E+00  9.000E+00
      21    -1     0     0   511   502  0.000000000E+00  0.000000000E+00 -8.024363143E+02  8.024363143E+02  0.000000000E+00  0.00000E+00  9.000E+00
      25     1     1     2     0     0  7.757836599E+02  4.545364767E+02  1.767639360E+02  9.248319764E+02  1.250000000E+02  0.00000E+00  9.000E+00
      25     1     1     2     0     0 -8.006627996E+02 -4.601439191E+02  1.258483130E+02  9.403489474E+02  1.250000000E+02  0.00000E+00  9.000E+00
      21     1     1     2   511   501  2.487913973E+01  5.607442415E+00 -1.346457481E+01  2.883937897E+01  5.057621821E-07  0.00000E+00  9.000E+00
#rwgt            1           1   2.8043507665329460E-002          10      286748           0
</event>
<event>
      5   9999  3.19816E-02  6.48829E+01 -1.00000E+00  1.32912E-01
      21    -1     0     0   502   512  0.000000000E+00  0.000000000E+00  1.049645606E+03  1.049645606E+03  0.000000000E+00  0.00000E+00  9.000E+00
      21    -1     0     0   501   502  0.000000000E+00  0.000000000E+00 -1.206744581E+02  1.206744581E+02  0.000000000E+00  0.00000E+00  9.000E+00
      25     1     1     2     0     0  8.434533261E+01  1.949353625E+02  8.250887539E+02  8.611099712E+02  1.250000000E+02  0.00000E+00  9.000E+00
      25     1     1     2     0     0 -7.679878043E+01 -1.304928102E+02  1.197789639E+01  1.967101832E+02  1.250000000E+02  0.00000E+00  9.000E+00
      21     1     1     2   501   512 -7.546552178E+00 -6.444255230E+01  9.190449736E+01  1.124999095E+02  1.907348633E-06  0.00000E+00  9.000E+00
#rwgt            1           1   3.0063563653095194E-002          10      286986           0
</event>
<event>
      5   9999  3.19816E-02  1.08868E+02 -1.00000E+00  1.22191E-01
      21    -1     0     0   502   501  0.000000000E+00  0.000000000E+00  1.990457447E+03  1.990457447E+03  0.000000000E+00  0.00000E+00  9.000E+00
      21    -1     0     0   511   502  0.000000000E+00  0.000000000E+00 -2.060329690E+02  2.060329690E+02  0.000000000E+00  0.00000E+00  9.000E+00
      25     1     1     2     0     0  1.920622604E+02 -2.034781525E+02  1.665834574E+03  1.693788977E+03  1.250000000E+02  0.00000E+00  9.000E+00
      25     1     1     2     0     0 -1.735854774E+02  3.107668731E+02  7.103234060E+01  3.838991544E+02  1.250000000E+02  0.00000E+00  9.000E+00
      21     1     1     2   511   501 -1.847678304E+01 -1.072887206E+02  4.755756402E+01  1.188022852E+02  1.168007728E-06  0.00000E+00  9.000E+00
#rwgt            1           1   3.8100213640705434E-002          10      287101           0
</event>
<event>
      5   9999  3.19816E-02  3.66746E+00 -1.00000E+00  2.72681E-01
      21    -1     0     0   512   501  0.000000000E+00  0.000000000E+00  3.368282581E+02  3.368282581E+02  0.000000000E+00  0.00000E+00  9.000E+00
      21    -1     0     0   501   502  0.000000000E+00  0.000000000E+00 -1.985069751E+02  1.985069751E+02  0.000000000E+00  0.00000E+00  9.000E+00
      25     1     1     2     0     0 -1.566869638E+02 -3.054407821E+01  1.040877474E+02  2.279100799E+02  1.250000000E+02  0.00000E+00  9.000E+00
      25     1     1     2     0     0  1.569818596E+02  3.419965836E+01 -6.070034270E+01  2.124204615E+02  1.250000000E+02  0.00000E+00  9.000E+00
      21     1     1     2   512   502 -2.948957769E-01 -3.655580151E+00  9.493387828E+01  9.500469186E+01  0.000000000E+00  0.00000E+00  9.000E+00
#rwgt            1           1   2.6606097878441669E-002          10      287169           0
</event>
<event>
      5   9999  3.23281E-02  1.26234E+02 -1.00000E+00  1.19442E-01
      -4    -1     0     0     0   501  0.000000000E+00  0.000000000E+00  1.396705710E+03  1.396705710E+03  0.000000000E+00  0.00000E+00  9.000E+00
      21    -1     0     0   501   502  0.000000000E+00  0.000000000E+00 -1.678616354E+03  1.678616354E+03  0.000000000E+00  0.00000E+00  9.000E+00
      25     1     1     2     0     0 -1.791148531E+01 -8.074285241E+02  5.112809555E+02  9.639994078E+02  1.250000000E+02  0.00000E+00  9.000E+00
      25     1     1     2     0     0 -7.073649527E+01  7.175589452E+02 -1.352587966E+03  1.537860103E+03  1.250000000E+02  0.00000E+00  9.000E+00
      -4     1     1     2     0   502  8.864798058E+01  8.986957886E+01  5.593963659E+02  5.734625531E+02  0.000000000E+00  0.00000E+00  9.000E+00
#rwgt            1           1   7.7338890127083781E-002          10      287450           0
</event>
<event>
      5   9999  3.19816E-02  2.06671E+01 -1.00000E+00  1.65202E-01
      21    -1     0     0   511   501  0.000000000E+00  0.000000000E+00  2.905469627E+02  2.905469627E+02  0.000000000E+00  0.00000E+00  9.000E+00
      21    -1     0     0   501   502  0.000000000E+00  0.000000000E+00 -8.598704459E+02  8.598704459E+02  0.000000000E+00  0.00000E+00  9.000E+00
      25     1     1     2     0     0  3.332301562E+02  1.402963660E+02 -5.023336039E+02  6.314186067E+02  1.250000000E+02  0.00000E+00  9.000E+00
      25     1     1     2     0     0 -3.429948236E+02 -1.585112348E+02 -1.561111882E+02  4.275125304E+02  1.250000000E+02  0.00000E+00  9.000E+00
      21     1     1     2   511   502  9.764667353E+00  1.821486881E+01  8.912130887E+01  9.148627148E+01  2.132480600E-06  0.00000E+00  9.000E+00
#rwgt            1           1   2.7017471462262868E-002          10      287550           0
</event>
<event>
      5   9999  3.19816E-02  2.85577E+01 -1.00000E+00  1.54541E-01
      21    -1     0     0   502   501  0.000000000E+00  0.000000000E+00  3.980378812E+01  3.980378812E+01  0.000000000E+00  0.00000E+00  9.000E+00
       1    -1     0     0   501     0  0.000000000E+00  0.000000000E+00 -2.311899123E+03  2.311899123E+03  0.000000000E+00  0.00000E+00  9.000E+00
      25     1     1     2     0     0 -1.848176162E+01 -1.740195362E+02 -9.840947484E+02  1.007319139E+03  1.250000000E+02  0.00000E+00  9.000E+00
      25     1     1     2     0     0  3.495083006E+01  1.973500015E+02 -4.712482852E+02  5.271323647E+02  1.250000000E+02  0.00000E+00  9.000E+00
       1     1     1     2   502     0 -1.646906843E+01 -2.333046539E+01 -8.167523010E+02  8.172514069E+02  0.000000000E+00  0.00000E+00  9.000E+00
#rwgt            1           1   3.0947702156952570E-002          10      287727           0
</event>
<event>
      5   9999  3.19816E-02  1.85424E+01 -1.00000E+00  1.69127E-01
       1    -1     0     0   502     0  0.000000000E+00  0.000000000E+00  2.457311182E+03  2.457311182E+03  0.000000000E+00  0.00000E+00  9.000E+00
      21    -1     0     0   501   502  0.000000000E+00  0.000000000E+00 -4.852530891E+01  4.852530891E+01  0.000000000E+00  0.00000E+00  9.000E+00
      25     1     1     2     0     0  1.089406108E+02  9.910363779E+01  4.585105887E+02  4.975404985E+02  1.250000000E+02  0.00000E+00  9.000E+00
      25     1     1     2     0     0 -9.387196298E+01 -1.099090118E+02  2.862914417E+02  3.442088405E+02  1.250000000E+02  0.00000E+00  9.000E+00
       1     1     1     2   501     0 -1.506864786E+01  1.080537404E+01  1.663983843E+03  1.664087152E+03  2.157918644E-05  0.00000E+00  9.000E+00
#rwgt            1           1   3.1832755911772120E-002          10      287824           0
</event>
<event>
      5   9999  3.19816E-02  2.84108E+01 -1.00000E+00  1.54700E-01
      21    -1     0     0   502   501  0.000000000E+00  0.000000000E+00  5.378457313E+02  5.378457313E+02  0.000000000E+00  0.00000E+00  9.000E+00
      21    -1     0     0   511   502  0.000000000E+00  0.000000000E+00 -8.883137417E+02  8.883137417E+02  0.000000000E+00  0.00000E+00  9.000E+00
      25     1     1     2     0     0 -4.205910505E+02 -1.481074634E+01  1.301153737E+02  4.578986792E+02  1.250000000E+02  0.00000E+00  9.000E+00
      25     1     1     2     0     0  4.276427606E+02  4.233249791E+01  3.776513978E+01  4.491342526E+02  1.250000000E+02  0.00000E+00  9.000E+00
      21     1     1     2   511   501 -7.051710066E+00 -2.752175157E+01 -5.183485240E+02  5.191265412E+02  7.629394531E-06  0.00000E+00  9.000E+00
#rwgt            1           1   2.9879923471597632E-002          10      287956           0
</event>
<event>
      5   9999  3.19816E-02  2.81270E+01 -1.00000E+00  1.55010E-01
      21    -1     0     0   502   501  0.000000000E+00  0.000000000E+00  3.279842238E+01  3.279842238E+01  0.000000000E+00  0.00000E+00  9.000E+00
      21    -1     0     0   512   502  0.000000000E+00  0.000000000E+00 -1.311615558E+03  1.311615558E+03  0.000000000E+00  0.00000E+00  9.000E+00
      25     1     1     2     0     0  9.046963913E+01  7.994285404E-01 -2.934349240E+02  3.315334815E+02  1.250000000E+02  0.00000E+00  9.000E+00
      25     1     1     2     0     0 -7.605234232E+01 -2.495037389E+01 -3.972216660E+02  4.240477943E+02  1.250000000E+02  0.00000E+00  9.000E+00
      21     1     1     2   512   501 -1.441729680E+01  2.415094535E+01 -5.881605457E+02  5.888327047E+02  7.629394531E-06  0.00000E+00  9.000E+00
#rwgt            1           1   6.4079748083414628E-002          10      288136           0
</event>
<event>
      5   9999  3.19816E-02  5.90083E+01 -1.00000E+00  1.35091E-01
      21    -1     0     0   511   501  0.000000000E+00  0.000000000E+00  7.021773598E+01  7.021773598E+01  0.000000000E+00  0.00000E+00  9.000E+00
      21    -1     0     0   501   502  0.000000000E+00  0.000000000E+00 -3.293169717E+03  3.293169717E+03  0.000000000E+00  0.00000E+00  9.000E+00
      25     1     1     2     0     0 -3.856438753E+02 -6.749852521E+01 -1.070338925E+03  1.146528527E+03  1.250000000E+02  0.00000E+00  9.000E+00
      25     1     1     2     0     0  4.026903186E+02  1.239909661E+02 -2.064836891E+03  2.111092049E+03  1.250000000E+02  0.00000E+00  9.000E+00
      21     1     1     2   511   502 -1.704644323E+01 -5.649244090E+01 -8.777616531E+01  1.057668772E+02  2.523185073E-06  0.00000E+00  9.000E+00
#rwgt            1           1   3.3104780672865534E-002          10      288229           0
</event>
<event>
      5   9999  3.19816E-02  1.61790E+02 -1.00000E+00  1.15106E-01
      21    -1     0     0   502   512  0.000000000E+00  0.000000000E+00  3.116560144E+02  3.116560144E+02  0.000000000E+00  0.00000E+00  9.000E+00
      21    -1     0     0   501   502  0.000000000E+00  0.000000000E+00 -4.690930428E+02  4.690930428E+02  0.000000000E+00  0.00000E+00  9.000E+00
      25     1     1     2     0     0  5.329505686E+01  1.053584022E+02  5.544187868E+01  1.806642132E+02  1.250000000E+02  0.00000E+00  9.000E+00
      25     1     1     2     0     0 -2.113287088E+02 -7.069641872E+01 -3.174052600E+02  4.074664475E+02  1.250000000E+02  0.00000E+00  9.000E+00
      21     1     1     2   501   512  1.580336519E+02 -3.466198349E+01  1.045263529E+02  1.926183965E+02  3.015782986E-06  0.00000E+00  9.000E+00
#rwgt            1           1   2.8001560294194851E-002          10      288302           0
</event>
<event>
      5   9999  3.19816E-02  3.08008E+02 -1.00000E+00  1.05222E-01
      21    -1     0     0   502   501  0.000000000E+00  0.000000000E+00  2.546637927E+03  2.546637927E+03  0.000000000E+00  0.00000E+00  9.000E+00
      21    -1     0     0   501   511  0.000000000E+00  0.000000000E+00 -4.994678289E+02  4.994678289E+02  0.000000000E+00  0.00000E+00  9.000E+00
      25     1     1     2     0     0 -4.922559816E-01 -6.842384807E+02  1.934796491E+03  2.056026508E+03  1.250000000E+02  0.00000E+00  9.000E+00
      25     1     1     2     0     0  2.830498106E+02  5.616420471E+02  1.967173650E+02  6.707322163E+02  1.250000000E+02  0.00000E+00  9.000E+00
      21     1     1     2   502   511 -2.825575546E+02  1.225964336E+02 -8.434375759E+01  3.193470317E+02  6.743495762E-06  0.00000E+00  9.000E+00
#rwgt            2          11   6.1081612160216927E-003          10      288343           0
</event>
<event>
      5   9999  3.19816E-02  1.01887E+02 -1.00000E+00  1.23464E-01
      21    -1     0     0   502   512  0.000000000E+00  0.000000000E+00  6.387149878E+02  6.387149878E+02  0.000000000E+00  0.00000E+00  9.000E+00
      21    -1     0     0   501   502  0.000000000E+00  0.000000000E+00 -3.459296777E+02  3.459296777E+02  0.000000000E+00  0.00000E+00  9.000E+00
      25     1     1     2     0     0  1.647583933E+02  5.154119676E+01 -2.801177281E+02  3.519840404E+02  1.250000000E+02  0.00000E+00  9.000E+00
      25     1     1     2     0     0 -6.333118889E+01 -6.121295445E+01  4.357656259E+02  4.618165718E+02  1.250000000E+02  0.00000E+00  9.000E+00
      21     1     1     2   501   512 -1.014272044E+02  9.671757685E+00  1.371374122E+02  1.708440532E+02  3.303624740E-06  0.00000E+00  9.000E+00
#rwgt            1           1   2.4307003169854062E-002          10      288363           0
</event>
<event>
      5   9999  3.19816E-02  1.05514E+01 -1.00000E+00  1.93101E-01
      21    -1     0     0   502   501  0.000000000E+00  0.000000000E+00  1.552475117E+03  1.552475117E+03  0.000000000E+00  0.00000E+00  9.000E+00
      21    -1     0     0   511   502  0.000000000E+00  0.000000000E+00 -1.804219058E+02  1.804219058E+02  0.000000000E+00  0.00000E+00  9.000E+00
      25     1     1     2     0     0  2.865551191E+01  1.444099760E+02  4.378447204E+02  4.785481990E+02  1.250000000E+02  0.00000E+00  9.000E+00
      25     1     1     2     0     0 -2.614167137E+01 -1.546575531E+02  1.084902254E+03  1.103286113E+03  1.250000000E+02  0.00000E+00  9.000E+00
      21     1     1     2   511   501 -2.513840544E+00  1.024757706E+01 -1.506937635E+02  1.510627108E+02  5.394796609E-06  0.00000E+00  9.000E+00
#rwgt            1           1   2.8831598653532461E-002          10      288427           0
</event>
<event>
      5   9999  3.19816E-02  4.79890E+01 -1.00000E+00  1.40100E-01
      21    -1     0     0   512   501  0.000000000E+00  0.000000000E+00  3.089779929E+02  3.089779929E+02  0.000000000E+00  0.00000E+00  9.000E+00
      21    -1     0     0   501   502  0.000000000E+00  0.000000000E+00 -6.174232148E+02  6.174232148E+02  0.000000000E+00  0.00000E+00  9.000E+00
      25     1     1     2     0     0  7.862437115E+00  3.213773315E+02 -3.127167759E+01  3.463352782E+02  1.250000000E+02  0.00000E+00  9.000E+00
      25     1     1     2     0     0 -1.081597022E+01 -3.692753975E+02 -3.284123086E+02  5.098636571E+02  1.250000000E+02  0.00000E+00  9.000E+00
      21     1     1     2   512   502  2.953533105E+00  4.789806606E+01  5.123876423E+01  7.020227240E+01  1.168007728E-06  0.00000E+00  9.000E+00
#rwgt            1           1   2.8760497672075704E-002          10      288649           0
</event>
<event>
      5   9999  3.19816E-02  4.03857E+01 -1.00000E+00  1.44582E-01
       2    -1     0     0   502     0  0.000000000E+00  0.000000000E+00  2.668177120E+03  2.668177120E+03  0.000000000E+00  0.00000E+00  9.000E+00
      21    -1     0     0   501   502  0.000000000E+00  0.000000000E+00 -1.169949980E+02  1.169949980E+02  0.000000000E+00  0.00000E+00  9.000E+00
      25     1     1     2     0     0  3.915108957E+01  9.972005673E+01 -4.816218890E+01  1.715269482E+02  1.250000000E+02  0.00000E+00  9.000E+00
      25     1     1     2     0     0 -4.694782898E+01 -6.009409876E+01  7.667635131E+02  7.806194236E+02  1.250000000E+02  0.00000E+00  9.000E+00
       2     1     1     2   501     0  7.796739411E+00 -3.962595797E+01  1.832580797E+03  1.833025746E+03  2.157918644E-05  0.00000E+00  9.000E+00
#rwgt            1           1   2.7721233727319518E-002          10      288734           0
</event>
<event>
      5   9999  3.19816E-02  7.64266E+01 -1.00000E+00  1.29317E-01
      21    -1     0     0   502   501  0.000000000E+00  0.000000000E+00  5.526678550E+01  5.526678550E+01  0.000000000E+00  0.00000E+00  9.000E+00
      21    -1     0     0   511   502  0.000000000E+00  0.000000000E+00 -1.256892205E+03  1.256892205E+03  0.000000000E+00  0.00000E+00  9.000E+00
      25     1     1     2     0     0 -4.166364741E+01 -9.729602228E+01 -3.387463510E+02  3.762664824E+02  1.250000000E+02  0.00000E+00  9.000E+00
      25     1     1     2     0     0  2.896858264E+01  1.726609128E+02 -3.074806615E+02  3.752603454E+02  1.250000000E+02  0.00000E+00  9.000E+00
      21     1     1     2   511   501  1.269506477E+01 -7.536489056E+01 -5.553984065E+02  5.606321623E+02  0.000000000E+00  0.00000E+00  9.000E+00
#rwgt            1           1   2.9835438749503632E-002          10      288839           0
</event>
<event>
      5   9999  3.19816E-02  1.19578E+02 -1.00000E+00  1.20433E-01
       1    -1     0     0   502     0  0.000000000E+00  0.000000000E+00  1.762756361E+03  1.762756361E+03  0.000000000E+00  0.00000E+00  9.000E+00
      21    -1     0     0   501   502  0.000000000E+00  0.000000000E+00 -1.105299831E+03  1.105299831E+03  0.000000000E+00  0.00000E+00  9.000E+00
      25     1     1     2     0     0 -2.134160772E+02  9.319663840E+01 -1.058592577E+03  1.091089033E+03  1.250000000E+02  0.00000E+00  9.000E+00
      25     1     1     2     0     0  2.129010615E+02  2.637982973E+01  5.341739265E+02  5.890581815E+02  1.250000000E+02  0.00000E+00  9.000E+00
       1     1     1     2   501     0  5.150157400E-01 -1.195764681E+02  1.181875180E+03  1.187908977E+03  0.000000000E+00  0.00000E+00  9.000E+00
#rwgt            1           1   3.5447390608076251E-002          10      288929           0
</event>
<event>
      5   9999  3.19816E-02  1.12522E+02 -1.00000E+00  1.21566E-01
      21    -1     0     0   502   501  0.000000000E+00  0.000000000E+00  3.053020373E+02  3.053020373E+02  0.000000000E+00  0.00000E+00  9.000E+00
      21    -1     0     0   511   502  0.000000000E+00  0.000000000E+00 -5.685450728E+02  5.685450728E+02  0.000000000E+00  0.00000E+00  9.000E+00
      25     1     1     2     0     0  1.154826541E+02 -1.934428490E+01  1.266365678E+02  2.130076643E+02  1.250000000E+02  0.00000E+00  9.000E+00
      25     1     1     2     0     0 -2.262472179E+02  3.915604831E+01 -6.739022668E+00  2.615175217E+02  1.250000000E+02  0.00000E+00  9.000E+00
      21     1     1     2   511   501  1.107645638E+02 -1.981176341E+01 -3.831405806E+02  3.993219241E+02  5.394796609E-06  0.00000E+00  9.000E+00
#rwgt            1           1   3.0387294373418732E-002          10      289006           0
</event>
<event>
      5   9999  3.19816E-02  5.77971E+02 -1.00000E+00  9.70963E-02
       1    -1     0     0   502     0  0.000000000E+00  0.000000000E+00  2.581857509E+03  2.581857509E+03  0.000000000E+00  0.00000E+00  9.000E+00
      21    -1     0     0   501   502  0.000000000E+00  0.000000000E+00 -6.803325171E+02  6.803325171E+02  0.000000000E+00  0.00000E+00  9.000E+00
      25     1     1     2     0     0 -5.998361533E+02  4.270928463E+02 -3.207508279E+02  8.128454981E+02  1.250000000E+02  0.00000E+00  9.000E+00
      25     1     1     2     0     0  1.013139513E+02 -1.346438809E+02  1.544118252E+03  1.558306666E+03  1.250000000E+02  0.00000E+00  9.000E+00
       1     1     1     2   501     0  4.985222020E+02 -2.924489654E+02  6.781575677E+02  8.910378611E+02  1.078959322E-05  0.00000E+00  9.000E+00
#rwgt            2          17   4.3978918709881756E-004          10      289137           0
</event>
<event>
      5   9999  3.19816E-02  5.09987E+01 -1.00000E+00  1.38587E-01
      21    -1     0     0   502   511  0.000000000E+00  0.000000000E+00  2.841589100E+02  2.841589100E+02  0.000000000E+00  0.00000E+00  9.000E+00
      21    -1     0     0   501   502  0.000000000E+00  0.000000000E+00 -6.355086016E+02  6.355086016E+02  0.000000000E+00  0.00000E+00  9.000E+00
      25     1     1     2     0     0 -2.383833739E+02  1.057644830E+02 -4.705549848E+02  5.523221456E+02  1.250000000E+02  0.00000E+00  9.000E+00
      25     1     1     2     0     0  2.186920733E+02 -1.528082927E+02  8.768746382E+01  3.073933775E+02  1.250000000E+02  0.00000E+00  9.000E+00
      21     1     1     2   501   511  1.969130060E+01  4.704380972E+01  3.151782935E+01  5.995198845E+01  6.743495762E-07  0.00000E+00  9.000E+00
#rwgt            1           1   2.5422520396614221E-002          10      289171           0
</event>
<event>
      5   9999  3.19816E-02  4.52969E+01 -1.00000E+00  1.41568E-01
       2    -1     0     0   502     0  0.000000000E+00  0.000000000E+00  2.917335228E+03  2.917335228E+03  0.000000000E+00  0.00000E+00  9.000E+00
      21    -1     0     0   501   502  0.000000000E+00  0.000000000E+00 -1.256802029E+02  1.256802029E+02  0.000000000E+00  0.00000E+00  9.000E+00
      25     1     1     2     0     0 -2.712839979E+02  3.104690019E+01  1.167702058E+02  3.222098672E+02  1.250000000E+02  0.00000E+00  9.000E+00
      25     1     1     2     0     0  2.571982582E+02 -7.409803638E+01  9.399136143E+02  9.852431503E+02  1.250000000E+02  0.00000E+00  9.000E+00
       2     1     1     2   501     0  1.408573973E+01  4.305113618E+01  1.734971205E+03  1.735562413E+03  0.000000000E+00  0.00000E+00  9.000E+00
#rwgt            1           1   3.1378865167495662E-002          10      289271           0
</event>
<event>
      5   9999  3.19816E-02  4.52948E+01 -1.00000E+00  1.41570E-01
      21    -1     0     0   502   501  0.000000000E+00  0.000000000E+00  3.043056585E+02  3.043056585E+02  0.000000000E+00  0.00000E+00  9.000E+00
      21    -1     0     0   501   511  0.000000000E+00  0.000000000E+00 -4.671483989E+02  4.671483989E+02  0.000000000E+00  0.00000E+00  9.000E+00
      25     1     1     2     0     0 -1.304455567E+02  3.052638348E+02 -1.784391252E+02  3.970737633E+02  1.250000000E+02  0.00000E+00  9.000E+00
      25     1     1     2     0     0  1.473917974E+02 -2.632585775E+02  2.693235389E+01  3.276885294E+02  1.250000000E+02  0.00000E+00  9.000E+00
      21     1     1     2   502   511 -1.694624076E+01 -4.200525722E+01 -1.133596910E+01  4.669176486E+01  4.129530925E-07  0.00000E+00  9.000E+00
#rwgt            1           1   2.5905707874236860E-002          10      289335           0
</event>
<event>
      5   9999  3.19816E-02  4.98059E+01 -1.00000E+00  1.39172E-01
      21    -1     0     0   502   501  0.000000000E+00  0.000000000E+00  1.533620169E+02  1.533620169E+02  0.000000000E+00  0.00000E+00  9.000E+00
       2    -1     0     0   501     0  0.000000000E+00  0.000000000E+00 -1.420206845E+03  1.420206845E+03  0.000000000E+00  0.00000E+00  9.000E+00
      25     1     1     2     0     0  1.059693623E+01 -1.882753842E+02  2.384429977E+01  2.274938812E+02  1.250000000E+02  0.00000E+00  9.000E+00
      25     1     1     2     0     0 -2.911113481E+01  1.420384384E+02 -3.115153349E+02  3.656353102E+02  1.250000000E+02  0.00000E+00  9.000E+00
       2     1     1     2   502     0  1.851419859E+01  4.623694574E+01 -9.791737934E+02  9.804396710E+02  0.000000000E+00  0.00000E+00  9.000E+00
#rwgt            1           1   2.3585772999779746E-002          10      289461           0
</event>
<event>
      5   9999  3.19816E-02  1.90525E+01 -1.00000E+00  1.68127E-01
      21    -1     0     0   511   501  0.000000000E+00  0.000000000E+00  1.641401193E+03  1.641401193E+03  0.000000000E+00  0.00000E+00  9.000E+00
      21    -1     0     0   501   502  0.000000000E+00  0.000000000E+00 -1.277391907E+03  1.277391907E+03  0.000000000E+00  0.00000E+00  9.000E+00
      25     1     1     2     0     0 -1.220562963E+02  1.310219018E+03  6.203502811E+02  1.460147625E+03  1.250000000E+02  0.00000E+00  9.000E+00
      25     1     1     2     0     0  1.347499263E+02 -1.324427103E+03 -3.343951983E+02  1.378299620E+03  1.250000000E+02  0.00000E+00  9.000E+00
      21     1     1     2   511   502 -1.269362998E+01  1.420808557E+01  7.805420316E+01  8.034585595E+01  1.348699152E-06  0.00000E+00  9.000E+00
#rwgt            1           1   3.7611439311030073E-002          10      289540           0
</event>
<event>
      5   9999  3.19816E-02  3.87675E+01 -1.00000E+00  1.45688E-01
      21    -1     0     0   502   501  0.000000000E+00  0.000000000E+00  1.029493041E+02  1.029493041E+02  0.000000000E+00  0.00000E+00  9.000E+00
      21    -1     0     0   512   502  0.000000000E+00  0.000000000E+00 -9.620627171E+02  9.620627171E+02  0.000000000E+00  0.00000E+00  9.000E+00
      25     1     1     2     0     0  9.464708416E+01  2.254044476E+02 -3.938469173E+02  4.801100184E+02  1.250000000E+02  0.00000E+00  9.000E+00
      25     1     1     2     0     0 -1.310619320E+02 -2.387039705E+02 -3.371879176E+02  4.510848117E+02  1.250000000E+02  0.00000E+00  9.000E+00
      21     1     1     2   512   501  3.641484783E+01  1.329952294E+01 -1.280785781E+02  1.338171911E+02  0.000000000E+00  0.00000E+00  9.000E+00
#rwgt            1           1   3.2557303575572169E-002          10      289872           0
</event>
<event>
      5   9999  3.19816E-02  9.42336E+01 -1.00000E+00  1.24999E-01
      21    -1     0     0   502   501  0.000000000E+00  0.000000000E+00  1.037102339E+03  1.037102339E+03  0.000000000E+00  0.00000E+00  9.000E+00
      21    -1     0     0   501   511  0.000000000E+00  0.000000000E+00 -9.588235462E+01  9.588235462E+01  0.000000000E+00  0.00000E+00  9.000E+00
      25     1     1     2     0     0 -2.022461746E+02  1.227076104E+02  3.687024429E+02  4.555514946E+02  1.250000000E+02  0.00000E+00  9.000E+00
      25     1     1     2     0     0  1.506450810E+02 -4.385774918E+01  5.427081942E+02  5.785971194E+02  1.250000000E+02  0.00000E+00  9.000E+00
      21     1     1     2   502   511  5.160109365E+01 -7.884986119E+01  2.980934751E+01  9.883607983E+01  1.936921693E-06  0.00000E+00  9.000E+00
#rwgt            2          11   2.9423066587588201E-003          10      290142           0
</event>
<event>
      5   9999  3.19816E-02  2.92134E+00 -1.00000E+00  3.00415E-01
      21    -1     0     0   502   512  0.000000000E+00  0.000000000E+00  1.007601322E+02  1.007601322E+02  0.000000000E+00  0.00000E+00  9.000E+00
      21    -1     0     0   501   502  0.000000000E+00  0.000000000E+00 -1.285845705E+03  1.285845705E+03  0.000000000E+00  0.00000E+00  9.000E+00
      25     1     1     2     0     0 -1.732170442E+02 -1.924668906E+02 -1.000038334E+03  1.040552410E+03  1.250000000E+02  0.00000E+00  9.000E+00
      25     1     1     2     0     0  1.725028978E+02  1.952995926E+02 -1.849724133E+02  3.431311328E+02  1.250000000E+02  0.00000E+00  9.000E+00
      21     1     1     2   501   512  7.141464824E-01 -2.832702007E+00 -7.482548194E-02  2.922294425E+00  7.472666772E-08  0.00000E+00  9.000E+00
#rwgt            1           1   2.6452527341529218E-002          10      290192           0
</event>
<event>
      5   9999  3.19816E-02  2.55692E+01 -1.00000E+00  1.58022E-01
      21    -1     0     0   502   511  0.000000000E+00  0.000000000E+00  1.926014354E+02  1.926014354E+02  0.000000000E+00  0.00000E+00  9.000E+00
      21    -1     0     0   501   502  0.000000000E+00  0.000000000E+00 -8.785873009E+02  8.785873009E+02  0.000000000E+00  0.00000E+00  9.000E+00
      25     1     1     2     0     0  3.455471436E+02  1.230011521E+02 -3.757261509E+02  5.397473968E+02  1.250000000E+02  0.00000E+00  9.000E+00
      25     1     1     2     0     0 -3.569315743E+02 -1.458961497E+02 -2.978717103E+02  5.030292149E+02  1.250000000E+02  0.00000E+00  9.000E+00
      21     1     1     2   501   511  1.138443066E+01  2.289499760E+01 -1.238800435E+01  2.841212467E+01  6.743495762E-07  0.00000E+00  9.000E+00
#rwgt            1           1   2.6982801035831481E-002          10      290525           0
</event>
<event>
      5   9999  3.19816E-02  9.74574E+01 -1.00000E+00  1.24333E-01
      21    -1     0     0   502   512  0.000000000E+00  0.000000000E+00  3.024544872E+02  3.024544872E+02  0.000000000E+00  0.00000E+00  9.000E+00
      21    -1     0     0   501   502  0.000000000E+00  0.000000000E+00 -1.576841656E+03  1.576841656E+03  0.000000000E+00  0.00000E+00  9.000E+00
      25     1     1     2     0     0  4.324410379E+01 -5.047423934E+01  1.764326519E+02  2.262104816E+02  1.250000000E+02  0.00000E+00  9.000E+00
      25     1     1     2     0     0 -1.362412424E+02  2.132856938E+01 -1.521407838E+03  1.532750271E+03  1.250000000E+02  0.00000E+00  9.000E+00
      21     1     1     2   501   512  9.299713861E+01  2.914566996E+01  7.058801773E+01  1.203353901E+02  0.000000000E+00  0.00000E+00  9.000E+00
#rwgt            2          11   4.0792746023578181E-003          10      290806           0
</event>
<event>
      5   9999  3.19816E-02  3.93438E+01 -1.00000E+00  1.45287E-01
      21    -1     0     0   511   501  0.000000000E+00  0.000000000E+00  1.718760622E+03  1.718760622E+03  0.000000000E+00  0.00000E+00  9.000E+00
      21    -1     0     0   501   502  0.000000000E+00  0.000000000E+00 -2.197956888E+01  2.197956888E+01  0.000000000E+00  0.00000E+00  9.000E+00
      25     1     1     2     0     0 -9.036005069E+01 -4.717645040E+01  5.661445646E+02  5.886724252E+02  1.250000000E+02  0.00000E+00  9.000E+00
      25     1     1     2     0     0  1.269132222E+02  3.262303979E+01  8.902627628E+02  9.084954681E+02  1.250000000E+02  0.00000E+00  9.000E+00
      21     1     1     2   511   502 -3.655317155E+01  1.455341062E+01  2.403737255E+02  2.435722973E+02  2.697398305E-06  0.00000E+00  9.000E+00
#rwgt            1           1   2.5335729968787739E-002          10      290841           0
</event>
<event>
      5   9999  3.19816E-02  2.83807E+02 -1.00000E+00  1.06381E-01
      21    -1     0     0   502   501  0.000000000E+00  0.000000000E+00  3.673408356E+02  3.673408356E+02  0.000000000E+00  0.00000E+00  9.000E+00
      21    -1     0     0   512   502  0.000000000E+00  0.000000000E+00 -1.734744389E+03  1.734744389E+03  0.000000000E+00  0.00000E+00  9.000E+00
      25     1     1     2     0     0  4.911118145E+02 -4.014093051E+02 -3.981386575E+02  7.592493893E+02  1.250000000E+02  0.00000E+00  9.000E+00
      25     1     1     2     0     0 -2.122978023E+02  4.544124747E+02 -2.593962580E+02  5.783359514E+02  1.250000000E+02  0.00000E+00  9.000E+00
      21     1     1     2   512   501 -2.788140122E+02 -5.300316967E+01 -7.098686381E+02  7.644998841E+02  1.321449896E-05  0.00000E+00  9.000E+00
#rwgt            1           1   2.8979941462123484E-002          10      290919           0
</event>
<event>
      5   9999  3.19816E-02  1.30346E+01 -1.00000E+00  1.83329E-01
      21    -1     0     0   511   501  0.000000000E+00  0.000000000E+00  4.295391508E+02  4.295391508E+02  0.000000000E+00  0.00000E+00  9.000E+00
      21    -1     0     0   501   502  0.000000000E+00  0.000000000E+00 -5.379616650E+02  5.379616650E+02  0.000000000E+00  0.00000E+00  9.000E+00
      25     1     1     2     0     0 -2.014871443E+02 -3.498131411E+02  1.351587420E+02  4.436881659E+02  1.250000000E+02  0.00000E+00  9.000E+00
      25     1     1     2     0     0  2.089403661E+02  3.605065496E+02 -2.568677166E+02  5.052000324E+02  1.250000000E+02  0.00000E+00  9.000E+00
      21     1     1     2   511   502 -7.453221733E+00 -1.069340847E+01  1.328646039E+01  1.861261746E+01  2.384185791E-07  0.00000E+00  9.000E+00
#rwgt            1           1   2.8644628637137376E-002          10      291008           0
</event>
<event>
      5   9999  3.19816E-02  9.44123E+01 -1.00000E+00  1.24962E-01
      21    -1     0     0   512   501  0.000000000E+00  0.000000000E+00  2.608184046E+02  2.608184046E+02  0.000000000E+00  0.00000E+00  9.000E+00
      21    -1     0     0   501   502  0.000000000E+00  0.000000000E+00 -7.875599258E+02  7.875599258E+02  0.000000000E+00  0.00000E+00  9.000E+00
      25     1     1     2     0     0  1.548445151E+02  3.045763901E+02 -3.747290326E+02  5.222934512E+02  1.250000000E+02  0.00000E+00  9.000E+00
      25     1     1     2     0     0 -6.045838431E+01 -3.067994594E+02 -2.264861770E+02  4.058350809E+02  1.250000000E+02  0.00000E+00  9.000E+00
      21     1     1     2   512   502 -9.438613077E+01  2.223069310E+00  7.447368843E+01  1.202497983E+02  2.132480600E-06  0.00000E+00  9.000E+00
#rwgt            2          11   3.0383686625238561E-003          10      291217           0
</event>
<event>
      5   9999  3.19816E-02  7.84535E+01 -1.00000E+00  1.28761E-01
      21    -1     0     0   502   501  0.000000000E+00  0.000000000E+00  2.221643378E+02  2.221643378E+02  0.000000000E+00  0.00000E+00  9.000E+00
       2    -1     0     0   501     0  0.000000000E+00  0.000000000E+00 -3.605340696E+03  3.605340696E+03  0.000000000E+00  0.00000E+00  9.000E+00
      25     1     1     2     0     0  4.772500303E+02  3.200861137E+02 -3.450687972E+02  6.818505602E+02  1.250000000E+02  0.00000E+00  9.000E+00
      25     1     1     2     0     0 -5.550793513E+02 -3.299624633E+02 -2.016903327E+03  2.121441101E+03  1.250000000E+02  0.00000E+00  9.000E+00
       2     1     1     2   502     0  7.782932093E+01  9.876349585E+00 -1.021204233E+03  1.024213372E+03  2.157918644E-05  0.00000E+00  9.000E+00
#rwgt            1           1   1.6755612162431894E-002          10      291237           0
</event>
<event>
      5   9999  3.19816E-02  8.91056E+00 -1.00000E+00  2.01732E-01
      21    -1     0     0   511   501  0.000000000E+00  0.000000000E+00  2.898200959E+02  2.898200959E+02  0.000000000E+00  0.00000E+00  9.000E+00
      21    -1     0     0   501   502  0.000000000E+00  0.000000000E+00 -9.926272292E+02  9.926272292E+02  0.000000000E+00  0.00000E+00  9.000E+00
      25     1     1     2     0     0  5.050889556E+02  7.271954150E+01 -3.459426962E+02  6.290503429E+02  1.250000000E+02  0.00000E+00  9.000E+00
      25     1     1     2     0     0 -5.132123997E+02 -6.905788914E+01 -3.610669671E+02  6.435451142E+02  1.250000000E+02  0.00000E+00  9.000E+00
      21     1     1     2   511   502  8.123444120E+00 -3.661652355E+00  4.202530064E+00  9.851867909E+00  2.064765462E-07  0.00000E+00  9.000E+00
#rwgt            1           1   3.0848940446691810E-002          10      291294           0
</event>
<event>
      5   9999  3.19816E-02  5.27422E+01 -1.00000E+00  1.37765E-01
      21    -1     0     0   502   512  0.000000000E+00  0.000000000E+00  5.554997001E+02  5.554997001E+02  0.000000000E+00  0.00000E+00  9.000E+00
      21    -1     0     0   501   502  0.000000000E+00  0.000000000E+00 -1.204744294E+02  1.204744294E+02  0.000000000E+00  0.00000E+00  9.000E+00
      25     1     1     2     0     0 -1.537536724E+02  6.626302499E+01  1.616510244E+02  2.641723565E+02  1.250000000E+02  0.00000E+00  9.000E+00
      25     1     1     2     0     0  1.974838814E+02 -3.677733948E+01  1.567610361E+02  2.838159237E+02  1.250000000E+02  0.00000E+00  9.000E+00
      21     1     1     2   501   512 -4.373020905E+01 -2.948568551E+01  1.166132102E+02  1.279858493E+02  1.907348633E-06  0.00000E+00  9.000E+00
#rwgt            1           1   2.6543366500669883E-002          10      291579           0
</event>
<event>
      5   9999  3.19816E-02  1.10133E+02 -1.00000E+00  1.21971E-01
      21    -1     0     0   502   501  0.000000000E+00  0.000000000E+00  1.056133161E+03  1.056133161E+03  0.000000000E+00  0.00000E+00  9.000E+00
      21    -1     0     0   511   502  0.000000000E+00  0.000000000E+00 -5.545054898E+02  5.545054898E+02  0.000000000E+00  0.00000E+00  9.000E+00
      25     1     1     2     0     0 -2.594023005E+02  5.986563772E+02  6.435350082E+02  9.249007072E+02  1.250000000E+02  0.00000E+00  9.000E+00
      25     1     1     2     0     0  2.113965108E+02 -4.995363503E+02 -8.957285793E+01  5.638025780E+02  1.250000000E+02  0.00000E+00  9.000E+00
      21     1     1     2   511   501  4.800578970E+01 -9.912002685E+01 -5.233447931E+01  1.219353652E+02  2.336015456E-06  0.00000E+00  9.000E+00
#rwgt            1           1   3.1363943164235124E-002          10      291663           0
</event>
<event>
      5   9999  3.19816E-02  5.79618E+01 -1.00000E+00  1.35510E-01
      21    -1     0     0   512   501  0.000000000E+00  0.000000000E+00  1.889806443E+02  1.889806443E+02  0.000000000E+00  0.00000E+00  9.000E+00
      21    -1     0     0   501   502  0.000000000E+00  0.000000000E+00 -5.360122753E+02  5.360122753E+02  0.000000000E+00  0.00000E+00  9.000E+00
      25     1     1     2     0     0  3.823423213E+01 -2.719241804E+02 -2.654326269E+02  4.018508378E+02  1.250000000E+02  0.00000E+00  9.000E+00
      25     1     1     2     0     0 -5.103323970E+01  2.153931168E+02 -7.345089325E+01  2.646103173E+02  1.250000000E+02  0.00000E+00  9.000E+00
      21     1     1     2   512   502  1.279900758E+01  5.653106362E+01 -8.148110813E+00  5.853176453E+01  1.118282261E-06  0.00000E+00  9.000E+00
#rwgt            1           1   2.7173808540714831E-002          10      291733           0
</event>
<event>
      5   9999  3.19816E-02  7.67207E+01 -1.00000E+00  1.29236E-01
      21    -1     0     0   502   501  0.000000000E+00  0.000000000E+00  8.794598252E+02  8.794598252E+02  0.000000000E+00  0.00000E+00  9.000E+00
      21    -1     0     0   501   511  0.000000000E+00  0.000000000E+00 -3.025092691E+02  3.025092691E+02  0.000000000E+00  0.00000E+00  9.000E+00
      25     1     1     2     0     0 -1.506100186E+02 -6.692332345E+01  8.101000374E+02  8.360916095E+02  1.250000000E+02  0.00000E+00  9.000E+00
      25     1     1     2     0     0  7.721222146E+01  4.458900694E+01 -7.670806032E+01  1.716363400E+02  1.250000000E+02  0.00000E+00  9.000E+00
      21     1     1     2   502   511  7.339779714E+01  2.233431651E+01 -1.564414210E+02  1.742411447E+02  3.814697266E-06  0.00000E+00  9.000E+00
#rwgt            1           1   2.9895523421092689E-002          10      291820           0
</event>
<event>
      5   9999  3.19816E-02  1.04898E+02 -1.00000E+00  1.22901E-01
       2    -1     0     0   502     0  0.000000000E+00  0.000000000E+00  2.002614706E+03  2.002614706E+03  0.000000000E+00  0.00000E+00  9.000E+00
      21    -1     0     0   501   502  0.000000000E+00  0.000000000E+00 -5.758450010E+01  5.758450010E+01  0.000000000E+00  0.00000E+00  9.000E+00
      25     1     1     2     0     0 -6.998474943E+01  7.602642489E+01  2.941068725E+02  3.358596952E+02  1.250000000E+02  0.00000E+00  9.000E+00
      25     1     1     2     0     0  1.637166873E+02 -2.893173024E+01  2.769201558E+02  3.463379439E+02  1.250000000E+02  0.00000E+00  9.000E+00
       2     1     1     2   501     0 -9.373193782E+01 -4.709469464E+01  1.374003178E+03  1.378001567E+03  2.642899792E-05  0.00000E+00  9.000E+00
#rwgt            1           1   3.4534242542078951E-002          10      291893           0
</event>
<event>
      5   9999  3.19816E-02  5.47848E+01 -1.00000E+00  1.36848E-01
      21    -1     0     0   511   501  0.000000000E+00  0.000000000E+00  3.292692152E+02  3.292692152E+02  0.000000000E+00  0.00000E+00  9.000E+00
      21    -1     0     0   501   502  0.000000000E+00  0.000000000E+00 -9.511696484E+02  9.511696484E+02  0.000000000E+00  0.00000E+00  9.000E+00
      25     1     1     2     0     0 -4.959519535E+02  1.692812763E+02 -1.602692925E+02  5.620816105E+02  1.250000000E+02  0.00000E+00  9.000E+00
      25     1     1     2     0     0  4.421496708E+02 -1.796101862E+02 -4.336719012E+02  6.568504154E+02  1.250000000E+02  0.00000E+00  9.000E+00
      21     1     1     2   511   502  5.380228278E+01  1.032890991E+01 -2.795923942E+01  6.150683768E+01  8.259061849E-07  0.00000E+00  9.000E+00
#rwgt            1           1   2.9346896909222403E-002          10      291936           0
</event>
<event>
      5   9999  3.19816E-02  8.71928E+01 -1.00000E+00  1.26565E-01
      21    -1     0     0   502   501  0.000000000E+00  0.000000000E+00  8.419145821E+01  8.419145821E+01  0.000000000E+00  0.00000E+00  9.000E+00
      21    -1     0     0   512   502  0.000000000E+00  0.000000000E+00 -1.311728576E+03  1.311728576E+03  0.000000000E+00  0.00000E+00  9.000E+00
      25     1     1     2     0     0  1.412670469E+02 -1.990668920E+02 -9.077623766E+02  9.482834695E+02  1.250000000E+02  0.00000E+00  9.000E+00
      25     1     1     2     0     0 -1.244167258E+02  1.135178142E+02 -1.535767823E+02  2.599550805E+02  1.250000000E+02  0.00000E+00  9.000E+00
      21     1     1     2   512   501 -1.685032103E+01  8.554907777E+01 -1.661979592E+02  1.876814846E+02  2.697398305E-06  0.00000E+00  9.000E+00
#rwgt            1           1   3.2968592242375222E-002          10      292037           0
</event>
<event>
      5   9999  3.19816E-02  4.01350E+01 -1.00000E+00  1.44749E-01
      21    -1     0     0   502   501  0.000000000E+00  0.000000000E+00  3.950745514E+02  3.950745514E+02  0.000000000E+00  0.00000E+00  9.000E+00
      21    -1     0     0   511   502  0.000000000E+00  0.000000000E+00 -2.581009436E+02  2.581009436E+02  0.000000000E+00  0.00000E+00  9.000E+00
      25     1     1     2     0     0 -2.245214205E+02  5.470626242E+01  4.640836678E+01  2.667983881E+02  1.250000000E+02  0.00000E+00  9.000E+00
      25     1     1     2     0     0  2.575222217E+02 -3.186400148E+01  1.420082832E+02  3.211298207E+02  1.250000000E+02  0.00000E+00  9.000E+00
      21     1     1     2   511   501 -3.300080124E+01 -2.284226094E+01 -5.144304211E+01  6.524728614E+01  9.536743164E-07  0.00000E+00  9.000E+00
#rwgt            1           1   2.6853969310161593E-002          10      292091           0
</event>
<event>
      5   9999  3.19816E-02  4.92669E+01 -1.00000E+00  1.39443E-01
      -2    -1     0     0     0   501  0.000000000E+00  0.000000000E+00  9.613035949E+02  9.613035949E+02  0.000000000E+00  0.00000E+00  9.000E+00
      21    -1     0     0   501   502  0.000000000E+00  0.000000000E+00 -1.056734115E+03  1.056734115E+03  0.000000000E+00  0.00000E+00  9.000E+00
      25     1     1     2     0     0 -3.555495059E+02 -3.342376855E+01 -8.274967766E+02  9.098947822E+02  1.250000000E+02  0.00000E+00  9.000E+00
      25     1     1     2     0     0  3.380931639E+02  7.949438556E+01 -5.272515519E+00  3.691600523E+02  1.250000000E+02  0.00000E+00  9.000E+00
      -2     1     1     2     0   502  1.745634203E+01 -4.607061701E+01  7.373387719E+02  7.389828754E+02  0.000000000E+00  0.00000E+00  9.000E+00
#rwgt            1           1   2.4863837185506062E-002          10      292227           0
</event>
<event>
      5   9999  3.19816E-02  1.51122E+02 -1.00000E+00  1.16265E-01
      21    -1     0     0   502   501  0.000000000E+00  0.000000000E+00  5.059380027E+02  5.059380027E+02  0.000000000E+00  0.00000E+00  9.000E+00
      -3    -1     0     0     0   502  0.000000000E+00  0.000000000E+00 -7.187792492E+02  7.187792492E+02  0.000000000E+00  0.00000E+00  9.000E+00
      25     1     1     2     0     0  1.523744039E+02  4.614728253E+02  9.208971820E+01  5.101770709E+02  1.250000000E+02  0.00000E+00  9.000E+00
      25     1     1     2     0     0 -1.758658779E+02 -3.121874388E+02 -3.874637498E+02  5.423494827E+02  1.250000000E+02  0.00000E+00  9.000E+00
      -3     1     1     2     0   501  2.349147396E+01 -1.492853864E+02  8.253278515E+01  1.721906983E+02  0.000000000E+00  0.00000E+00  9.000E+00
#rwgt            1           1   3.0326482834358539E-002          10      292332           0
</event>
<event>
      5   9999  3.19816E-02  6.74952E+02 -1.00000E+00  9.52860E-02
      21    -1     0     0   502   501  0.000000000E+00  0.000000000E+00  5.615915073E+02  5.615915073E+02  0.000000000E+00  0.00000E+00  9.000E+00
       2    -1     0     0   501     0  0.000000000E+00  0.000000000E+00 -1.951539572E+03  1.951539572E+03  0.000000000E+00  0.00000E+00  9.000E+00
      25     1     1     2     0     0  3.711127403E+02  2.542541079E+02 -4.348706154E+02  6.380495824E+02  1.250000000E+02  0.00000E+00  9.000E+00
      25     1     1     2     0     0  7.015556397E+01  2.564739439E+02  3.187378645E+02  4.334968435E+02  1.250000000E+02  0.00000E+00  9.000E+00
       2     1     1     2   502     0 -4.412683043E+02 -5.107280518E+02 -1.273815314E+03  1.441584653E+03  1.525878906E-05  0.00000E+00  9.000E+00
#rwgt            2          13   1.5516316690053821E-003          10      292454           0
</event>
<event>
      5   9999  3.19816E-02  6.85399E+01 -1.00000E+00  1.31686E-01
      21    -1     0     0   511   501  0.000000000E+00  0.000000000E+00  6.908876584E+02  6.908876584E+02  0.000000000E+00  0.00000E+00  9.000E+00
      21    -1     0     0   501   502  0.000000000E+00  0.000000000E+00 -2.856086333E+02  2.856086333E+02  0.000000000E+00  0.00000E+00  9.000E+00
      25     1     1     2     0     0  1.384197524E+02  2.077726657E+02  2.001579554E+02  3.435370657E+02  1.250000000E+02  0.00000E+00  9.000E+00
      25     1     1     2     0     0 -1.309589912E+02 -2.759052503E+02 -8.013139456E+01  3.395879929E+02  1.250000000E+02  0.00000E+00  9.000E+00
      21     1     1     2   511   502 -7.460761120E+00  6.813258460E+01  2.852524643E+02  2.933712331E+02  0.000000000E+00  0.00000E+00  9.000E+00
#rwgt            2          11   1.8006207843120469E-003          10      292668           0
</event>
<event>
      5   9999  3.19816E-02  2.36018E+02 -1.00000E+00  1.09091E-01
      21    -1     0     0   502   501  0.000000000E+00  0.000000000E+00  2.703909668E+02  2.703909668E+02  0.000000000E+00  0.00000E+00  9.000E+00
      21    -1     0     0   501   512  0.000000000E+00  0.000000000E+00 -5.470610816E+02  5.470610816E+02  0.000000000E+00  0.00000E+00  9.000E+00
      25     1     1     2     0     0  8.666585970E+01 -2.961300387E+02 -1.442180899E+02  3.628054968E+02  1.250000000E+02  0.00000E+00  9.000E+00
      25     1     1     2     0     0  2.278336636E+01  8.702436880E+01  4.376432142E+01  1.601019624E+02  1.250000000E+02  0.00000E+00  9.000E+00
      21     1     1     2   502   512 -1.094492261E+02  2.091056699E+02 -1.762163463E+02  2.945445891E+02  2.697398305E-06  0.00000E+00  9.000E+00
#rwgt            1           1   2.8720298792197438E-002          10      292688           0
</event>
<event>
      5   9999  3.19816E-02  3.26144E+01 -1.00000E+00  1.50561E-01
      21    -1     0     0   502   511  0.000000000E+00  0.000000000E+00  1.160717826E+03  1.160717826E+03  0.000000000E+00  0.00000E+00  9.000E+00
      21    -1     0     0   501   502  0.000000000E+00  0.000000000E+00 -1.479881140E+02  1.479881140E+02  0.000000000E+00  0.00000E+00  9.000E+00
      25     1     1     2     0     0 -3.049405466E+02  6.447335653E+01  6.819118996E+02  7.601147212E+02  1.250000000E+02  0.00000E+00  9.000E+00
      25     1     1     2     0     0  2.748801853E+02 -5.182132101E+01  1.102331907E+02  3.256085409E+02  1.250000000E+02  0.00000E+00  9.000E+00
      21     1     1     2   501   511  3.006036128E+01 -1.265203551E+01  2.205846220E+02  2.229826783E+02  3.814697266E-06  0.00000E+00  9.000E+00
#rwgt            1           1   2.5686276315874168E-002          10      292726           0
</event>
<event>
      5   9999  3.19816E-02  3.24644E+01 -1.00000E+00  1.50696E-01
      21    -1     0     0   502   501  0.000000000E+00  0.000000000E+00  3.159364652E+03  3.159364652E+03  0.000000000E+00  0.00000E+00  9.000E+00
      21    -1     0     0   501   512  0.000000000E+00  0.000000000E+00 -2.144926124E+01  2.144926124E+01  0.000000000E+00  0.00000E+00  9.000E+00
      25     1     1     2     0     0  1.839905401E+02  9.194006532E+01  2.075944216E+03  2.089850445E+03  1.250000000E+02  0.00000E+00  9.000E+00
      25     1     1     2     0     0 -1.516787424E+02 -8.879636640E+01  8.745830456E+02  9.007839581E+02  1.250000000E+02  0.00000E+00  9.000E+00
      21     1     1     2   502   512 -3.231179772E+01 -3.143698923E+00  1.873881287E+02  1.901795096E+02  2.697398305E-06  0.00000E+00  9.000E+00
#rwgt            1           1   2.8475186804832599E-002          10      292866           0
</event>
<event>
      5   9999  3.19816E-02  5.53622E+01 -1.00000E+00  1.36597E-01
      21    -1     0     0   502   501  0.000000000E+00  0.000000000E+00  1.568797416E+03  1.568797416E+03  0.000000000E+00  0.00000E+00  9.000E+00
      21    -1     0     0   511   502  0.000000000E+00  0.000000000E+00 -1.012927351E+03  1.012927351E+03  0.000000000E+00  0.00000E+00  9.000E+00
      25     1     1     2     0     0 -9.872442631E+01 -2.590767804E+02  1.395225696E+03  1.427987056E+03  1.250000000E+02  0.00000E+00  9.000E+00
      25     1     1     2     0     0  5.282999012E+01  2.900393240E+02 -7.769812327E+00  3.203110790E+02  1.250000000E+02  0.00000E+00  9.000E+00
      21     1     1     2   511   501  4.589443619E+01 -3.096254363E+01 -8.315858185E+02  8.334266326E+02  1.525878906E-05  0.00000E+00  9.000E+00
#rwgt            1           1   2.8938879952842011E-002          10      292956           0
</event>
<event>
      5   9999  3.19816E-02  5.49427E+01 -1.00000E+00  1.36779E-01
      21    -1     0     0   502   501  0.000000000E+00  0.000000000E+00  6.092981854E+02  6.092981854E+02  0.000000000E+00  0.00000E+00  9.000E+00
      21    -1     0     0   512   502  0.000000000E+00  0.000000000E+00 -1.260298548E+02  1.260298548E+02  0.000000000E+00  0.00000E+00  9.000E+00
      25     1     1     2     0     0  2.143306497E+01 -6.561230787E+00  7.837072352E+01  1.492293414E+02  1.250000000E+02  0.00000E+00  9.000E+00
      25     1     1     2     0     0  2.643334234E+01  3.353361562E+01  4.772822992E+02  4.952238060E+02  1.250000000E+02  0.00000E+00  9.000E+00
      21     1     1     2   512   501 -4.786640731E+01 -2.697238483E+01 -7.238469207E+01  9.087489278E+01  1.651812370E-06  0.00000E+00  9.000E+00
#rwgt            1           1   2.5830919288211004E-002          10      293096           0
</event>
<event>
      5   9999  3.19816E-02  7.71064E+01 -1.00000E+00  1.29129E-01
      21    -1     0     0   511   501  0.000000000E+00  0.000000000E+00  5.564271598E+02  5.564271598E+02  0.000000000E+00  0.00000E+00  9.000E+00
      21    -1     0     0   501   502  0.000000000E+00  0.000000000E+00 -1.082140330E+02  1.082140330E+02  0.000000000E+00  0.00000E+00  9.000E+00
      25     1     1     2     0     0 -3.606231534E-01 -1.573918955E+02  3.053840746E+02  3.655909898E+02  1.250000000E+02  0.00000E+00  9.000E+00
      25     1     1     2     0     0  5.928769592E+01  1.076625938E+02  5.855416571E+01  1.848238494E+02  1.250000000E+02  0.00000E+00  9.000E+00
      21     1     1     2   511   502 -5.892707276E+01  4.972930163E+01  8.427488656E+01  1.142263536E+02  2.697398305E-06  0.00000E+00  9.000E+00
#rwgt            1           1   2.6940749024210443E-002          10      293178           0
</event>
<event>
      5   9999  3.19816E-02  3.24282E+02 -1.00000E+00  1.04505E-01
      21    -1     0     0   502   501  0.000000000E+00  0.000000000E+00  1.362042622E+03  1.362042622E+03  0.000000000E+00  0.00000E+00  9.000E+00
      -4    -1     0     0     0   502  0.000000000E+00  0.000000000E+00 -7.264547566E+02  7.264547566E+02  0.000000000E+00  0.00000E+00  9.000E+00
      25     1     1     2     0     0  1.663319394E+02 -1.657667778E+02  1.399843053E+01  2.663942468E+02  1.250000000E+02  0.00000E+00  9.000E+00
      25     1     1     2     0     0 -2.370916863E+02  4.822347652E+02  1.107852287E+03  1.237628590E+03  1.250000000E+02  0.00000E+00  9.000E+00
      -4     1     1     2     0   501  7.075974696E+01 -3.164679874E+02 -4.862628521E+02  5.844745420E+02  1.525878906E-05  0.00000E+00  9.000E+00
#rwgt            2           7   7.9446678813720482E-005          10      293273           0
</event>
<event>
      5   9999  3.19816E-02  7.41662E+01 -1.00000E+00  1.29962E-01
      21    -1     0     0   511   501  0.000000000E+00  0.000000000E+00  5.596302683E+02  5.596302683E+02  0.000000000E+00  0.00000E+00  9.000E+00
      21    -1     0     0   501   502  0.000000000E+00  0.000000000E+00 -1.557610030E+02  1.557610030E+02  0.000000000E+00  0.00000E+00  9.000E+00
      25     1     1     2     0     0  1.358839417E+02 -1.629446576E+02  5.368183406E+01  2.520360021E+02  1.250000000E+02  0.00000E+00  9.000E+00
      25     1     1     2     0     0 -6.357099183E+01  1.794205732E+02  2.431794339E+02  3.331579957E+02  1.250000000E+02  0.00000E+00  9.000E+00
      21     1     1     2   511   502 -7.231294988E+01 -1.647591557E+01  1.070079973E+02  1.301972734E+02  1.907348633E-06  0.00000E+00  9.000E+00
#rwgt            1           1   2.6290055471308332E-002          10      293292           0
</event>
<event>
      5   9999  3.19816E-02  2.34850E+01 -1.00000E+00  1.60812E-01
      21    -1     0     0   502   501  0.000000000E+00  0.000000000E+00  6.548577850E+01  6.548577850E+01  0.000000000E+00  0.00000E+00  9.000E+00
      21    -1     0     0   501   512  0.000000000E+00  0.000000000E+00 -2.997369362E+03  2.997369362E+03  0.000000000E+00  0.00000E+00  9.000E+00
      25     1     1     2     0     0  2.706211328E+02  3.942822548E+01 -2.436768449E+03  2.455250671E+03  1.250000000E+02  0.00000E+00  9.000E+00
      25     1     1     2     0     0 -2.824321490E+02 -1.912933572E+01 -3.797160533E+02  4.898399038E+02  1.250000000E+02  0.00000E+00  9.000E+00
      21     1     1     2   502   512  1.181101621E+01 -2.029888976E+01 -1.153990811E+02  1.177645658E+02  1.348699152E-06  0.00000E+00  9.000E+00
#rwgt            1           1   5.8443711471772956E-002          10      293374           0
</event>
<event>
      5   9999  3.19816E-02  8.19799E+01 -1.00000E+00  1.27838E-01
      21    -1     0     0   502   501  0.000000000E+00  0.000000000E+00  2.746471560E+02  2.746471560E+02  0.000000000E+00  0.00000E+00  9.000E+00
       2    -1     0     0   501     0  0.000000000E+00  0.000000000E+00 -6.078737558E+02  6.078737558E+02  0.000000000E+00  0.00000E+00  9.000E+00
      25     1     1     2     0     0  3.462446662E+01 -2.103800905E+02 -3.817397453E+02  4.547624318E+02  1.250000000E+02  0.00000E+00  9.000E+00
      25     1     1     2     0     0 -7.114655599E+01  1.369850180E+02  1.831171105E+02  2.701547774E+02  1.250000000E+02  0.00000E+00  9.000E+00
       2     1     1     2   502     0  3.652208938E+01  7.339507251E+01 -1.346039651E+02  1.576037027E+02  0.000000000E+00  0.00000E+00  9.000E+00
#rwgt            1           1   2.9974949862148347E-002          10      293525           0
</event>
<event>
      5   9999  3.19816E-02  6.57586E+01 -1.00000E+00  1.32610E-01
       2    -1     0     0   502     0  0.000000000E+00  0.000000000E+00  5.909338436E+02  5.909338436E+02  0.000000000E+00  0.00000E+00  9.000E+00
      21    -1     0     0   501   502  0.000000000E+00  0.000000000E+00 -7.005722444E+02  7.005722444E+02  0.000000000E+00  0.00000E+00  9.000E+00
      25     1     1     2     0     0 -5.243937928E+01  5.810410443E+01  6.508010545E+01  1.612029639E+02  1.250000000E+02  0.00000E+00  9.000E+00
      25     1     1     2     0     0  2.501428707E+01 -1.178708463E+02 -6.386014505E+02  6.617824896E+02  1.250000000E+02  0.00000E+00  9.000E+00
       2     1     1     2   501     0  2.742509221E+01  5.976674192E+01  4.638829442E+02  4.685206346E+02  0.000000000E+00  0.00000E+00  9.000E+00
#rwgt            1           1   2.7099828673095357E-002          10      293617           0
</event>
<event>
      5   9999  3.19816E-02  6.15635E+01 -1.00000E+00  1.34109E-01
      21    -1     0     0   511   501  0.000000000E+00  0.000000000E+00  9.201298441E+01  9.201298441E+01  0.000000000E+00  0.00000E+00  9.000E+00
      21    -1     0     0   501   502  0.000000000E+00  0.000000000E+00 -2.062718997E+03  2.062718997E+03  0.000000000E+00  0.00000E+00  9.000E+00
      25     1     1     2     0     0  2.154081273E+02 -2.612089580E+02 -4.823802591E+02  6.024504091E+02  1.250000000E+02  0.00000E+00  9.000E+00
      25     1     1     2     0     0 -1.548070164E+02  2.503662384E+02 -1.436921143E+03  1.472078747E+03  1.250000000E+02  0.00000E+00  9.000E+00
      21     1     1     2   511   502 -6.060111082E+01  1.084271960E+01 -5.140460972E+01  8.020282477E+01  1.348699152E-06  0.00000E+00  9.000E+00
#rwgt            1           1   2.7840780443423564E-002          10      293675           0
</event>
<event>
      5   9999  3.19816E-02  2.90451E+01 -1.00000E+00  1.54022E-01
      21    -1     0     0   502   512  0.000000000E+00  0.000000000E+00  4.998889935E+02  4.998889935E+02  0.000000000E+00  0.00000E+00  9.000E+00
      21    -1     0     0   501   502  0.000000000E+00  0.000000000E+00 -2.440104866E+02  2.440104866E+02  0.000000000E+00  0.00000E+00  9.000E+00
      25     1     1     2     0     0 -1.613858731E+02  1.521090552E+02  2.104057977E+02  3.302698357E+02  1.250000000E+02  0.00000E+00  9.000E+00
      25     1     1     2     0     0  1.558285943E+02 -1.236005075E+02 -1.072005481E+02  2.582181128E+02  1.250000000E+02  0.00000E+00  9.000E+00
      21     1     1     2   501   512  5.557278780E+00 -2.850854769E+01  1.526732574E+02  1.554115316E+02  2.697398305E-06  0.00000E+00  9.000E+00
#rwgt            1           1   2.6620603869644828E-002          10      293796           0
</event>
<event>
      5   9999  3.19816E-02  5.41786E+01 -1.00000E+00  1.37115E-01
       3    -1     0     0   502     0  0.000000000E+00  0.000000000E+00  8.840390383E+02  8.840390383E+02  0.000000000E+00  0.00000E+00  9.000E+00
      21    -1     0     0   501   502  0.000000000E+00  0.000000000E+00 -8.171546466E+01  8.171546466E+01  0.000000000E+00  0.00000E+00  9.000E+00
      25     1     1     2     0     0 -5.612301821E+00 -6.051888563E+01  6.560401651E+02  6.706025139E+02  1.250000000E+02  0.00000E+00  9.000E+00
      25     1     1     2     0     0  7.824123641E+00  6.385450873E+00 -1.378549443E+01  1.261627154E+02  1.250000000E+02  0.00000E+00  9.000E+00
       3     1     1     2   501     0 -2.211821820E+00  5.413343476E+01  1.600689029E+02  1.689892736E+02  0.000000000E+00  0.00000E+00  9.000E+00
#rwgt            1           1   3.1938177592563705E-002          10      293906           0
</event>
<event>
      5   9999  3.19816E-02  2.26698E+01 -1.00000E+00  1.62001E-01
      21    -1     0     0   511   501  0.000000000E+00  0.000000000E+00  3.834448309E+02  3.834448309E+02  0.000000000E+00  0.00000E+00  9.000E+00
      21    -1     0     0   501   502  0.000000000E+00  0.000000000E+00 -1.215305363E+02  1.215305363E+02  0.000000000E+00  0.00000E+00  9.000E+00
      25     1     1     2     0     0 -8.821427936E+01  8.452681056E+01  4.527260521E+01  1.805578843E+02  1.250000000E+02  0.00000E+00  9.000E+00
      25     1     1     2     0     0  9.847197573E+01 -6.431050011E+01  8.627830263E+01  1.920976729E+02  1.250000000E+02  0.00000E+00  9.000E+00
      21     1     1     2   511   502 -1.025769637E+01 -2.021631044E+01  1.303633867E+02  1.323198101E+02  1.907348633E-06  0.00000E+00  9.000E+00
#rwgt            1           1   2.4174845749080538E-002          10      293980           0
</event>
<event>
      5   9999  3.19816E-02  1.02008E+02 -1.00000E+00  1.23441E-01
      21    -1     0     0   512   501  0.000000000E+00  0.000000000E+00  6.858233646E+02  6.858233646E+02  0.000000000E+00  0.00000E+00  9.000E+00
      21    -1     0     0   501   502  0.000000000E+00  0.000000000E+00 -4.083908952E+02  4.083908952E+02  0.000000000E+00  0.00000E+00  9.000E+00
      25     1     1     2     0     0  7.177902668E+01 -1.584645104E+02  1.596832978E+02  2.671834301E+02  1.250000000E+02  0.00000E+00  9.000E+00
      25     1     1     2     0     0  1.559884861E+01  1.058269614E+02 -3.295030488E+02  3.682932649E+02  1.250000000E+02  0.00000E+00  9.000E+00
      21     1     1     2   512   502 -8.737787528E+01  5.263754896E+01  4.472522204E+02  4.587375647E+02  5.394796609E-06  0.00000E+00  9.000E+00
#rwgt            1           1   2.7211768572372723E-002          10      294074           0
</event>
<event>
      5   9999  3.19816E-02  3.34353E+02 -1.00000E+00  1.04084E-01
       2    -1     0     0   502     0  0.000000000E+00  0.000000000E+00  9.685871518E+02  9.685871518E+02  0.000000000E+00  0.00000E+00  9.000E+00
      21    -1     0     0   501   502  0.000000000E+00  0.000000000E+00 -1.555258633E+03  1.555258633E+03  0.000000000E+00  0.00000E+00  9.000E+00
      25     1     1     2     0     0 -4.809343433E+02 -6.120519718E+02 -4.792599479E+02  9.226161479E+02  1.250000000E+02  0.00000E+00  9.000E+00
      25     1     1     2     0     0  3.728661201E+02  2.956456752E+02 -7.383030278E+02  8.872157966E+02  1.250000000E+02  0.00000E+00  9.000E+00
       2     1     1     2   501     0  1.080682233E+02  3.164062966E+02  6.308914949E+02  7.140138400E+02  7.629394531E-06  0.00000E+00  9.000E+00
#rwgt            2          18   1.7786503425641842E-003          10      294154           0
</event>
<event>
      5   9999  3.19816E-02  8.87370E+01 -1.00000E+00  1.26208E-01
      21    -1     0     0   502   511  0.000000000E+00  0.000000000E+00  1.463165227E+03  1.463165227E+03  0.000000000E+00  0.00000E+00  9.000E+00
      21    -1     0     0   501   502  0.000000000E+00  0.000000000E+00 -4.221461699E+02  4.221461699E+02  0.000000000E+00  0.00000E+00  9.000E+00
      25     1     1     2     0     0 -6.551118094E+02  2.387131427E+02  7.308460820E+02  1.017799805E+03  1.250000000E+02  0.00000E+00  9.000E+00
      25     1     1     2     0     0  6.729906790E+02 -1.517959758E+02  2.062060526E+02  7.308244717E+02  1.250000000E+02  0.00000E+00  9.000E+00
      21     1     1     2   501   511 -1.787886963E+01 -8.691716687E+01  1.039669228E+02  1.366871205E+02  0.000000000E+00  0.00000E+00  9.000E+00
#rwgt            1           1   3.0851202946159811E-002          10      294233           0
</event>
<event>
      5   9999  3.19816E-02  2.98920E+01 -1.00000E+00  1.53149E-01
      21    -1     0     0   502   501  0.000000000E+00  0.000000000E+00  5.425102281E+01  5.425102281E+01  0.000000000E+00  0.00000E+00  9.000E+00
      21    -1     0     0   501   512  0.000000000E+00  0.000000000E+00 -1.199431110E+03  1.199431110E+03  0.000000000E+00  0.00000E+00  9.000E+00
      25     1     1     2     0     0  1.326400803E+02 -1.189023213E+01 -2.739903424E+02  3.292878319E+02  1.250000000E+02  0.00000E+00  9.000E+00
      25     1     1     2     0     0 -1.041002662E+02  2.077901004E+01 -2.298349988E+02  2.823433359E+02  1.250000000E+02  0.00000E+00  9.000E+00
      21     1     1     2   502   512 -2.853981411E+01 -8.888777908E+00 -6.413547455E+02  6.420509645E+02  7.629394531E-06  0.00000E+00  9.000E+00
#rwgt            1           1   2.7918861419204605E-002          10      294376           0
</event>
<event>
      5   9999  3.19816E-02  1.88866E+01 -1.00000E+00  1.68448E-01
       3    -1     0     0   502     0  0.000000000E+00  0.000000000E+00  2.626506120E+02  2.626506120E+02  0.000000000E+00  0.00000E+00  9.000E+00
      21    -1     0     0   501   502  0.000000000E+00  0.000000000E+00 -2.464871897E+02  2.464871897E+02  0.000000000E+00  0.00000E+00  9.000E+00
      25     1     1     2     0     0 -3.460022629E+01  1.557834709E+02  7.714784237E+01  2.168927270E+02  1.250000000E+02  0.00000E+00  9.000E+00
      25     1     1     2     0     0  3.619649423E+01 -1.369644127E+02 -1.243133899E+02  2.261598007E+02  1.250000000E+02  0.00000E+00  9.000E+00
       3     1     1     2   501     0 -1.596267941E+00 -1.881905815E+01  6.332896984E+01  6.608527402E+01  0.000000000E+00  0.00000E+00  9.000E+00
#rwgt            1           1   2.9237300623659198E-002          10      294440           0
</event>
<event>
      5   9999  3.19816E-02  1.00942E+02 -1.00000E+00  1.23645E-01
      21    -1     0     0   502   501  0.000000000E+00  0.000000000E+00  5.896517834E+02  5.896517834E+02  0.000000000E+00  0.00000E+00  9.000E+00
       2    -1     0     0   501     0  0.000000000E+00  0.000000000E+00 -2.494563179E+03  2.494563179E+03  0.000000000E+00  0.00000E+00  9.000E+00
      25     1     1     2     0     0  3.817382886E+02  5.338290843E+02 -1.456516437E+03  1.602424021E+03  1.250000000E+02  0.00000E+00  9.000E+00
      25     1     1     2     0     0 -3.485021827E+02 -6.291430086E+02  2.534333043E+02  7.727406657E+02  1.250000000E+02  0.00000E+00  9.000E+00
       2     1     1     2   502     0 -3.323610590E+01  9.531392429E+01 -7.018282628E+02  7.090502756E+02  0.000000000E+00  0.00000E+00  9.000E+00
#rwgt            1           1   3.2645128723088349E-002          10      294563           0
</event>
<event>
      5   9999  3.19816E-02  1.27472E+01 -1.00000E+00  1.84311E-01
      21    -1     0     0   511   501  0.000000000E+00  0.000000000E+00  2.017824831E+02  2.017824831E+02  0.000000000E+00  0.00000E+00  9.000E+00
      21    -1     0     0   501   502  0.000000000E+00  0.000000000E+00 -1.785296526E+02  1.785296526E+02  0.000000000E+00  0.00000E+00  9.000E+00
      25     1     1     2     0     0 -9.589520445E+01 -1.780356186E+01 -7.726203992E+01  1.763725598E+02  1.250000000E+02  0.00000E+00  9.000E+00
      25     1     1     2     0     0  8.392608551E+01  2.218895739E+01  6.370071881E+01  1.649809663E+02  1.250000000E+02  0.00000E+00  9.000E+00
      21     1     1     2   511   502  1.196911893E+01 -4.385395526E+00  3.681415156E+01  3.895860954E+01  6.743495762E-07  0.00000E+00  9.000E+00
#rwgt            1           1   3.4133238939454150E-002          10      294712           0
</event>
<event>
      5   9999  3.19816E-02  1.02425E+02 -1.00000E+00  1.23362E-01
       2    -1     0     0   502     0  0.000000000E+00  0.000000000E+00  1.604050058E+03  1.604050058E+03  0.000000000E+00  0.00000E+00  9.000E+00
      21    -1     0     0   501   502  0.000000000E+00  0.000000000E+00 -3.614238638E+03  3.614238638E+03  0.000000000E+00  0.00000E+00  9.000E+00
      25     1     1     2     0     0 -6.253906749E+02  1.080057874E+02 -3.284673722E+03  3.347758236E+03  1.250000000E+02  0.00000E+00  9.000E+00
      25     1     1     2     0     0  5.652085163E+02 -2.512680406E+01 -1.243152547E+01  5.795442744E+02  1.250000000E+02  0.00000E+00  9.000E+00
       2     1     1     2   501     0  6.018215865E+01 -8.287898337E+01  1.286916669E+03  1.290986185E+03  2.157918644E-05  0.00000E+00  9.000E+00
#rwgt            1           1   5.0564527346113976E-002          10      294862           0
</event>
<event>
      5   9999  3.19816E-02  8.95058E+01 -1.00000E+00  1.26033E-01
       2    -1     0     0   502     0  0.000000000E+00  0.000000000E+00  4.940461642E+02  4.940461642E+02  0.000000000E+00  0.00000E+00  9.000E+00
      21    -1     0     0   501   502  0.000000000E+00  0.000000000E+00 -8.988439398E+02  8.988439398E+02  0.000000000E+00  0.00000E+00  9.000E+00
      25     1     1     2     0     0  1.761868278E+02  2.581389061E+02 -7.749442079E+02  8.448911282E+02  1.250000000E+02  0.00000E+00  9.000E+00
      25     1     1     2     0     0 -1.241493116E+02 -1.853145111E+02  3.799312267E+02  4.579598854E+02  1.250000000E+02  0.00000E+00  9.000E+00
       2     1     1     2   501     0 -5.203751623E+01 -7.282439507E+01 -9.784794458E+00  9.003909049E+01  6.194296387E-07  0.00000E+00  9.000E+00
#rwgt            1           1   2.7698364946891211E-002          10      294981           0
</event>
<event>
      5   9999  3.19816E-02  1.16191E+02 -1.00000E+00  1.20966E-01
      21    -1     0     0   502   501  0.000000000E+00  0.000000000E+00  2.376697413E+02  2.376697413E+02  0.000000000E+00  0.00000E+00  9.000E+00
       1    -1     0     0   501     0  0.000000000E+00  0.000000000E+00 -1.103627598E+03  1.103627598E+03  0.000000000E+00  0.00000E+00  9.000E+00
      25     1     1     2     0     0 -2.679656040E+02 -9.680648371E+01 -2.201562029E+01  3.119082361E+02  1.250000000E+02  0.00000E+00  9.000E+00
      25     1     1     2     0     0  1.926206715E+02  8.356359001E+00 -6.081443977E+01  2.376887627E+02  1.250000000E+02  0.00000E+00  9.000E+00
       1     1     1     2   502     0  7.534493251E+01  8.845012471E+01 -7.831277969E+02  7.917003409E+02  0.000000000E+00  0.00000E+00  9.000E+00
#rwgt            1           1   2.7354708563532018E-002          10      295052           0
</event>
<event>
      5   9999  3.19816E-02  2.70436E+02 -1.00000E+00  1.07077E-01
       2    -1     0     0   502     0  0.000000000E+00  0.000000000E+00  1.544457085E+03  1.544457085E+03  0.000000000E+00  0.00000E+00  9.000E+00
      21    -1     0     0   501   502  0.000000000E+00  0.000000000E+00 -6.824610411E+02  6.824610411E+02  0.000000000E+00  0.00000E+00  9.000E+00
      25     1     1     2     0     0 -3.766986545E+02 -2.774160065E+02  8.852857060E+02  1.009067539E+03  1.250000000E+02  0.00000E+00  9.000E+00
      25     1     1     2     0     0  5.906165211E+02  4.428694051E+02 -3.218937451E+02  8.149857472E+02  1.250000000E+02  0.00000E+00  9.000E+00
       2     1     1     2   501     0 -2.139178666E+02 -1.654533986E+02  2.986040826E+02  4.028648395E+02  6.607249480E-06  0.00000E+00  9.000E+00
#rwgt            1           1   4.1779308702654012E-002          10      295132           0
</event>
<event>
      5   9999  3.19816E-02  4.31894E+01 -1.00000E+00  1.42804E-01
       2    -1     0     0   502     0  0.000000000E+00  0.000000000E+00  3.417505724E+02  3.417505724E+02  0.000000000E+00  0.00000E+00  9.000E+00
      21    -1     0     0   501   502  0.000000000E+00  0.000000000E+00 -5.311705028E+02  5.311705028E+02  0.000000000E+00  0.00000E+00  9.000E+00
      25     1     1     2     0     0  1.181793830E+02 -5.784805948E+01  2.264153881E+02  2.901752790E+02  1.250000000E+02  0.00000E+00  9.000E+00
      25     1     1     2     0     0 -7.619069854E+01  4.773514103E+01 -4.807333080E+02  5.047902333E+02  1.250000000E+02  0.00000E+00  9.000E+00
       2     1     1     2   501     0 -4.198868448E+01  1.011291845E+01  6.489798951E+01  7.795556289E+01  1.348699152E-06  0.00000E+00  9.000E+00
#rwgt            1           1   2.6410929675943520E-002          10      295205           0
</event>
<event>
      5   9999  3.19816E-02  1.04954E+02 -1.00000E+00  1.22891E-01
      21    -1     0     0   502   501  0.000000000E+00  0.000000000E+00  8.834507726E+01  8.834507726E+01  0.000000000E+00  0.00000E+00  9.000E+00
       2    -1     0     0   501     0  0.000000000E+00  0.000000000E+00 -2.790266725E+03  2.790266725E+03  0.000000000E+00  0.00000E+00  9.000E+00
      25     1     1     2     0     0  1.298847266E+02  1.694936495E+02 -4.295776702E+02  4.957419835E+02  1.250000000E+02  0.00000E+00  9.000E+00
      25     1     1     2     0     0 -1.479945403E+02 -2.728730989E+02 -4.672418361E+02  5.747191014E+02  1.250000000E+02  0.00000E+00  9.000E+00
       2     1     1     2   502     0  1.810981371E+01  1.033794495E+02 -1.805102141E+03  1.808150717E+03  2.157918644E-05  0.00000E+00  9.000E+00
#rwgt            1           1   3.0248929572839308E-002          10      295317           0
</event>
<event>
      5   9999  3.19816E-02  7.88345E+01 -1.00000E+00  1.28659E-01
       4    -1     0     0   502     0  0.000000000E+00  0.000000000E+00  1.662823959E+03  1.662823959E+03  0.000000000E+00  0.00000E+00  9.000E+00
      21    -1     0     0   501   502  0.000000000E+00  0.000000000E+00 -2.457579935E+02  2.457579935E+02  0.000000000E+00  0.00000E+00  9.000E+00
      25     1     1     2     0     0  3.541513790E+01  4.152788539E+02  9.664653106E+01  4.457312087E+02  1.250000000E+02  0.00000E+00  9.000E+00
      25     1     1     2     0     0 -4.814637533E+01 -4.930785798E+02  8.984230191E+02  1.033553811E+03  1.250000000E+02  0.00000E+00  9.000E+00
       4     1     1     2   501     0  1.273123742E+01  7.779972589E+01  4.219964158E+02  4.292969330E+02  0.000000000E+00  0.00000E+00  9.000E+00
#rwgt            1           1   3.0418075075446659E-002          10      295366           0
</event>
<event>
      5   9999  3.19816E-02  2.88561E+01 -1.00000E+00  1.54222E-01
       2    -1     0     0   502     0  0.000000000E+00  0.000000000E+00  8.173816056E+01  8.173816056E+01  0.000000000E+00  0.00000E+00  9.000E+00
      21    -1     0     0   501   502  0.000000000E+00  0.000000000E+00 -1.620753351E+03  1.620753351E+03  0.000000000E+00  0.00000E+00  9.000E+00
      25     1     1     2     0     0  4.665524498E+00  2.008232256E+02 -9.303337380E+02  9.599466647E+02  1.250000000E+02  0.00000E+00  9.000E+00
      25     1     1     2     0     0  2.271440486E+01 -2.099345443E+02 -6.484982885E+02  6.933711035E+02  1.250000000E+02  0.00000E+00  9.000E+00
       2     1     1     2   501     0 -2.737992936E+01  9.111318702E+00  3.981683568E+01  4.917374364E+01  2.567846683E-06  0.00000E+00  9.000E+00
#rwgt            1           1   2.8848505588287485E-002          10      295437           0
</event>
<event>
      5   9999  3.19816E-02  6.21707E+01 -1.00000E+00  1.33884E-01
      21    -1     0     0   502   501  0.000000000E+00  0.000000000E+00  2.317863460E+03  2.317863460E+03  0.000000000E+00  0.00000E+00  9.000E+00
      21    -1     0     0   511   502  0.000000000E+00  0.000000000E+00 -6.710626439E+02  6.710626439E+02  0.000000000E+00  0.00000E+00  9.000E+00
      25     1     1     2     0     0  4.290084066E+02 -1.027099674E+02  5.548491632E+02  7.197778436E+02  1.250000000E+02  0.00000E+00  9.000E+00
      25     1     1     2     0     0 -3.682432141E+02  1.158547387E+02  1.654318384E+03  1.703355424E+03  1.250000000E+02  0.00000E+00  9.000E+00
      21     1     1     2   511   501 -6.076519254E+01 -1.314477129E+01 -5.623667308E+02  5.657928363E+02  1.868812365E-05  0.00000E+00  9.000E+00
#rwgt            1           1   2.8269405596108101E-002          10      295574           0
</event>
<event>
      5   9999  3.19816E-02  6.77118E+01 -1.00000E+00  1.31956E-01
      21    -1     0     0   502   501  0.000000000E+00  0.000000000E+00  1.438209180E+03  1.438209180E+03  0.000000000E+00  0.00000E+00  9.000E+00
      21    -1     0     0   512   502  0.000000000E+00  0.000000000E+00 -3.818663296E+02  3.818663296E+02  0.000000000E+00  0.00000E+00  9.000E+00
      25     1     1     2     0     0  6.334106116E+02  2.927166806E+02  7.752172901E+02  1.050466042E+03  1.250000000E+02  0.00000E+00  9.000E+00
      25     1     1     2     0     0 -5.680888859E+02 -2.748851261E+02  2.806168082E+02  7.018957243E+02  1.250000000E+02  0.00000E+00  9.000E+00
      21     1     1     2   512   501 -6.532172570E+01 -1.783155443E+01  5.087517212E-01  6.771374314E+01  1.061073593E-06  0.00000E+00  9.000E+00
#rwgt            1           1   3.2018194198743709E-002          10      295673           0
</event>
<event>
      5   9999  3.19816E-02  8.42571E+01 -1.00000E+00  1.27269E-01
       4    -1     0     0   502     0  0.000000000E+00  0.000000000E+00  1.085949855E+02  1.085949855E+02  0.000000000E+00  0.00000E+00  9.000E+00
      21    -1     0     0   501   502  0.000000000E+00  0.000000000E+00 -1.543135266E+03  1.543135266E+03  0.000000000E+00  0.00000E+00  9.000E+00
      25     1     1     2     0     0  1.442946736E+02 -1.435012097E+02 -5.659329602E+01  2.454411358E+02  1.250000000E+02  0.00000E+00  9.000E+00
      25     1     1     2     0     0 -1.271624663E+02  6.100431259E+01 -1.093661214E+03  1.109780010E+03  1.250000000E+02  0.00000E+00  9.000E+00
       4     1     1     2   501     0 -1.713220726E+01  8.249689708E+01 -2.842857706E+02  2.965091059E+02  3.814697266E-06  0.00000E+00  9.000E+00
#rwgt            1           1   2.6872677010954350E-002          10      295751           0
</event>
<event>
      5   9999  3.19816E-02  7.27545E+01 -1.00000E+00  1.30377E-01
       2    -1     0     0   502     0  0.000000000E+00  0.000000000E+00  9.429001384E+02  9.429001384E+02  0.000000000E+00  0.00000E+00  9.000E+00
      21    -1     0     0   501   502  0.000000000E+00  0.000000000E+00 -7.489821663E+02  7.489821663E+02  0.000000000E+00  0.00000E+00  9.000E+00
      25     1     1     2     0     0  5.480987262E+00  3.823738785E+02 -4.079068114E+02  5.729334961E+02  1.250000000E+02  0.00000E+00  9.000E+00
      25     1     1     2     0     0  5.005627728E+01 -3.353756278E+02 -1.295870408E+02  3.839273939E+02  1.250000000E+02  0.00000E+00  9.000E+00
       2     1     1     2   501     0 -5.553726454E+01 -4.699825062E+01  7.314118243E+02  7.350214147E+02  1.525878906E-05  0.00000E+00  9.000E+00
#rwgt            1           1   2.6243065704908447E-002          10      295830           0
</event>
<event>
      5   9999  3.19816E-02  1.04538E+02 -1.00000E+00  1.22967E-01
      21    -1     0     0   502   501  0.000000000E+00  0.000000000E+00  2.293000113E+02  2.293000113E+02  0.000000000E+00  0.00000E+00  9.000E+00
      21    -1     0     0   501   511  0.000000000E+00  0.000000000E+00 -7.099967320E+02  7.099967320E+02  0.000000000E+00  0.00000E+00  9.000E+00
      25     1     1     2     0     0 -9.733440382E+01  2.037570869E+02 -3.665476672E+02  4.483002665E+02  1.250000000E+02  0.00000E+00  9.000E+00
      25     1     1     2     0     0  1.908895418E+02 -2.504009245E+02 -3.517081978E+00  3.387872636E+02  1.250000000E+02  0.00000E+00  9.000E+00
      21     1     1     2   502   511 -9.355513800E+01  4.664383752E+01 -1.106319715E+02  1.522092131E+02  3.015782986E-06  0.00000E+00  9.000E+00
#rwgt            2          11   3.3699610376818705E-003          10      295959           0
</event>
<event>
      5   9999  3.19816E-02  4.15363E+01 -1.00000E+00  1.43832E-01
      21    -1     0     0   502   512  0.000000000E+00  0.000000000E+00  1.672332533E+02  1.672332533E+02  0.000000000E+00  0.00000E+00  9.000E+00
      21    -1     0     0   501   502  0.000000000E+00  0.000000000E+00 -3.910565549E+02  3.910565549E+02  0.000000000E+00  0.00000E+00  9.000E+00
      25     1     1     2     0     0 -7.769366830E+01 -8.060883017E+01 -2.734938377E+02  3.208706419E+02  1.250000000E+02  0.00000E+00  9.000E+00
      25     1     1     2     0     0  7.606260233E+01  1.221130655E+02  4.257471843E+01  1.952811483E+02  1.250000000E+02  0.00000E+00  9.000E+00
      21     1     1     2   501   512  1.631065977E+00 -4.150423536E+01  7.095817712E+00  4.213801796E+01  7.202056631E-07  0.00000E+00  9.000E+00
#rwgt            1           1   3.0018875131705435E-002          10      296024           0
</event>
<event>
      5   9999  3.19816E-02  3.94195E+02 -1.00000E+00  1.01877E-01
      21    -1     0     0   502   501  0.000000000E+00  0.000000000E+00  6.845935284E+02  6.845935284E+02  0.000000000E+00  0.00000E+00  9.000E+00
      21    -1     0     0   511   502  0.000000000E+00  0.000000000E+00 -3.912034200E+02  3.912034200E+02  0.000000000E+00  0.00000E+00  9.000E+00
      25     1     1     2     0     0  3.209083667E+02 -1.655778128E+02  1.874453237E+02  4.256277027E+02  1.250000000E+02  0.00000E+00  9.000E+00
      25     1     1     2     0     0  7.170373711E+01  2.008639801E+02  4.566799825E+01  2.513927813E+02  1.250000000E+02  0.00000E+00  9.000E+00
      21     1     1     2   511   501 -3.926121038E+02 -3.528616725E+01  6.027678641E+01  3.987764645E+02  5.722045898E-06  0.00000E+00  9.000E+00
#rwgt            1           1   3.5180528028498650E-002          10      296108           0
</event>
<event>
      5   9999  3.19816E-02  1.46268E+02 -1.00000E+00  1.16829E-01
      21    -1     0     0   512   501  0.000000000E+00  0.000000000E+00  1.199986297E+02  1.199986297E+02  0.000000000E+00  0.00000E+00  9.000E+00
      21    -1     0     0   501   502  0.000000000E+00  0.000000000E+00 -1.429028286E+03  1.429028286E+03  0.000000000E+00  0.00000E+00  9.000E+00
      25     1     1     2     0     0 -1.526208617E+02 -1.004901085E+02 -7.537845983E+02  7.856256169E+02  1.250000000E+02  0.00000E+00  9.000E+00
      25     1     1     2     0     0  1.219603581E+02  2.435081171E+02 -5.383909542E+02  6.161658474E+02  1.250000000E+02  0.00000E+00  9.000E+00
      21     1     1     2   512   502  3.066050360E+01 -1.430180086E+02 -1.685410372E+01  1.472354511E+02  9.233911863E-07  0.00000E+00  9.000E+00
#rwgt            1           1   3.0045956679598675E-002          10      296182           0
</event>
<event>
      5   9999  3.19816E-02  9.70605E+01 -1.00000E+00  1.24414E-01
      21    -1     0     0   502   501  0.000000000E+00  0.000000000E+00  2.367630981E+02  2.367630981E+02  0.000000000E+00  0.00000E+00  9.000E+00
      21    -1     0     0   501   511  0.000000000E+00  0.000000000E+00 -8.821742036E+02  8.821742036E+02  0.000000000E+00  0.00000E+00  9.000E+00
      25     1     1     2     0     0 -5.093431638E+01  2.193508258E+02 -1.910395435E+02  3.206714776E+02  1.250000000E+02  0.00000E+00  9.000E+00
      25     1     1     2     0     0  8.189254498E+00 -3.064921163E+02  2.586335561E+00  3.311135309E+02  1.250000000E+02  0.00000E+00  9.000E+00
      21     1     1     2   502   511  4.274506188E+01  8.714129048E+01 -4.569578975E+02  4.671522931E+02  5.394796609E-06  0.00000E+00  9.000E+00
#rwgt            1           1   2.6866778587059010E-002          10      296242           0
</event>
<event>
      5   9999  3.19816E-02  9.95120E+00 -1.00000E+00  1.96003E-01
      21    -1     0     0   502   501  0.000000000E+00  0.000000000E+00  5.669472146E+02  5.669472146E+02  0.000000000E+00  0.00000E+00  9.000E+00
      21    -1     0     0   512   502  0.000000000E+00  0.000000000E+00 -2.006469926E+02  2.006469926E+02  0.000000000E+00  0.00000E+00  9.000E+00
      25     1     1     2     0     0 -1.138510227E+02 -2.489751660E+02  3.711410635E+01  3.032377707E+02  1.250000000E+02  0.00000E+00  9.000E+00
      25     1     1     2     0     0  1.060049650E+02  2.428542431E+02  3.405590044E+02  4.492445565E+02  1.250000000E+02  0.00000E+00  9.000E+00
      21     1     1     2   512   501  7.846057727E+00  6.120922886E+00 -1.137288881E+01  1.511188006E+01  1.685873940E-07  0.00000E+00  9.000E+00
#rwgt            1           1   2.6906996767632068E-002          10      296312           0
</event>
<event>
      5   9999  3.19816E-02  2.56646E+01 -1.00000E+00  1.57902E-01
      21    -1     0     0   502   501  0.000000000E+00  0.000000000E+00  2.630325347E+02  2.630325347E+02  0.000000000E+00  0.00000E+00  9.000E+00
      21    -1     0     0   501   511  0.000000000E+00  0.000000000E+00 -2.123222665E+02  2.123222665E+02  0.000000000E+00  0.00000E+00  9.000E+00
      25     1     1     2     0     0 -5.983750708E+01 -9.749407622E+01 -8.061371836E+01  1.876411302E+02  1.250000000E+02  0.00000E+00  9.000E+00
      25     1     1     2     0     0  3.441061027E+01  9.400921983E+01  1.748990472E+02  2.371423628E+02  1.250000000E+02  0.00000E+00  9.000E+00
      21     1     1     2   502   511  2.542689680E+01  3.484856388E+00 -4.357506061E+01  5.057130819E+01  4.768371582E-07  0.00000E+00  9.000E+00
#rwgt            1           1   2.3898066630573127E-002          10      296590           0
</event>
<event>
      5   9999  3.19816E-02  2.98203E+02 -1.00000E+00  1.05677E-01
      21    -1     0     0   502   501  0.000000000E+00  0.000000000E+00  9.586574982E+02  9.586574982E+02  0.000000000E+00  0.00000E+00  9.000E+00
      21    -1     0     0   512   502  0.000000000E+00  0.000000000E+00 -1.234333043E+03  1.234333043E+03  0.000000000E+00  0.00000E+00  9.000E+00
      25     1     1     2     0     0 -4.171103514E+01  5.516891713E+02  5.889944691E+02  8.177042477E+02  1.250000000E+02  0.00000E+00  9.000E+00
      25     1     1     2     0     0  3.209617073E+02 -6.563022765E+02 -4.590214076E+02  8.718226587E+02  1.250000000E+02  0.00000E+00  9.000E+00
      21     1     1     2   512   501 -2.792506722E+02  1.046131052E+02 -4.056486063E+02  5.034636347E+02  5.394796609E-06  0.00000E+00  9.000E+00
#rwgt            2          11   3.5767224006786045E-003          10      296682           0
</event>
<event>
      5   9999  3.19816E-02  2.05005E+01 -1.00000E+00  1.65488E-01
      21    -1     0     0   502   501  0.000000000E+00  0.000000000E+00  1.895225356E+02  1.895225356E+02  0.000000000E+00  0.00000E+00  9.000E+00
      21    -1     0     0   511   502  0.000000000E+00  0.000000000E+00 -1.748314048E+02  1.748314048E+02  0.000000000E+00  0.00000E+00  9.000E+00
      25     1     1     2     0     0 -3.843177852E+01  6.145933799E+01 -7.605895907E+01  1.632918157E+02  1.250000000E+02  0.00000E+00  9.000E+00
      25     1     1     2     0     0  4.277715457E+01 -8.149405667E+01  9.213782328E+01  1.805146662E+02  1.250000000E+02  0.00000E+00  9.000E+00
      21     1     1     2   511   501 -4.345376046E+00  2.003471868E+01 -1.387733394E+00  2.054745846E+01  3.469123461E-07  0.00000E+00  9.000E+00
#rwgt            1           1   2.2176810664388803E-002          10      296702           0
</event>
<event>
      5   9999  3.19816E-02  1.51287E+02 -1.00000E+00  1.16247E-01
      21    -1     0     0   502   512  0.000000000E+00  0.000000000E+00  9.343959829E+02  9.343959829E+02  0.000000000E+00  0.00000E+00  9.000E+00
      21    -1     0     0   501   502  0.000000000E+00  0.000000000E+00 -4.798694872E+02  4.798694872E+02  0.000000000E+00  0.00000E+00  9.000E+00
      25     1     1     2     0     0  3.514575687E+02 -6.070017392E+00  6.302411758E+02  7.323852862E+02  1.250000000E+02  0.00000E+00  9.000E+00
      25     1     1     2     0     0 -4.362133072E+02 -1.192465118E+02 -2.282230853E+02  5.217399319E+02  1.250000000E+02  0.00000E+00  9.000E+00
      21     1     1     2   501   512  8.475573842E+01  1.253165292E+02  5.250840518E+01  1.601402519E+02  2.023048729E-06  0.00000E+00  9.000E+00
#rwgt            1           1   2.6158489032118076E-002          10      296794           0
</event>
<event>
      5   9999  3.19816E-02  8.44713E+01 -1.00000E+00  1.27217E-01
      21    -1     0     0   502   511  0.000000000E+00  0.000000000E+00  2.029216920E+02  2.029216920E+02  0.000000000E+00  0.00000E+00  9.000E+00
      21    -1     0     0   501   502  0.000000000E+00  0.000000000E+00 -1.898273250E+03  1.898273250E+03  0.000000000E+00  0.00000E+00  9.000E+00
      25     1     1     2     0     0  2.757783493E+02  5.949309175E+01 -1.226476938E+03  1.264699097E+03  1.250000000E+02  0.00000E+00  9.000E+00
      25     1     1     2     0     0 -2.680838659E+02  2.462704359E+01 -6.063739955E+02  6.751221170E+02  1.250000000E+02  0.00000E+00  9.000E+00
      21     1     1     2   501   511 -7.694483406E+00 -8.412013534E+01  1.374993749E+02  1.613737288E+02  3.814697266E-06  0.00000E+00  9.000E+00
#rwgt            1           1   2.6099546300676266E-002          10      296881           0
</event>
<event>
      5   9999  3.19816E-02  1.05087E+03 -1.00000E+00  9.04768E-02
       2    -1     0     0   502     0  0.000000000E+00  0.000000000E+00  2.630503794E+03  2.630503794E+03  0.000000000E+00  0.00000E+00  9.000E+00
      21    -1     0     0   501   502  0.000000000E+00  0.000000000E+00 -6.568607009E+02  6.568607009E+02  0.000000000E+00  0.00000E+00  9.000E+00
      25     1     1     2     0     0 -4.382164619E+01  4.397110217E+02  1.394992670E+03  1.468637351E+03  1.250000000E+02  0.00000E+00  9.000E+00
      25     1     1     2     0     0  2.899018331E+02  5.819453074E+02  3.256876612E+02  7.378352569E+02  1.250000000E+02  0.00000E+00  9.000E+00
       2     1     1     2   501     0 -2.460801869E+02 -1.021656329E+03  2.529627622E+02  1.080891887E+03  7.136645101E-06  0.00000E+00  9.000E+00
#rwgt            2          18   6.1126490475037134E-004          10      296943           0
</event>
<event>
      5   9999  3.19816E-02  3.46840E+02 -1.00000E+00  1.03584E-01
      21    -1     0     0   502   511  0.000000000E+00  0.000000000E+00  2.113442979E+02  2.113442979E+02  0.000000000E+00  0.00000E+00  9.000E+00
      21    -1     0     0   501   502  0.000000000E+00  0.000000000E+00 -1.746508563E+03  1.746508563E+03  0.000000000E+00  0.00000E+00  9.000E+00
      25     1     1     2     0     0  1.131247507E+01  2.676345499E+02 -9.533465979E+02  9.981237199E+02  1.250000000E+02  0.00000E+00  9.000E+00
      25     1     1     2     0     0  3.296725694E+02 -2.041763592E+02 -2.405084606E+02  4.731187042E+02  1.250000000E+02  0.00000E+00  9.000E+00
      21     1     1     2   501   511 -3.409850445E+02 -6.345819068E+01 -3.413092062E+02  4.866104363E+02  5.394796609E-06  0.00000E+00  9.000E+00
#rwgt            2          11   2.7289727142468176E-003          10      296992           0
</event>
<event>
      5   9999  3.19816E-02  3.05538E+01 -1.00000E+00  1.52490E-01
      21    -1     0     0   502   501  0.000000000E+00  0.000000000E+00  3.142006196E+02  3.142006196E+02  0.000000000E+00  0.00000E+00  9.000E+00
      21    -1     0     0   512   502  0.000000000E+00  0.000000000E+00 -6.762712336E+02  6.762712336E+02  0.000000000E+00  0.00000E+00  9.000E+00
      25     1     1     2     0     0  3.762826602E+02 -1.918883571E+02 -4.563921925E+01  4.428518040E+02  1.250000000E+02  0.00000E+00  9.000E+00
      25     1     1     2     0     0 -3.598093353E+02  1.661558461E+02 -2.858183840E+02  5.043685870E+02  1.250000000E+02  0.00000E+00  9.000E+00
      21     1     1     2   512   501 -1.647332489E+01  2.573251103E+01 -3.061301073E+01  4.325146220E+01  6.743495762E-07  0.00000E+00  9.000E+00
#rwgt            1           1   3.2944445802340690E-002          10      297042           0
</event>
<event>
      5   9999  3.19816E-02  7.30186E+01 -1.00000E+00  1.30299E-01
      21    -1     0     0   502   511  0.000000000E+00  0.000000000E+00  3.745257332E+02  3.745257332E+02  0.000000000E+00  0.00000E+00  9.000E+00
      21    -1     0     0   501   502  0.000000000E+00  0.000000000E+00 -1.972951903E+02  1.972951903E+02  0.000000000E+00  0.00000E+00  9.000E+00
      25     1     1     2     0     0  9.464120302E+01  4.344042235E+01 -5.119497514E+01  1.705577705E+02  1.250000000E+02  0.00000E+00  9.000E+00
      25     1     1     2     0     0 -1.519296564E+02 -8.871453369E+01  7.011216648E+01  2.269220238E+02  1.250000000E+02  0.00000E+00  9.000E+00
      21     1     1     2   501   511  5.728845336E+01  4.527411135E+01  1.583133515E+02  1.743411292E+02  3.303624740E-06  0.00000E+00  9.000E+00
#rwgt            1           1   2.5811014548405262E-002          10      297209           0
</event>
<event>
      5   9999  3.19816E-02  4.01339E+01 -1.00000E+00  1.44750E-01
      21    -1     0     0   502   501  0.000000000E+00  0.000000000E+00  2.867460503E+03  2.867460503E+03  0.000000000E+00  0.00000E+00  9.000E+00
      21    -1     0     0   501   512  0.000000000E+00  0.000000000E+00 -3.782640267E+02  3.782640267E+02  0.000000000E+00  0.00000E+00  9.000E+00
      25     1     1     2     0     0  4.645693839E+02 -6.321413841E+02  2.205856487E+02  8.244455533E+02  1.250000000E+02  0.00000E+00  9.000E+00
      25     1     1     2     0     0 -4.793691493E+02  5.948359050E+02  2.244998483E+03  2.374714240E+03  1.250000000E+02  0.00000E+00  9.000E+00
      21     1     1     2   502   512  1.479976533E+01  3.730547911E+01  2.361234488E+01  4.656473619E+01  3.371747881E-07  0.00000E+00  9.000E+00
#rwgt            1           1   3.7563303274256762E-002          10      297263           0
</event>
<event>
      5   9999  3.19816E-02  4.48256E+01 -1.00000E+00  1.41838E-01
      21    -1     0     0   511   501  0.000000000E+00  0.000000000E+00  2.282784399E+03  2.282784399E+03  0.000000000E+00  0.00000E+00  9.000E+00
      21    -1     0     0   501   502  0.000000000E+00  0.000000000E+00 -1.326577137E+03  1.326577137E+03  0.000000000E+00  0.00000E+00  9.000E+00
      25     1     1     2     0     0  1.212798861E+03 -1.015624471E+03 -2.435225297E+02  1.605397885E+03  1.250000000E+02  0.00000E+00  9.000E+00
      25     1     1     2     0     0 -1.186672046E+03  9.792002106E+02  1.102444645E+03  1.896848121E+03  1.250000000E+02  0.00000E+00  9.000E+00
      21     1     1     2   511   502 -2.612681496E+01  3.642426086E+01  9.728514648E+01  1.071155309E+02  1.907348633E-06  0.00000E+00  9.000E+00
#rwgt            1           1   2.7707503160174611E-002          10      297451           0
</event>
<event>
      5   9999  3.19816E-02  2.81639E+01 -1.00000E+00  1.54970E-01
      21    -1     0     0   502   501  0.000000000E+00  0.000000000E+00  2.909498310E+03  2.909498310E+03  0.000000000E+00  0.00000E+00  9.000E+00
      21    -1     0     0   501   512  0.000000000E+00  0.000000000E+00 -6.888192079E+02  6.888192079E+02  0.000000000E+00  0.00000E+00  9.000E+00
      25     1     1     2     0     0  7.115901781E+02 -9.356685036E+02  1.937855507E+02  1.197920686E+03  1.250000000E+02  0.00000E+00  9.000E+00
      25     1     1     2     0     0 -7.192221542E+02  9.627786403E+02  2.038713991E+03  2.369852939E+03  1.250000000E+02  0.00000E+00  9.000E+00
      21     1     1     2   502   512  7.631976112E+00 -2.711013666E+01 -1.182043974E+01  3.054389243E+01  0.000000000E+00  0.00000E+00  9.000E+00
#rwgt            1           1   3.9995070642780205E-002          10      297670           0
</event>
<event>
      5   9999  3.19816E-02  6.26948E+01 -1.00000E+00  1.33692E-01
      21    -1     0     0   502   501  0.000000000E+00  0.000000000E+00  6.398346989E+02  6.398346989E+02  0.000000000E+00  0.00000E+00  9.000E+00
       1    -1     0     0   501     0  0.000000000E+00  0.000000000E+00 -1.079713993E+03  1.079713993E+03  0.000000000E+00  0.00000E+00  9.000E+00
      25     1     1     2     0     0  1.581389434E+02  4.613454604E+01  5.317254701E+02  5.705201989E+02  1.250000000E+02  0.00000E+00  9.000E+00
      25     1     1     2     0     0 -1.547453788E+02  1.646832871E+01 -2.593558711E+01  2.012833644E+02  1.250000000E+02  0.00000E+00  9.000E+00
       1     1     1     2   502     0 -3.393564600E+00 -6.260287475E+01 -9.456691767E+02  9.477451282E+02  1.525878906E-05  0.00000E+00  9.000E+00
#rwgt            1           1   2.8309513494060891E-002          10      297996           0
</event>
<event>
      5   9999  3.19816E-02  2.34491E+01 -1.00000E+00  1.60863E-01
      21    -1     0     0   511   501  0.000000000E+00  0.000000000E+00  4.501686289E+02  4.501686289E+02  0.000000000E+00  0.00000E+00  9.000E+00
      21    -1     0     0   501   502  0.000000000E+00  0.000000000E+00 -2.193231911E+02  2.193231911E+02  0.000000000E+00  0.00000E+00  9.000E+00
      25     1     1     2     0     0 -5.170652656E+00  2.420079841E+02  1.222421696E+02  2.986013195E+02  1.250000000E+02  0.00000E+00  9.000E+00
      25     1     1     2     0     0  1.563385411E+01 -2.629933023E+02  3.506979088E+01  2.937086732E+02  1.250000000E+02  0.00000E+00  9.000E+00
      21     1     1     2   511   502 -1.046320145E+01  2.098531823E+01  7.353347732E+01  7.718182722E+01  9.536743164E-07  0.00000E+00  9.000E+00
#rwgt            1           1   2.8922549275191150E-002          10      298066           0
</event>
<event>
      5   9999  3.19816E-02  2.10752E+02 -1.00000E+00  1.10826E-01
      21    -1     0     0   502   501  0.000000000E+00  0.000000000E+00  1.067668136E+03  1.067668136E+03  0.000000000E+00  0.00000E+00  9.000E+00
      21    -1     0     0   512   502  0.000000000E+00  0.000000000E+00 -3.405106780E+02  3.405106780E+02  0.000000000E+00  0.00000E+00  9.000E+00
      25     1     1     2     0     0 -3.727943772E+02 -2.272611757E+01  2.819210759E+02  4.843517494E+02  1.250000000E+02  0.00000E+00  9.000E+00
      25     1     1     2     0     0  5.270404060E+02  1.663385981E+02  4.322513325E+02  7.126754754E+02  1.250000000E+02  0.00000E+00  9.000E+00
      21     1     1     2   512   501 -1.542460289E+02 -1.436124805E+02  1.298504922E+01  2.111515889E+02  4.891940243E-06  0.00000E+00  9.000E+00
#rwgt            1           1   3.0611806986563954E-002          10      298156           0
</event>
<event>
      5   9999  3.19816E-02  2.64922E+02 -1.00000E+00  1.07377E-01
      21    -1     0     0   511   501  0.000000000E+00  0.000000000E+00  9.276654055E+02  9.276654055E+02  0.000000000E+00  0.00000E+00  9.000E+00
      21    -1     0     0   501   502  0.000000000E+00  0.000000000E+00 -8.665182343E+02  8.665182343E+02  0.000000000E+00  0.00000E+00  9.000E+00
      25     1     1     2     0     0  1.878153363E+02 -5.982454219E+02 -7.147815145E+01  6.433555094E+02  1.250000000E+02  0.00000E+00  9.000E+00
      25     1     1     2     0     0 -4.477323135E+02  6.494957445E+02 -9.135111052E+01  8.039147792E+02  1.250000000E+02  0.00000E+00  9.000E+00
      21     1     1     2   511   502  2.599169772E+02 -5.125032267E+01  2.239764332E+02  3.469133512E+02  0.000000000E+00  0.00000E+00  9.000E+00
#rwgt            1           1   3.0339522747598772E-002          10      298220           0
</event>
<event>
      5   9999  3.19816E-02  1.24597E+01 -1.00000E+00  1.85328E-01
      21    -1     0     0   502   501  0.000000000E+00  0.000000000E+00  2.103319928E+03  2.103319928E+03  0.000000000E+00  0.00000E+00  9.000E+00
       1    -1     0     0   501     0  0.000000000E+00  0.000000000E+00 -3.057858425E+03  3.057858425E+03  0.000000000E+00  0.00000E+00  9.000E+00
      25     1     1     2     0     0  9.873501817E+02 -3.355710985E+02  1.207245743E+03  1.600167375E+03  1.250000000E+02  0.00000E+00  9.000E+00
      25     1     1     2     0     0 -9.847900356E+02  3.477649276E+02  3.042357790E+02  1.094959482E+03  1.250000000E+02  0.00000E+00  9.000E+00
       1     1     1     2   502     0 -2.560146073E+00 -1.219382906E+01 -2.466020019E+03  2.466051495E+03  4.315837288E-05  0.00000E+00  9.000E+00
#rwgt            1           1   2.8100464268015803E-002          10      298291           0
</event>
<event>
      5   9999  3.19816E-02  1.88151E+02 -1.00000E+00  1.12622E-01
       2    -1     0     0   502     0  0.000000000E+00  0.000000000E+00  8.387347778E+02  8.387347778E+02  0.000000000E+00  0.00000E+00  9.000E+00
      21    -1     0     0   501   502  0.000000000E+00  0.000000000E+00 -2.128657118E+02  2.128657118E+02  0.000000000E+00  0.00000E+00  9.000E+00
      25     1     1     2     0     0 -1.160383210E+02 -1.145227520E+01  3.252033551E+02  3.673938877E+02  1.250000000E+02  0.00000E+00  9.000E+00
      25     1     1     2     0     0 -1.966575241E+01 -1.188752975E+02 -1.282418870E+02  2.158449902E+02  1.250000000E+02  0.00000E+00  9.000E+00
       2     1     1     2   501     0  1.357040735E+02  1.303275727E+02  4.289075980E+02  4.683616118E+02  5.394796609E-06  0.00000E+00  9.000E+00
#rwgt            1           1   2.7802954173601922E-002          10      298526           0
</event>
<event>
      5   9999  3.19816E-02  1.08252E+02 -1.00000E+00  1.22299E-01
      21    -1     0     0   511   501  0.000000000E+00  0.000000000E+00  6.260191033E+02  6.260191033E+02  0.000000000E+00  0.00000E+00  9.000E+00
      21    -1     0     0   501   502  0.000000000E+00  0.000000000E+00 -1.740792091E+02  1.740792091E+02  0.000000000E+00  0.00000E+00  9.000E+00
      25     1     1     2     0     0 -5.203945370E+01  2.410171178E+02  1.326100363E+02  3.066068779E+02  1.250000000E+02  0.00000E+00  9.000E+00
      25     1     1     2     0     0  2.691984651E+01 -1.357195959E+02  3.562909924E+01  1.898391939E+02  1.250000000E+02  0.00000E+00  9.000E+00
      21     1     1     2   511   502  2.511960719E+01 -1.052975219E+02  2.837007586E+02  3.036522406E+02  0.000000000E+00  0.00000E+00  9.000E+00
#rwgt            1           1   2.5986474117526314E-002          10      298563           0
</event>
<event>
      5   9999  3.34009E-02  2.01838E+02 -1.00000E+00  1.11504E-01
      21    -1     0     0   502   501  0.000000000E+00  0.000000000E+00  8.274748503E+02  8.274748503E+02  0.000000000E+00  0.00000E+00  9.000E+00
      21    -1     0     0   501   512  0.000000000E+00  0.000000000E+00 -1.776440231E+02  1.776440231E+02  0.000000000E+00  0.00000E+00  9.000E+00
      25     1     1     2     0     0  9.172705948E+01 -1.736232471E+02  4.129993042E+02  4.740804896E+02  1.250000000E+02  0.00000E+00  9.000E+00
      25     1     1     2     0     0 -5.573219424E+01 -2.497944000E+01  2.905790959E+02  3.221665111E+02  1.250000000E+02  0.00000E+00  9.000E+00
      21     1     1     2   502   512 -3.599486523E+01  1.986026871E+02 -5.374757289E+01  2.088718727E+02  2.697398305E-06  0.00000E+00  9.000E+00
#rwgt            1           1   8.7133102108668439E-002          10      298644           0
</event>
<event>
      5   9999  3.19816E-02  7.68866E+01 -1.00000E+00  1.29189E-01
      21    -1     0     0   502   501  0.000000000E+00  0.000000000E+00  5.920673129E+02  5.920673129E+02  0.000000000E+00  0.00000E+00  9.000E+00
      21    -1     0     0   511   502  0.000000000E+00  0.000000000E+00 -8.011175042E+02  8.011175042E+02  0.000000000E+00  0.00000E+00  9.000E+00
      25     1     1     2     0     0 -5.086458241E+02 -3.263710978E+02  1.557638079E+02  6.364951152E+02  1.250000000E+02  0.00000E+00  9.000E+00
      25     1     1     2     0     0  4.643871853E+02  2.635004266E+02 -2.163703713E+02  5.895159627E+02  1.250000000E+02  0.00000E+00  9.000E+00
      21     1     1     2   511   501  4.425863882E+01  6.287067117E+01 -1.484436279E+02  1.671737392E+02  1.907348633E-06  0.00000E+00  9.000E+00
#rwgt            1           1   2.8875476415130736E-002          10      298715           0
</event>
<event>
      5   9999  3.19816E-02  7.20830E+01 -1.00000E+00  1.30579E-01
      21    -1     0     0   512   501  0.000000000E+00  0.000000000E+00  9.159519976E+02  9.159519976E+02  0.000000000E+00  0.00000E+00  9.000E+00
      21    -1     0     0   501   502  0.000000000E+00  0.000000000E+00 -1.002846957E+02  1.002846957E+02  0.000000000E+00  0.00000E+00  9.000E+00
      25     1     1     2     0     0  1.807018394E+02  4.694187342E+01  2.877376303E+02  3.650679911E+02  1.250000000E+02  0.00000E+00  9.000E+00
      25     1     1     2     0     0 -2.417183146E+02 -8.532093348E+01  3.081388174E+02  4.198594243E+02  1.250000000E+02  0.00000E+00  9.000E+00
      21     1     1     2   512   502  6.101647529E+01  3.837906006E+01  2.197908542E+02  2.313092780E+02  2.697398305E-06  0.00000E+00  9.000E+00
#rwgt            1           1   3.2709906689778849E-002          10      298797           0
</event>
<event>
      5   9999  3.19816E-02  1.69098E+02 -1.00000E+00  1.14368E-01
      21    -1     0     0   502   511  0.000000000E+00  0.000000000E+00  1.892081710E+03  1.892081710E+03  0.000000000E+00  0.00000E+00  9.000E+00
      21    -1     0     0   501   502  0.000000000E+00  0.000000000E+00 -1.469209939E+02  1.469209939E+02  0.000000000E+00  0.00000E+00  9.000E+00
      25     1     1     2     0     0 -8.983778504E+01  2.645538664E+01 -3.736240282E+01  1.605978339E+02  1.250000000E+02  0.00000E+00  9.000E+00
      25     1     1     2     0     0  1.740467760E+02 -1.730939062E+02  4.005605715E+02  4.861353228E+02  1.250000000E+02  0.00000E+00  9.000E+00
      21     1     1     2   501   511 -8.420899098E+01  1.466385195E+02  1.381962547E+03  1.392269547E+03  2.642899792E-05  0.00000E+00  9.000E+00
#rwgt            1           1   2.7080433114502925E-002          10      298901           0
</event>
<event>
      5   9999  3.19816E-02  2.60855E+02 -1.00000E+00  1.07603E-01
      21    -1     0     0   502   501  0.000000000E+00  0.000000000E+00  9.817020110E+02  9.817020110E+02  0.000000000E+00  0.00000E+00  9.000E+00
      21    -1     0     0   501   512  0.000000000E+00  0.000000000E+00 -1.052104589E+03  1.052104589E+03  0.000000000E+00  0.00000E+00  9.000E+00
      25     1     1     2     0     0 -2.527735542E+02  7.609658004E+02  4.016803166E+02  9.055028967E+02  1.250000000E+02  0.00000E+00  9.000E+00
      25     1     1     2     0     0 -7.948636353E+00 -7.526340781E+02 -3.303549744E+02  8.314328869E+02  1.250000000E+02  0.00000E+00  9.000E+00
      21     1     1     2   502   512  2.607221906E+02 -8.331722297E+00 -1.417279201E+02  2.968708164E+02  6.325959759E-06  0.00000E+00  9.000E+00
#rwgt            1           1   3.4003800501274925E-002          10      298937           0
</event>
<event>
      5   9999  3.19816E-02  2.71112E+01 -1.00000E+00  1.56158E-01
      21    -1     0     0   502   501  0.000000000E+00  0.000000000E+00  8.825676615E+02  8.825676615E+02  0.000000000E+00  0.00000E+00  9.000E+00
      21    -1     0     0   501   511  0.000000000E+00  0.000000000E+00 -6.563663621E+02  6.563663621E+02  0.000000000E+00  0.00000E+00  9.000E+00
      25     1     1     2     0     0  4.430273150E+02 -5.331182419E+02  2.915580822E+02  7.623118633E+02  1.250000000E+02  0.00000E+00  9.000E+00
      25     1     1     2     0     0 -4.391259050E+02  5.599472390E+02 -1.879002601E+01  7.227382209E+02  1.250000000E+02  0.00000E+00  9.000E+00
      21     1     1     2   502   511 -3.901409995E+00 -2.682899712E+01 -4.656675672E+01  5.388393933E+01  0.000000000E+00  0.00000E+00  9.000E+00
#rwgt            1           1   3.4016675886478942E-002          10      298995           0
</event>
<event>
      5   9999  3.19816E-02  1.51426E+01 -1.00000E+00  1.76997E-01
      21    -1     0     0   502   501  0.000000000E+00  0.000000000E+00  6.982824269E+02  6.982824269E+02  0.000000000E+00  0.00000E+00  9.000E+00
      21    -1     0     0   512   502  0.000000000E+00  0.000000000E+00 -1.398953497E+02  1.398953497E+02  0.000000000E+00  0.00000E+00  9.000E+00
      25     1     1     2     0     0  1.932180512E+02 -1.671347592E+02  4.166262060E+02  5.044498375E+02  1.250000000E+02  0.00000E+00  9.000E+00
      25     1     1     2     0     0 -1.841442400E+02  1.792576805E+02  1.407380448E+02  3.185508034E+02  1.250000000E+02  0.00000E+00  9.000E+00
      21     1     1     2   512   501 -9.073811235E+00 -1.212292133E+01  1.022826350E+00  1.517713562E+01  2.370174784E-07  0.00000E+00  9.000E+00
#rwgt            1           1   2.7967363964182833E-002          10      299176           0
</event>
<event>
      5   9999  3.19816E-02  4.02281E+01 -1.00000E+00  1.44687E-01
      21    -1     0     0   502   501  0.000000000E+00  0.000000000E+00  1.178354795E+03  1.178354795E+03  0.000000000E+00  0.00000E+00  9.000E+00
       2    -1     0     0   501     0  0.000000000E+00  0.000000000E+00 -1.008416873E+03  1.008416873E+03  0.000000000E+00  0.00000E+00  9.000E+00
      25     1     1     2     0     0  2.526710677E+01 -9.005317317E+01  8.542271541E+02  8.683760887E+02  1.250000000E+02  0.00000E+00  9.000E+00
      25     1     1     2     0     0 -6.466682658E+01  8.193147601E+01  2.957022843E+02  3.375787407E+02  1.250000000E+02  0.00000E+00  9.000E+00
       2     1     1     2   502     0  3.939971981E+01  8.121697160E+00 -9.799915160E+02  9.808168389E+02  1.078959322E-05  0.00000E+00  9.000E+00
#rwgt            1           1   2.9923975340801271E-002          10      299333           0
</event>
<event>
      5   9999  3.19816E-02  1.15890E+01 -1.00000E+00  1.88633E-01
      21    -1     0     0   502   501  0.000000000E+00  0.000000000E+00  9.686837259E+02  9.686837259E+02  0.000000000E+00  0.00000E+00  9.000E+00
      21    -1     0     0   511   502  0.000000000E+00  0.000000000E+00 -1.465361169E+02  1.465361169E+02  0.000000000E+00  0.00000E+00  9.000E+00
      25     1     1     2     0     0  1.639552686E+02  2.686217598E+02  2.276735410E+02  4.080431609E+02  1.250000000E+02  0.00000E+00  9.000E+00
      25     1     1     2     0     0 -1.523672019E+02 -2.687713765E+02  6.055099160E+02  6.911736941E+02  1.250000000E+02  0.00000E+00  9.000E+00
      21     1     1     2   511   501 -1.158806671E+01  1.496167392E-01 -1.103584799E+01  1.600298773E+01  4.460403188E-07  0.00000E+00  9.000E+00
#rwgt            1           1   2.9668801210857389E-002          10      299413           0
</event>
<event>
      5   9999  3.19816E-02  1.55743E+01 -1.00000E+00  1.75860E-01
      21    -1     0     0   502   512  0.000000000E+00  0.000000000E+00  5.919119293E+02  5.919119293E+02  0.000000000E+00  0.00000E+00  9.000E+00
      21    -1     0     0   501   502  0.000000000E+00  0.000000000E+00 -1.612753570E+02  1.612753570E+02  0.000000000E+00  0.00000E+00  9.000E+00
      25     1     1     2     0     0  1.910218268E+02 -1.374269472E+02  7.117410209E+01  2.758011184E+02  1.250000000E+02  0.00000E+00  9.000E+00
      25     1     1     2     0     0 -2.026338192E+02  1.270481560E+02  2.534015056E+02  3.701878194E+02  1.250000000E+02  0.00000E+00  9.000E+00
      21     1     1     2   501   512  1.161199242E+01  1.037879121E+01  1.060609646E+02  1.071983484E+02  1.348699152E-06  0.00000E+00  9.000E+00
#rwgt            1           1   2.9220086301283657E-002          10      299811           0
</event>
<event>
      5   9999  3.19816E-02  4.96567E+01 -1.00000E+00  1.39246E-01
      21    -1     0     0   502   511  0.000000000E+00  0.000000000E+00  6.415802999E+02  6.415802999E+02  0.000000000E+00  0.00000E+00  9.000E+00
      21    -1     0     0   501   502  0.000000000E+00  0.000000000E+00 -9.218793133E+01  9.218793133E+01  0.000000000E+00  0.00000E+00  9.000E+00
      25     1     1     2     0     0  2.302698221E+01  2.633832897E+01  3.715115230E+02  3.935349555E+02  1.250000000E+02  0.00000E+00  9.000E+00
      25     1     1     2     0     0 -3.721899286E-01  1.784929084E+01 -2.725191157E+01  1.291758584E+02  1.250000000E+02  0.00000E+00  9.000E+00
      21     1     1     2   501   511 -2.265479228E+01 -4.418761981E+01  2.051327571E+02  2.110574173E+02  2.697398305E-06  0.00000E+00  9.000E+00
#rwgt            1           1   3.6208163378945529E-002          10      299988           0
</event>
<event>
      5   9999  3.19816E-02  3.07408E+01 -1.00000E+00  1.52308E-01
      21    -1     0     0   512   501  0.000000000E+00  0.000000000E+00  7.200533746E+02  7.200533746E+02  0.000000000E+00  0.00000E+00  9.000E+00
      21    -1     0     0   501   502  0.000000000E+00  0.000000000E+00 -1.513652670E+02  1.513652670E+02  0.000000000E+00  0.00000E+00  9.000E+00
      25     1     1     2     0     0  1.296873607E+02  9.411308702E+01  5.554650575E+02  5.914748640E+02  1.250000000E+02  0.00000E+00  9.000E+00
      25     1     1     2     0     0 -1.404168097E+02 -1.229206411E+02 -3.031140260E+01  2.266498303E+02  1.250000000E+02  0.00000E+00  9.000E+00
      21     1     1     2   512   502  1.072944895E+01  2.880755409E+01  4.353445271E+01  5.329394732E+01  8.259061849E-07  0.00000E+00  9.000E+00
#rwgt            1           1   2.7191669099883475E-002          10      300063           0
</event>
<event>
      5   9999  3.19816E-02  1.13171E+02 -1.00000E+00  1.21458E-01
      21    -1     0     0   502   511  0.000000000E+00  0.000000000E+00  1.996030954E+02  1.996030954E+02  0.000000000E+00  0.00000E+00  9.000E+00
      21    -1     0     0   501   502  0.000000000E+00  0.000000000E+00 -8.386935463E+02  8.386935463E+02  0.000000000E+00  0.00000E+00  9.000E+00
      25     1     1     2     0     0  8.924605452E+01  2.015056194E+02 -4.262110758E+02  4.958328893E+02  1.250000000E+02  0.00000E+00  9.000E+00
      25     1     1     2     0     0 -1.052479836E+02 -3.135396149E+02 -2.384249627E+02  4.264454138E+02  1.250000000E+02  0.00000E+00  9.000E+00
      21     1     1     2   501   511  1.600192907E+01  1.120339954E+02  2.554558760E+01  1.160183387E+02  3.162979880E-06  0.00000E+00  9.000E+00
#rwgt            1           1   2.8690090816148699E-002          10      300176           0
</event>
<event>
      5   9999  3.19816E-02  2.22132E+02 -1.00000E+00  1.10013E-01
      21    -1     0     0   502   501  0.000000000E+00  0.000000000E+00  2.722775733E+02  2.722775733E+02  0.000000000E+00  0.00000E+00  9.000E+00
      21    -1     0     0   501   512  0.000000000E+00  0.000000000E+00 -1.111827815E+03  1.111827815E+03  0.000000000E+00  0.00000E+00  9.000E+00
      25     1     1     2     0     0 -4.414756904E+02 -1.996758816E+02 -4.823159401E+02  6.949999345E+02  1.250000000E+02  0.00000E+00  9.000E+00
      25     1     1     2     0     0  3.324922524E+02  6.115936656E+00 -1.510972613E+02  3.860620222E+02  1.250000000E+02  0.00000E+00  9.000E+00
      21     1     1     2   502   512  1.089834380E+02  1.935599449E+02 -2.061370404E+02  3.030434316E+02  5.394796609E-06  0.00000E+00  9.000E+00
#rwgt            1           1   3.1895225735317799E-002          10      300267           0
</event>
<event>
      5   9999  3.19816E-02  1.62442E+02 -1.00000E+00  1.15038E-01
      21    -1     0     0   511   501  0.000000000E+00  0.000000000E+00  1.803110544E+02  1.803110544E+02  0.000000000E+00  0.00000E+00  9.000E+00
      21    -1     0     0   501   502  0.000000000E+00  0.000000000E+00 -1.048539006E+03  1.048539006E+03  0.000000000E+00  0.00000E+00  9.000E+00
      25     1     1     2     0     0 -1.654498626E+02 -3.411400880E+01  5.816102908E+01  2.180484532E+02  1.250000000E+02  0.00000E+00  9.000E+00
      25     1     1     2     0     0  1.422365100E+01  9.342719166E+01 -7.683466068E+02  7.841635420E+02  1.250000000E+02  0.00000E+00  9.000E+00
      21     1     1     2   511   502  1.512262116E+02 -5.931318286E+01 -1.580423744E+02  2.266380657E+02  1.907348633E-06  0.00000E+00  9.000E+00
#rwgt            1           1   2.7550386177569577E-002          10      300336           0
</event>
<event>
      5   9999  3.19816E-02  1.55933E+01 -1.00000E+00  1.75811E-01
      21    -1     0     0   502   501  0.000000000E+00  0.000000000E+00  1.000561181E+02  1.000561181E+02  0.000000000E+00  0.00000E+00  9.000E+00
      21    -1     0     0   501   512  0.000000000E+00  0.000000000E+00 -2.065569365E+02  2.065569365E+02  0.000000000E+00  0.00000E+00  9.000E+00
      25     1     1     2     0     0 -3.342274660E+01 -3.731021278E+01 -2.113677208E+01  1.363117570E+02  1.250000000E+02  0.00000E+00  9.000E+00
      25     1     1     2     0     0  1.916765919E+01  3.099013955E+01 -6.774339551E+01  1.467717805E+02  1.250000000E+02  0.00000E+00  9.000E+00
      21     1     1     2   502   512  1.425508741E+01  6.320073225E+00 -1.762065083E+01  2.352951717E+01  0.000000000E+00  0.00000E+00  9.000E+00
#rwgt            1           1   6.3671625348522215E-003          10      300404           0
</event>
<event>
      5   9999  3.19816E-02  1.52881E+01 -1.00000E+00  1.76609E-01
      21    -1     0     0   502   501  0.000000000E+00  0.000000000E+00  3.826215112E+01  3.826215112E+01  0.000000000E+00  0.00000E+00  9.000E+00
      21    -1     0     0   501   511  0.000000000E+00  0.000000000E+00 -2.066523715E+03  2.066523715E+03  0.000000000E+00  0.00000E+00  9.000E+00
      25     1     1     2     0     0 -1.739636981E+01 -6.967162560E+01 -1.176794016E+03  1.185590960E+03  1.250000000E+02  0.00000E+00  9.000E+00
      25     1     1     2     0     0  3.091575069E+01  7.680969371E+01 -1.325801619E+02  2.001449775E+02  1.250000000E+02  0.00000E+00  9.000E+00
      21     1     1     2   502   511 -1.351938089E+01 -7.138068109E+00 -7.188873866E+02  7.190499289E+02  1.321449896E-05  0.00000E+00  9.000E+00
#rwgt            1           1   2.3073644946851515E-002          10      300567           0
</event>
<event>
      5   9999  3.19816E-02  1.05751E+02 -1.00000E+00  1.22745E-01
      21    -1     0     0   502   501  0.000000000E+00  0.000000000E+00  1.639123171E+03  1.639123171E+03  0.000000000E+00  0.00000E+00  9.000E+00
      21    -1     0     0   512   502  0.000000000E+00  0.000000000E+00 -5.816686972E+01  5.816686972E+01  0.000000000E+00  0.00000E+00  9.000E+00
      25     1     1     2     0     0 -1.152723201E+02 -1.153483922E+02  1.280568911E+03  1.296948224E+03  1.250000000E+02  0.00000E+00  9.000E+00
      25     1     1     2     0     0  6.109812557E+01  2.452766630E+01  2.401871016E+02  2.786564752E+02  1.250000000E+02  0.00000E+00  9.000E+00
      21     1     1     2   512   501  5.417419453E+01  9.082072593E+01  6.020028837E+01  1.216853415E+02  9.536743164E-07  0.00000E+00  9.000E+00
#rwgt            1           1   5.3947255769055142E-003          10      300726           0
</event>
<event>
      5   9999  3.19816E-02  6.04325E+01 -1.00000E+00  1.34537E-01
      21    -1     0     0   502   501  0.000000000E+00  0.000000000E+00  6.424868831E+02  6.424868831E+02  0.000000000E+00  0.00000E+00  9.000E+00
      21    -1     0     0   511   502  0.000000000E+00  0.000000000E+00 -4.676363940E+02  4.676363940E+02  0.000000000E+00  0.00000E+00  9.000E+00
      25     1     1     2     0     0  2.389510169E+02  4.104009929E+02  2.873252230E+02  5.689528515E+02  1.250000000E+02  0.00000E+00  9.000E+00
      25     1     1     2     0     0 -2.703186246E+02 -3.587467678E+02 -8.173006561E+01  4.733668829E+02  1.250000000E+02  0.00000E+00  9.000E+00
      21     1     1     2   511   501  3.136760767E+01 -5.165422508E+01 -3.074466827E+01  6.780354273E+01  7.539457465E-07  0.00000E+00  9.000E+00
#rwgt            1           1   3.0125910708186581E-002          10      300818           0
</event>
<event>
      5   9999  3.19816E-02  1.77911E+01 -1.00000E+00  1.70675E-01
      21    -1     0     0   502   512  0.000000000E+00  0.000000000E+00  1.071719583E+03  1.071719583E+03  0.000000000E+00  0.00000E+00  9.000E+00
      21    -1     0     0   501   502  0.000000000E+00  0.000000000E+00 -2.327656066E+02  2.327656066E+02  0.000000000E+00  0.00000E+00  9.000E+00
      25     1     1     2     0     0  1.783340281E+02  4.476613872E+02  3.985531955E+02  6.377094894E+02  1.250000000E+02  0.00000E+00  9.000E+00
      25     1     1     2     0     0 -1.670587796E+02 -4.338993860E+02  4.142225917E+02  6.351241363E+02  1.250000000E+02  0.00000E+00  9.000E+00
      21     1     1     2   501   512 -1.127524852E+01 -1.376200119E+01  2.617818905E+01  3.165156375E+01  3.371747881E-07  0.00000E+00  9.000E+00
#rwgt            1           1   3.0113140387983749E-002          10      300937           0
</event>
<event>
      5   9999  3.19816E-02  1.52767E+02 -1.00000E+00  1.16080E-01
       3    -1     0     0   502     0  0.000000000E+00  0.000000000E+00  1.323811571E+03  1.323811571E+03  0.000000000E+00  0.00000E+00  9.000E+00
      21    -1     0     0   501   502  0.000000000E+00  0.000000000E+00 -1.667051746E+02  1.667051746E+02  0.000000000E+00  0.00000E+00  9.000E+00
      25     1     1     2     0     0  3.326559877E+02 -1.491869751E+02  1.974152501E+02  4.330294917E+02  1.250000000E+02  0.00000E+00  9.000E+00
      25     1     1     2     0     0 -2.628659452E+02  1.329354078E+01  6.329920281E+02  6.968350816E+02  1.250000000E+02  0.00000E+00  9.000E+00
       3     1     1     2   501     0 -6.979004254E+01  1.358934343E+02  3.266991181E+02  3.606521722E+02  0.000000000E+00  0.00000E+00  9.000E+00
#rwgt            1           1   2.9473736468598615E-002          10      301108           0
</event>
<event>
      5   9999  3.19816E-02  8.15359E+01 -1.00000E+00  1.27951E-01
      21    -1     0     0   511   501  0.000000000E+00  0.000000000E+00  6.359435267E+02  6.359435267E+02  0.000000000E+00  0.00000E+00  9.000E+00
      21    -1     0     0   501   502  0.000000000E+00  0.000000000E+00 -9.420879510E+01  9.420879510E+01  0.000000000E+00  0.00000E+00  9.000E+00
      25     1     1     2     0     0  8.359881300E+01 -5.453462239E+01  3.190416452E+02  3.568968450E+02  1.250000000E+02  0.00000E+00  9.000E+00
      25     1     1     2     0     0 -1.501777968E+02  7.467217602E+00  8.495537797E+01  2.131936825E+02  1.250000000E+02  0.00000E+00  9.000E+00
      21     1     1     2   511   502  6.657898384E+01  4.706740479E+01  1.377377084E+02  1.600617943E+02  1.907348633E-06  0.00000E+00  9.000E+00
#rwgt            1           1   2.8070607551773333E-002          10      301197           0
</event>
<event>
      5   9999  3.19816E-02  1.52926E+02 -1.00000E+00  1.16062E-01
      21    -1     0     0   502   501  0.000000000E+00  0.000000000E+00  3.274068242E+02  3.274068242E+02  0.000000000E+00  0.00000E+00  9.000E+00
      21    -1     0     0   512   502  0.000000000E+00  0.000000000E+00 -3.644323844E+02  3.644323844E+02  0.000000000E+00  0.00000E+00  9.000E+00
      25     1     1     2     0     0  9.629866080E+01  1.575413175E+02 -1.443933610E+02  2.656447656E+02  1.250000000E+02  0.00000E+00  9.000E+00
      25     1     1     2     0     0 -2.063395329E+02 -5.134586300E+01  1.169385307E+02  2.729689002E+02  1.250000000E+02  0.00000E+00  9.000E+00
      21     1     1     2   512   501  1.100408721E+02 -1.061954545E+02 -9.570729989E+00  1.532255428E+02  2.739220927E-06  0.00000E+00  9.000E+00
#rwgt            1           1   2.7679244348355763E-002          10      301267           0
</event>
<event>
      5   9999  3.19816E-02  6.27613E+00 -1.00000E+00  2.22479E-01
      21    -1     0     0   502   501  0.000000000E+00  0.000000000E+00  1.604888156E+02  1.604888156E+02  0.000000000E+00  0.00000E+00  9.000E+00
      21    -1     0     0   501   511  0.000000000E+00  0.000000000E+00 -3.537115390E+02  3.537115390E+02  0.000000000E+00  0.00000E+00  9.000E+00
      25     1     1     2     0     0 -5.772295533E+01  1.393049453E+02 -4.333673735E+00  1.959121948E+02  1.250000000E+02  0.00000E+00  9.000E+00
      25     1     1     2     0     0  5.160553176E+01 -1.407074124E+02 -8.277193736E+01  2.119856137E+02  1.250000000E+02  0.00000E+00  9.000E+00
      21     1     1     2   502   511  6.117423565E+00  1.402467171E+00 -1.061171123E+02  1.063025461E+02  0.000000000E+00  0.00000E+00  9.000E+00
#rwgt            1           1   3.1042608145143345E-002          10      301315           0
</event>
<event>
      5   9999  3.19816E-02  3.99918E+01 -1.00000E+00  1.44846E-01
      21    -1     0     0   512   501  0.000000000E+00  0.000000000E+00  5.306177801E+02  5.306177801E+02  0.000000000E+00  0.00000E+00  9.000E+00
      21    -1     0     0   501   502  0.000000000E+00  0.000000000E+00 -1.323526984E+02  1.323526984E+02  0.000000000E+00  0.00000E+00  9.000E+00
      25     1     1     2     0     0  1.069357560E+02  1.103077982E+02 -3.379312279E+00  1.980895909E+02  1.250000000E+02  0.00000E+00  9.000E+00
      25     1     1     2     0     0 -1.087323753E+02 -7.035635823E+01  2.500192693E+02  3.080704167E+02  1.250000000E+02  0.00000E+00  9.000E+00
      21     1     1     2   512   502  1.796619357E+00 -3.995143999E+01  1.516251247E+02  1.568104710E+02  1.907348633E-06  0.00000E+00  9.000E+00
#rwgt            1           1   2.7150074250458806E-002          10      301548           0
</event>
<event>
      5   9999  3.19816E-02  2.79613E+01 -1.00000E+00  1.55193E-01
      21    -1     0     0   502   501  0.000000000E+00  0.000000000E+00  3.549544747E+02  3.549544747E+02  0.000000000E+00  0.00000E+00  9.000E+00
      21    -1     0     0   511   502  0.000000000E+00  0.000000000E+00 -1.942579678E+03  1.942579678E+03  0.000000000E+00  0.00000E+00  9.000E+00
      25     1     1     2     0     0  2.037310127E+02  7.393787411E+02 -9.375866135E+02  1.217735976E+03  1.250000000E+02  0.00000E+00  9.000E+00
      25     1     1     2     0     0 -1.759883217E+02 -7.358887413E+02 -4.740092656E+02  9.015619295E+02  1.250000000E+02  0.00000E+00  9.000E+00
      21     1     1     2   511   501 -2.774269101E+01 -3.489999846E+00 -1.760293245E+02  1.782362480E+02  1.907348633E-06  0.00000E+00  9.000E+00
#rwgt            1           1   3.1770751208988923E-002          10      301630           0
</event>
<event>
      5   9999  3.19816E-02  6.56749E+01 -1.00000E+00  1.32639E-01
      21    -1     0     0   512   501  0.000000000E+00  0.000000000E+00  8.543381787E+02  8.543381787E+02  0.000000000E+00  0.00000E+00  9.000E+00
      21    -1     0     0   501   502  0.000000000E+00  0.000000000E+00 -4.401192308E+02  4.401192308E+02  0.000000000E+00  0.00000E+00  9.000E+00
      25     1     1     2     0     0 -1.413065954E+01  1.887401154E+02  5.670425837E+02  6.107248140E+02  1.250000000E+02  0.00000E+00  9.000E+00
      25     1     1     2     0     0  7.517054152E+00 -2.540811860E+02 -3.647725836E+02  4.618417401E+02  1.250000000E+02  0.00000E+00  9.000E+00
      21     1     1     2   512   502  6.613605386E+00  6.534107057E+01  2.119489478E+02  2.218908555E+02  2.697398305E-06  0.00000E+00  9.000E+00
#rwgt            1           1   3.2853111326190260E-002          10      301792           0
</event>
<event>
      5   9999  3.19816E-02  2.45096E+01 -1.00000E+00  1.59398E-01
      21    -1     0     0   502   501  0.000000000E+00  0.000000000E+00  1.155688004E+03  1.155688004E+03  0.000000000E+00  0.00000E+00  9.000E+00
      21    -1     0     0   501   511  0.000000000E+00  0.000000000E+00 -1.493208273E+03  1.493208273E+03  0.000000000E+00  0.00000E+00  9.000E+00
      25     1     1     2     0     0  5.449437138E+02 -3.357329153E+02 -1.221003602E+03  1.384252519E+03  1.250000000E+02  0.00000E+00  9.000E+00
      25     1     1     2     0     0 -5.588259037E+02  3.559320361E+02  9.663001402E+02  1.178276269E+03  1.250000000E+02  0.00000E+00  9.000E+00
      21     1     1     2   502   511  1.388218987E+01 -2.019912083E+01 -8.281680678E+01  8.636748904E+01  1.348699152E-06  0.00000E+00  9.000E+00
#rwgt            1           1   5.7773042968513204E-002          10      301928           0
</event>
<event>
      5   9999  3.19816E-02  1.20275E+02 -1.00000E+00  1.20326E-01
       1    -1     0     0   502     0  0.000000000E+00  0.000000000E+00  4.993467912E+02  4.993467912E+02  0.000000000E+00  0.00000E+00  9.000E+00
      21    -1     0     0   501   502  0.000000000E+00  0.000000000E+00 -6.176211957E+02  6.176211957E+02  0.000000000E+00  0.00000E+00  9.000E+00
      25     1     1     2     0     0  3.602662975E+02 -1.659297096E+02  2.183443860E+02  4.697060193E+02  1.250000000E+02  0.00000E+00  9.000E+00
      25     1     1     2     0     0 -2.647635562E+02  2.390416062E+02 -3.630788986E+02  5.241105960E+02  1.250000000E+02  0.00000E+00  9.000E+00
       1     1     1     2   501     0 -9.550274130E+01 -7.311189661E+01  2.646010814E+01  1.231513717E+02  1.390207266E-06  0.00000E+00  9.000E+00
#rwgt            1           1   2.4585282936566633E-002          10      302140           0
</event>
<event>
      5   9999  3.19816E-02  1.23170E+02 -1.00000E+00  1.19890E-01
       1    -1     0     0   502     0  0.000000000E+00  0.000000000E+00  2.192822594E+03  2.192822594E+03  0.000000000E+00  0.00000E+00  9.000E+00
      21    -1     0     0   501   502  0.000000000E+00  0.000000000E+00 -7.589388411E+01  7.589388411E+01  0.000000000E+00  0.00000E+00  9.000E+00
      25     1     1     2     0     0  1.864750414E+02  2.725471418E+02  6.667284168E+02  7.544578632E+02  1.250000000E+02  0.00000E+00  9.000E+00
      25     1     1     2     0     0 -1.742140234E+02 -1.499892828E+02  5.918435483E+02  6.471098026E+02  1.250000000E+02  0.00000E+00  9.000E+00
       1     1     1     2   501     0 -1.226101799E+01 -1.225578590E+02  8.583567443E+02  8.671488119E+02  1.525878906E-05  0.00000E+00  9.000E+00
#rwgt            2          17   3.8009327184334565E-004          10      302558           0
</event>
<event>
      5   9999  3.19816E-02  1.47158E+01 -1.00000E+00  1.78170E-01
      21    -1     0     0   502   501  0.000000000E+00  0.000000000E+00  3.094712062E+02  3.094712062E+02  0.000000000E+00  0.00000E+00  9.000E+00
      21    -1     0     0   501   511  0.000000000E+00  0.000000000E+00 -9.367609312E+01  9.367609312E+01  0.000000000E+00  0.00000E+00  9.000E+00
      25     1     1     2     0     0  2.028954162E+00  8.529389631E+01  4.559583332E+01  1.580605752E+02  1.250000000E+02  0.00000E+00  9.000E+00
      25     1     1     2     0     0  6.297275057E+00 -9.742765547E+01  1.664133797E+02  2.298917499E+02  1.250000000E+02  0.00000E+00  9.000E+00
      21     1     1     2   502   511 -8.326229219E+00  1.213375916E+01  3.785900088E+00  1.519497429E+01  1.837138534E-07  0.00000E+00  9.000E+00
#rwgt            1           1   2.3375831043007000E-002          10      302577           0
</event>
<event>
      5   9999  3.19816E-02  1.84155E+02 -1.00000E+00  1.12969E-01
       1    -1     0     0   502     0  0.000000000E+00  0.000000000E+00  1.137039277E+03  1.137039277E+03  0.000000000E+00  0.00000E+00  9.000E+00
      21    -1     0     0   501   502  0.000000000E+00  0.000000000E+00 -2.601368488E+02  2.601368488E+02  0.000000000E+00  0.00000E+00  9.000E+00
      25     1     1     2     0     0  5.575491136E+00  2.254234669E+00 -2.046789292E+02  2.399054642E+02  1.250000000E+02  0.00000E+00  9.000E+00
      25     1     1     2     0     0 -1.869960868E+02 -3.386931018E+01  5.903395516E+02  6.326455982E+02  1.250000000E+02  0.00000E+00  9.000E+00
       1     1     1     2   501     0  1.814205957E+02  3.161507551E+01  4.912418062E+02  5.246250640E+02  7.629394531E-06  0.00000E+00  9.000E+00
#rwgt            2          17   3.9857986261102008E-004          10      302781           0
</event>
<event>
      5   9999  3.19816E-02  1.60376E+02 -1.00000E+00  1.15254E-01
      21    -1     0     0   511   501  0.000000000E+00  0.000000000E+00  3.333813081E+02  3.333813081E+02  0.000000000E+00  0.00000E+00  9.000E+00
      21    -1     0     0   501   502  0.000000000E+00  0.000000000E+00 -8.813657104E+02  8.813657104E+02  0.000000000E+00  0.00000E+00  9.000E+00
      25     1     1     2     0     0  3.237406870E+02  1.307700719E+02 -5.845669339E+02  6.922805388E+02  1.250000000E+02  0.00000E+00  9.000E+00
      25     1     1     2     0     0 -2.918065939E+02  2.639462525E+01 -7.479246417E+01  3.272104478E+02  1.250000000E+02  0.00000E+00  9.000E+00
      21     1     1     2   511   502 -3.193409316E+01 -1.571646971E+02  1.113749957E+02  1.952560319E+02  2.697398305E-06  0.00000E+00  9.000E+00
#rwgt            1           1   2.7969714977071739E-002          10      302800           0
</event>
<event>
      5   9999  3.19816E-02  1.20418E+02 -1.00000E+00  1.20304E-01
      21    -1     0     0   502   512  0.000000000E+00  0.000000000E+00  5.240290758E+02  5.240290758E+02  0.000000000E+00  0.00000E+00  9.000E+00
      21    -1     0     0   501   502  0.000000000E+00  0.000000000E+00 -8.995970711E+02  8.995970711E+02  0.000000000E+00  0.00000E+00  9.000E+00
      25     1     1     2     0     0  1.358717603E+02 -3.910528939E+02 -3.832496774E+02  5.778311313E+02  1.250000000E+02  0.00000E+00  9.000E+00
      25     1     1     2     0     0 -1.549758786E+01  3.942840579E+02 -3.027551788E+02  5.128214035E+02  1.250000000E+02  0.00000E+00  9.000E+00
      21     1     1     2   501   512 -1.203741724E+02 -3.231163957E+00  3.104368608E+02  3.329736121E+02  6.607249480E-06  0.00000E+00  9.000E+00
#rwgt            1           1   3.0363140667770790E-002          10      302908           0
</event>
<event>
      5   9999  3.19816E-02  1.26124E+02 -1.00000E+00  1.19458E-01
      21    -1     0     0   502   511  0.000000000E+00  0.000000000E+00  5.767889058E+02  5.767889058E+02  0.000000000E+00  0.00000E+00  9.000E+00
      21    -1     0     0   501   502  0.000000000E+00  0.000000000E+00 -3.433860210E+02  3.433860210E+02  0.000000000E+00  0.00000E+00  9.000E+00
      25     1     1     2     0     0  2.645339174E+02 -1.473413457E+02  1.604040079E+02  3.647493816E+02  1.250000000E+02  0.00000E+00  9.000E+00
      25     1     1     2     0     0 -2.819482462E+02  2.722570382E+02  3.470898924E+00  4.114070436E+02  1.250000000E+02  0.00000E+00  9.000E+00
      21     1     1     2   501   511  1.741432881E+01 -1.249156925E+02  6.952797794E+01  1.440185016E+02  0.000000000E+00  0.00000E+00  9.000E+00
#rwgt            1           1   2.7984084968714913E-002          10      302956           0
</event>
<event>
      5   9999  3.19816E-02  5.77215E+01 -1.00000E+00  1.35608E-01
      21    -1     0     0   502   501  0.000000000E+00  0.000000000E+00  2.218918347E+03  2.218918347E+03  0.000000000E+00  0.00000E+00  9.000E+00
      21    -1     0     0   501   512  0.000000000E+00  0.000000000E+00 -4.277130534E+02  4.277130534E+02  0.000000000E+00  0.00000E+00  9.000E+00
      25     1     1     2     0     0  6.179990917E+02 -1.959564887E+02  1.133381212E+01  6.603599610E+02  1.250000000E+02  0.00000E+00  9.000E+00
      25     1     1     2     0     0 -6.749579897E+02  2.053083933E+02  1.789636109E+03  1.927729812E+03  1.250000000E+02  0.00000E+00  9.000E+00
      21     1     1     2   502   512  5.695889796E+01 -9.351904627E+00 -9.764627842E+00  5.854162736E+01  6.637292341E-07  0.00000E+00  9.000E+00
#rwgt            1           1   2.7050374847145151E-002          10      303029           0
</event>
<event>
      5   9999  3.19816E-02  7.07597E+01 -1.00000E+00  1.30984E-01
      21    -1     0     0   502   511  0.000000000E+00  0.000000000E+00  2.198378298E+03  2.198378298E+03  0.000000000E+00  0.00000E+00  9.000E+00
      21    -1     0     0   501   502  0.000000000E+00  0.000000000E+00 -2.789588421E+02  2.789588421E+02  0.000000000E+00  0.00000E+00  9.000E+00
      25     1     1     2     0     0  4.800744785E+02 -4.961404797E+02  1.399491326E+03  1.565512009E+03  1.250000000E+02  0.00000E+00  9.000E+00
      25     1     1     2     0     0 -4.678997006E+02  4.264360029E+02  3.646790623E+02  7.412109098E+02  1.250000000E+02  0.00000E+00  9.000E+00
      21     1     1     2   501   511 -1.217477793E+01  6.970447681E+01  1.552490684E+02  1.706142214E+02  2.697398305E-06  0.00000E+00  9.000E+00
#rwgt            2          11   7.6408427669292338E-003          10      303207           0
</event>
<event>
      5   9999  3.19816E-02  1.43412E+01 -1.00000E+00  1.79241E-01
      21    -1     0     0   502   512  0.000000000E+00  0.000000000E+00  1.215432143E+03  1.215432143E+03  0.000000000E+00  0.00000E+00  9.000E+00
      21    -1     0     0   501   502  0.000000000E+00  0.000000000E+00 -2.232094005E+02  2.232094005E+02  0.000000000E+00  0.00000E+00  9.000E+00
      25     1     1     2     0     0 -2.974694201E+02 -3.178432426E+02  2.098853839E+02  4.991885988E+02  1.250000000E+02  0.00000E+00  9.000E+00
      25     1     1     2     0     0  2.872465906E+02  3.279013138E+02  5.782671141E+02  7.348793987E+02  1.250000000E+02  0.00000E+00  9.000E+00
      21     1     1     2   501   512  1.022282951E+01 -1.005807123E+01  2.040702442E+02  2.045735458E+02  2.697398305E-06  0.00000E+00  9.000E+00
#rwgt            1           1   3.2872341468935681E-002          10      303227           0
</event>
<event>
      5   9999  3.19816E-02  6.63919E+02 -1.00000E+00  9.54751E-02
      21    -1     0     0   511   501  0.000000000E+00  0.000000000E+00  7.869951661E+02  7.869951661E+02  0.000000000E+00  0.00000E+00  9.000E+00
      21    -1     0     0   501   502  0.000000000E+00  0.000000000E+00 -7.637229169E+02  7.637229169E+02  0.000000000E+00  0.00000E+00  9.000E+00
      25     1     1     2     0     0 -6.117613895E+01  4.668990254E+02  1.330414260E+01  4.873799546E+02  1.250000000E+02  0.00000E+00  9.000E+00
      25     1     1     2     0     0 -1.482131645E+02  1.631366527E+02 -2.446960606E+02  3.522525680E+02  1.250000000E+02  0.00000E+00  9.000E+00
      21     1     1     2   511   502  2.093893035E+02 -6.300356781E+02  2.546641673E+02  7.110855604E+02  1.640763334E-05  0.00000E+00  9.000E+00
#rwgt            2          11   3.0403841223898150E-003          10      303439           0
</event>
<event>
      5   9999  3.19816E-02  1.02460E+02 -1.00000E+00  1.23355E-01
      21    -1     0     0   512   501  0.000000000E+00  0.000000000E+00  6.557354026E+02  6.557354026E+02  0.000000000E+00  0.00000E+00  9.000E+00
      21    -1     0     0   501   502  0.000000000E+00  0.000000000E+00 -4.958926165E+02  4.958926165E+02  0.000000000E+00  0.00000E+00  9.000E+00
      25     1     1     2     0     0 -2.561582691E+02 -1.990703089E+01  1.927505588E+02  3.446608864E+02  1.250000000E+02  0.00000E+00  9.000E+00
      25     1     1     2     0     0  1.818565398E+02  9.045751165E+01 -3.780202673E+02  4.469660893E+02  1.250000000E+02  0.00000E+00  9.000E+00
      21     1     1     2   512   502  7.430172932E+01 -7.055048076E+01  3.451124946E+02  3.600010434E+02  5.394796609E-06  0.00000E+00  9.000E+00
#rwgt            1           1   2.8655574117273337E-002          10      303459           0
</event>
<event>
      5   9999  3.19816E-02  1.11012E+02 -1.00000E+00  1.21821E-01
      21    -1     0     0   511   501  0.000000000E+00  0.000000000E+00  1.668047638E+02  1.668047638E+02  0.000000000E+00  0.00000E+00  9.000E+00
      21    -1     0     0   501   502  0.000000000E+00  0.000000000E+00 -2.632083830E+02  2.632083830E+02  0.000000000E+00  0.00000E+00  9.000E+00
      25     1     1     2     0     0  1.518210730E+00  1.235111972E+02 -6.977003048E+01  1.890771746E+02  1.250000000E+02  0.00000E+00  9.000E+00
      25     1     1     2     0     0  2.315582503E+01 -1.527595279E+01 -2.125772799E+01  1.297938287E+02  1.250000000E+02  0.00000E+00  9.000E+00
      21     1     1     2   511   502 -2.467403576E+01 -1.082352444E+02 -5.375860747E+00  1.111421435E+02  9.214654466E-07  0.00000E+00  9.000E+00
#rwgt            1           1   2.3431955822998517E-002          10      303525           0
</event>
<event>
      5   9999  3.19816E-02  1.91038E+02 -1.00000E+00  1.12378E-01
       2    -1     0     0   502     0  0.000000000E+00  0.000000000E+00  1.478781392E+03  1.478781392E+03  0.000000000E+00  0.00000E+00  9.000E+00
      21    -1     0     0   501   502  0.000000000E+00  0.000000000E+00 -1.802213628E+02  1.802213628E+02  0.000000000E+00  0.00000E+00  9.000E+00
      25     1     1     2     0     0 -5.376057415E+01  6.913650926E+01  9.908480459E+01  1.819693786E+02  1.250000000E+02  0.00000E+00  9.000E+00
      25     1     1     2     0     0  1.483479021E+02 -2.351146935E+02  4.650107268E+01  3.083396973E+02  1.250000000E+02  0.00000E+00  9.000E+00
       2     1     1     2   501     0 -9.458732798E+01  1.659781842E+02  1.152974152E+03  1.168693679E+03  0.000000000E+00  0.00000E+00  9.000E+00
#rwgt            1           1   2.8251418235960009E-002          10      303621           0
</event>
<event>
      5   9999  3.19816E-02  9.58925E+01 -1.00000E+00  1.24653E-01
       1    -1     0     0   502     0  0.000000000E+00  0.000000000E+00  6.991506349E+02  6.991506349E+02  0.000000000E+00  0.00000E+00  9.000E+00
      21    -1     0     0   501   502  0.000000000E+00  0.000000000E+00 -3.956700869E+02  3.956700869E+02  0.000000000E+00  0.00000E+00  9.000E+00
      25     1     1     2     0     0  9.453826412E+01 -1.316621912E+02 -6.471262280E+01  2.146744967E+02  1.250000000E+02  0.00000E+00  9.000E+00
      25     1     1     2     0     0 -2.210482822E+01  1.945013992E+02 -1.984206802E+02  3.054753411E+02  1.250000000E+02  0.00000E+00  9.000E+00
       1     1     1     2   501     0 -7.243343590E+01 -6.283920795E+01  5.666138511E+02  5.746708840E+02  0.000000000E+00  0.00000E+00  9.000E+00
#rwgt            1           1   2.5685770670464899E-002          10      303684           0
</event>
<event>
      5   9999  3.19816E-02  5.39451E+01 -1.00000E+00  1.37219E-01
      21    -1     0     0   502   501  0.000000000E+00  0.000000000E+00  3.779777732E+01  3.779777732E+01  0.000000000E+00  0.00000E+00  9.000E+00
      21    -1     0     0   511   502  0.000000000E+00  0.000000000E+00 -1.350180129E+03  1.350180129E+03  0.000000000E+00  0.00000E+00  9.000E+00
      25     1     1     2     0     0  4.782412487E+01  1.284434789E+02 -4.644127971E+02  5.000891123E+02  1.250000000E+02  0.00000E+00  9.000E+00
      25     1     1     2     0     0 -9.469187667E+00 -1.663773419E+02 -6.407763478E+02  6.737881071E+02  1.250000000E+02  0.00000E+00  9.000E+00
      21     1     1     2   511   501 -3.835493721E+01  3.793386298E+01 -2.071932066E+02  2.141006866E+02  2.697398305E-06  0.00000E+00  9.000E+00
#rwgt            1           1   2.7802622147442418E-002          10      303769           0
</event>
<event>
      5   9999  3.19816E-02  9.31160E+01 -1.00000E+00  1.25237E-01
      21    -1     0     0   512   501  0.000000000E+00  0.000000000E+00  5.764540131E+02  5.764540131E+02  0.000000000E+00  0.00000E+00  9.000E+00
      21    -1     0     0   501   502  0.000000000E+00  0.000000000E+00 -5.400316558E+02  5.400316558E+02  0.000000000E+00  0.00000E+00  9.000E+00
      25     1     1     2     0     0  8.137991266E+01  3.774388386E+02  3.062242955E+02  5.084103522E+02  1.250000000E+02  0.00000E+00  9.000E+00
      25     1     1     2     0     0 -1.247541307E+02 -2.950418757E+02 -3.459630893E+02  4.877794181E+02  1.250000000E+02  0.00000E+00  9.000E+00
      21     1     1     2   512   502  4.337421803E+01 -8.239696294E+01  7.616115113E+01  1.202958987E+02  9.536743164E-07  0.00000E+00  9.000E+00
#rwgt            1           1   3.3360789765461446E-002          10      303841           0
</event>
<event>
      5   9999  3.19816E-02  1.70881E+02 -1.00000E+00  1.14194E-01
      21    -1     0     0   502   501  0.000000000E+00  0.000000000E+00  5.931337905E+02  5.931337905E+02  0.000000000E+00  0.00000E+00  9.000E+00
      21    -1     0     0   501   511  0.000000000E+00  0.000000000E+00 -1.336976370E+03  1.336976370E+03  0.000000000E+00  0.00000E+00  9.000E+00
      25     1     1     2     0     0  4.151630934E+02 -1.486381196E+02 -1.056862049E+02  4.703703420E+02  1.250000000E+02  0.00000E+00  9.000E+00
      25     1     1     2     0     0 -3.181188316E+02  7.987463369E+00  3.308613379E+02  4.757705492E+02  1.250000000E+02  0.00000E+00  9.000E+00
      21     1     1     2   502   511 -9.704426177E+01  1.406506563E+02 -9.690177129E+02  9.839692697E+02  0.000000000E+00  0.00000E+00  9.000E+00
#rwgt            2          11   2.4568360930184831E-003          10      303982           0
</event>
<event>
      5   9999  3.19816E-02  1.74967E+02 -1.00000E+00  1.13804E-01
      21    -1     0     0   502   501  0.000000000E+00  0.000000000E+00  1.699234130E+03  1.699234130E+03  0.000000000E+00  0.00000E+00  9.000E+00
      21    -1     0     0   501   512  0.000000000E+00  0.000000000E+00 -1.809224537E+02  1.809224537E+02  0.000000000E+00  0.00000E+00  9.000E+00
      25     1     1     2     0     0 -4.165902456E+00  5.240392187E+02  6.290163755E+02  8.282035125E+02  1.250000000E+02  0.00000E+00  9.000E+00
      25     1     1     2     0     0  5.734675086E+01 -3.573499222E+02  6.666075964E+02  7.687511329E+02  1.250000000E+02  0.00000E+00  9.000E+00
      21     1     1     2   502   512 -5.318084840E+01 -1.666892964E+02  2.226877046E+02  2.832019385E+02  4.672030912E-06  0.00000E+00  9.000E+00
#rwgt            1           1   3.0003841568845880E-002          10      304017           0
</event>
<event>
      5   9999  3.19816E-02  3.61100E+02 -1.00000E+00  1.03041E-01
      21    -1     0     0   511   501  0.000000000E+00  0.000000000E+00  9.380204742E+02  9.380204742E+02  0.000000000E+00  0.00000E+00  9.000E+00
      21    -1     0     0   501   502  0.000000000E+00  0.000000000E+00 -1.474890663E+03  1.474890663E+03  0.000000000E+00  0.00000E+00  9.000E+00
      25     1     1     2     0     0 -7.333412950E+02  5.879971859E+02 -1.819494288E+02  9.655365038E+02  1.250000000E+02  0.00000E+00  9.000E+00
      25     1     1     2     0     0  6.606013003E+02 -2.342997636E+02 -6.628770576E+02  9.727905481E+02  1.250000000E+02  0.00000E+00  9.000E+00
      21     1     1     2   511   502  7.273999470E+01 -3.536974223E+02  3.079562972E+02  4.745840857E+02  0.000000000E+00  0.00000E+00  9.000E+00
#rwgt            1           1   3.2066350738043516E-002          10      304074           0
</event>
<event>
      5   9999  3.19816E-02  6.94379E+01 -1.00000E+00  1.31398E-01
      21    -1     0     0   502   501  0.000000000E+00  0.000000000E+00  8.041723161E+02  8.041723161E+02  0.000000000E+00  0.00000E+00  9.000E+00
       2    -1     0     0   501     0  0.000000000E+00  0.000000000E+00 -9.055436899E+02  9.055436899E+02  0.000000000E+00  0.00000E+00  9.000E+00
      25     1     1     2     0     0 -8.020627353E+01 -3.580090960E+02  6.185980932E+02  7.299946302E+02  1.250000000E+02  0.00000E+00  9.000E+00
      25     1     1     2     0     0  1.632726868E+01  3.307859228E+02 -1.170884029E+02  3.728546641E+02  1.250000000E+02  0.00000E+00  9.000E+00
       2     1     1     2   502     0  6.387900485E+01  2.722317325E+01 -6.028810641E+02  6.068667118E+02  7.629394531E-06  0.00000E+00  9.000E+00
#rwgt            1           1   3.1247844531079292E-002          10      304118           0
</event>
<event>
      5   9999  3.19816E-02  7.03852E+01 -1.00000E+00  1.31100E-01
      21    -1     0     0   502   501  0.000000000E+00  0.000000000E+00  6.187300609E+02  6.187300609E+02  0.000000000E+00  0.00000E+00  9.000E+00
      21    -1     0     0   511   502  0.000000000E+00  0.000000000E+00 -8.939789635E+02  8.939789635E+02  0.000000000E+00  0.00000E+00  9.000E+00
      25     1     1     2     0     0 -4.209156399E+01  3.610547268E+02 -4.588472777E+02  5.985800195E+02  1.250000000E+02  0.00000E+00  9.000E+00
      25     1     1     2     0     0  6.754936927E+01 -4.266747111E+02  4.514298776E+02  6.372033904E+02  1.250000000E+02  0.00000E+00  9.000E+00
      21     1     1     2   511   501 -2.545780528E+01  6.561998426E+01 -2.678315025E+02  2.769256144E+02  0.000000000E+00  0.00000E+00  9.000E+00
#rwgt            1           1   2.0904042412014337E-002          10      304247           0
</event>
<event>
      5   9999  3.19816E-02  2.39005E+01 -1.00000E+00  1.60228E-01
      21    -1     0     0   512   501  0.000000000E+00  0.000000000E+00  2.323276132E+02  2.323276132E+02  0.000000000E+00  0.00000E+00  9.000E+00
      21    -1     0     0   501   502  0.000000000E+00  0.000000000E+00 -3.651479043E+02  3.651479043E+02  0.000000000E+00  0.00000E+00  9.000E+00
      25     1     1     2     0     0 -6.618506533E+01  2.125183581E+02 -1.584840784E+02  3.004774842E+02  1.250000000E+02  0.00000E+00  9.000E+00
      25     1     1     2     0     0  8.484607574E+01 -1.975851214E+02 -1.570693888E+01  2.492196715E+02  1.250000000E+02  0.00000E+00  9.000E+00
      21     1     1     2   512   502 -1.866101041E+01 -1.493323673E+01  4.137072625E+01  4.777836183E+01  4.768371582E-07  0.00000E+00  9.000E+00
#rwgt            1           1   2.7199332556612169E-002          10      304351           0
</event>
<event>
      5   9999  3.19816E-02  1.56213E+02 -1.00000E+00  1.15699E-01
       1    -1     0     0   502     0  0.000000000E+00  0.000000000E+00  2.375284670E+02  2.375284670E+02  0.000000000E+00  0.00000E+00  9.000E+00
      21    -1     0     0   501   502  0.000000000E+00  0.000000000E+00 -1.583082292E+03  1.583082292E+03  0.000000000E+00  0.00000E+00  9.000E+00
      25     1     1     2     0     0 -2.531386281E+02 -1.455272550E+02 -1.103941519E+03  1.148725043E+03  1.250000000E+02  0.00000E+00  9.000E+00
      25     1     1     2     0     0  4.019149301E+02  1.931525305E+02 -1.336908888E+02  4.820184279E+02  1.250000000E+02  0.00000E+00  9.000E+00
       1     1     1     2   501     0 -1.487763020E+02 -4.762527551E+01 -1.079214179E+02  1.898672887E+02  3.303624740E-06  0.00000E+00  9.000E+00
#rwgt            2          17   5.7885745044426489E-005          10      304449           0
</event>
<event>
      5   9999  3.19816E-02  5.91183E+01 -1.00000E+00  1.35048E-01
      21    -1     0     0   511   501  0.000000000E+00  0.000000000E+00  1.418481466E+03  1.418481466E+03  0.000000000E+00  0.00000E+00  9.000E+00
      21    -1     0     0   501   502  0.000000000E+00  0.000000000E+00 -1.785501691E+02  1.785501691E+02  0.000000000E+00  0.00000E+00  9.000E+00
      25     1     1     2     0     0 -1.521665425E+02  1.089147897E+00 -4.461078922E+01  2.019182146E+02  1.250000000E+02  0.00000E+00  9.000E+00
      25     1     1     2     0     0  1.428835092E+02 -5.947407760E+01  1.269139433E+02  2.359767195E+02  1.250000000E+02  0.00000E+00  9.000E+00
      21     1     1     2   511   502  9.283033224E+00  5.838492970E+01  1.157628143E+03  1.159136701E+03  0.000000000E+00  0.00000E+00  9.000E+00
#rwgt            1           1   2.7604285048976669E-002          10      304498           0
</event>
<event>
      5   9999  3.19816E-02  9.46581E+01 -1.00000E+00  1.24910E-01
      21    -1     0     0   502   501  0.000000000E+00  0.000000000E+00  9.406751700E+01  9.406751700E+01  0.000000000E+00  0.00000E+00  9.000E+00
      21    -1     0     0   501   512  0.000000000E+00  0.000000000E+00 -2.223678298E+03  2.223678298E+03  0.000000000E+00  0.00000E+00  9.000E+00
      25     1     1     2     0     0  1.784409056E+02  2.571706450E+02 -4.707747046E+02  5.789919861E+02  1.250000000E+02  0.00000E+00  9.000E+00
      25     1     1     2     0     0 -2.311824137E+02 -3.357739677E+02 -1.350461442E+03  1.416178157E+03  1.250000000E+02  0.00000E+00  9.000E+00
      21     1     1     2   502   512  5.274150815E+01  7.860332274E+01 -3.083746344E+02  3.225756720E+02  0.000000000E+00  0.00000E+00  9.000E+00
#rwgt            1           1   2.9755231970387614E-002          10      304606           0
</event>
<event>
      5   9999  3.19816E-02  4.28517E+01 -1.00000E+00  1.43009E-01
      21    -1     0     0   502   511  0.000000000E+00  0.000000000E+00  5.009042322E+02  5.009042322E+02  0.000000000E+00  0.00000E+00  9.000E+00
      21    -1     0     0   501   502  0.000000000E+00  0.000000000E+00 -1.529206229E+03  1.529206229E+03  0.000000000E+00  0.00000E+00  9.000E+00
      25     1     1     2     0     0 -1.357652919E+02 -6.833427952E+02  5.164417402E+01  7.097053691E+02  1.250000000E+02  0.00000E+00  9.000E+00
      25     1     1     2     0     0  9.441380847E+01  6.721035227E+02 -1.074745177E+03  1.277238939E+03  1.250000000E+02  0.00000E+00  9.000E+00
      21     1     1     2   501   511  4.135148344E+01  1.123927251E+01 -5.200993859E+00  4.316615302E+01  6.556510925E-07  0.00000E+00  9.000E+00
#rwgt            2          11   2.0625669507028016E-002          10      304702           0
</event>
<event>
      5   9999  3.19816E-02  3.24087E+01 -1.00000E+00  1.50746E-01
      21    -1     0     0   502   501  0.000000000E+00  0.000000000E+00  2.317038954E+02  2.317038954E+02  0.000000000E+00  0.00000E+00  9.000E+00
      21    -1     0     0   501   512  0.000000000E+00  0.000000000E+00 -7.526425478E+02  7.526425478E+02  0.000000000E+00  0.00000E+00  9.000E+00
      25     1     1     2     0     0 -1.385278250E+02 -9.465001827E+01  1.181468038E+02  2.402753660E+02  1.250000000E+02  0.00000E+00  9.000E+00
      25     1     1     2     0     0  1.189744363E+02  6.880456575E+01 -1.139609074E+02  2.179474092E+02  1.250000000E+02  0.00000E+00  9.000E+00
      21     1     1     2   502   512  1.955338871E+01  2.584545252E+01 -5.251245487E+02  5.261236680E+02  0.000000000E+00  0.00000E+00  9.000E+00
#rwgt            1           1   3.0478515064790313E-002          10      304737           0
</event>
<event>
      5   9999  3.19816E-02  1.68017E+02 -1.00000E+00  1.14474E-01
      21    -1     0     0   502   511  0.000000000E+00  0.000000000E+00  9.038323814E+02  9.038323814E+02  0.000000000E+00  0.00000E+00  9.000E+00
      21    -1     0     0   501   502  0.000000000E+00  0.000000000E+00 -1.042736251E+03  1.042736251E+03  0.000000000E+00  0.00000E+00  9.000E+00
      25     1     1     2     0     0 -3.219471559E+02 -8.272937380E+01 -8.149618468E+02  8.889780268E+02  1.250000000E+02  0.00000E+00  9.000E+00
      25     1     1     2     0     0  1.657629945E+02  2.079183518E+01 -1.222280229E+02  2.418147231E+02  1.250000000E+02  0.00000E+00  9.000E+00
      21     1     1     2   501   511  1.561841614E+02  6.193753862E+01  7.982860006E+02  8.157758820E+02  0.000000000E+00  0.00000E+00  9.000E+00
#rwgt            2          11   1.2399659705434893E-002          10      304830           0
</event>
<event>
      5   9999  3.19816E-02  2.30908E+02 -1.00000E+00  1.09422E-01
      21    -1     0     0   502   501  0.000000000E+00  0.000000000E+00  2.899456446E+02  2.899456446E+02  0.000000000E+00  0.00000E+00  9.000E+00
       1    -1     0     0   501     0  0.000000000E+00  0.000000000E+00 -7.515278473E+02  7.515278473E+02  0.000000000E+00  0.00000E+00  9.000E+00
      25     1     1     2     0     0  1.514861772E+02  2.267445680E+02 -2.626046589E+02  3.986820386E+02  1.250000000E+02  0.00000E+00  9.000E+00
      25     1     1     2     0     0 -2.162374282E+02 -5.101149238E+00  9.648374330E+01  2.678035844E+02  1.250000000E+02  0.00000E+00  9.000E+00
       1     1     1     2   502     0  6.475125109E+01 -2.216434188E+02 -2.954612872E+02  3.749878689E+02  5.394796609E-06  0.00000E+00  9.000E+00
#rwgt            1           1   2.7152333226817649E-002          10      304850           0
</event>
<event>
      5   9999  3.19816E-02  2.67925E+01 -1.00000E+00  1.56531E-01
      21    -1     0     0   511   501  0.000000000E+00  0.000000000E+00  3.905186141E+02  3.905186141E+02  0.000000000E+00  0.00000E+00  9.000E+00
      21    -1     0     0   501   502  0.000000000E+00  0.000000000E+00 -1.098535859E+03  1.098535859E+03  0.000000000E+00  0.00000E+00  9.000E+00
      25     1     1     2     0     0 -5.479433019E+01 -5.056439317E+02 -8.302118826E+01  5.302789096E+02  1.250000000E+02  0.00000E+00  9.000E+00
      25     1     1     2     0     0  3.834288101E+01  5.267907939E+02 -6.961530545E+02  8.827416340E+02  1.250000000E+02  0.00000E+00  9.000E+00
      21     1     1     2   511   502  1.645144917E+01 -2.114686220E+01  7.115699826E+01  7.603392902E+01  9.536743164E-07  0.00000E+00  9.000E+00
#rwgt            1           1   2.7485982941672676E-002          10      304887           0
</event>
<event>
      5   9999  3.19816E-02  1.70592E+02 -1.00000E+00  1.14222E-01
      21    -1     0     0   502   501  0.000000000E+00  0.000000000E+00  6.955189907E+02  6.955189907E+02  0.000000000E+00  0.00000E+00  9.000E+00
      21    -1     0     0   512   502  0.000000000E+00  0.000000000E+00 -4.465886185E+02  4.465886185E+02  0.000000000E+00  0.00000E+00  9.000E+00
      25     1     1     2     0     0  2.637983182E+02  3.725520502E+02  1.797213647E+01  4.736376046E+02  1.250000000E+02  0.00000E+00  9.000E+00
      25     1     1     2     0     0 -2.682759419E+02 -2.020191047E+02  3.160772844E+02  4.778216712E+02  1.250000000E+02  0.00000E+00  9.000E+00
      21     1     1     2   512   501  4.477623752E+00 -1.705329454E+02 -8.511904868E+01  1.906483334E+02  3.814697266E-06  0.00000E+00  9.000E+00
#rwgt            1           1   2.7787678157941014E-002          10      305076           0
</event>
<event>
      5   9999  3.19816E-02  7.29969E+01 -1.00000E+00  1.30305E-01
      21    -1     0     0   502   511  0.000000000E+00  0.000000000E+00  5.883747347E+02  5.883747347E+02  0.000000000E+00  0.00000E+00  9.000E+00
      21    -1     0     0   501   502  0.000000000E+00  0.000000000E+00 -2.589853947E+02  2.589853947E+02  0.000000000E+00  0.00000E+00  9.000E+00
      25     1     1     2     0     0 -1.364225702E+02 -2.586670288E+02 -7.232359611E+01  3.261524981E+02  1.250000000E+02  0.00000E+00  9.000E+00
      25     1     1     2     0     0  1.271708433E+02  1.862587463E+02  3.309198153E+02  4.195207600E+02  1.250000000E+02  0.00000E+00  9.000E+00
      21     1     1     2   501   511  9.251726927E+00  7.240828247E+01  7.079312085E+01  1.016868712E+02  1.651812370E-06  0.00000E+00  9.000E+00
#rwgt            1           1   3.0397734621978624E-002          10      305127           0
</event>
<event>
      5   9999  3.19816E-02  7.18227E+01 -1.00000E+00  1.30658E-01
      21    -1     0     0   502   501  0.000000000E+00  0.000000000E+00  2.635104034E+02  2.635104034E+02  0.000000000E+00  0.00000E+00  9.000E+00
      -1    -1     0     0     0   502  0.000000000E+00  0.000000000E+00 -1.114672500E+03  1.114672500E+03  0.000000000E+00  0.00000E+00  9.000E+00
      25     1     1     2     0     0 -1.842140535E+02  3.357318525E+02 -2.147854402E+02  4.565177758E+02  1.250000000E+02  0.00000E+00  9.000E+00
      25     1     1     2     0     0  2.192129882E+02 -2.730136620E+02 -1.061987968E+02  3.866445115E+02  1.250000000E+02  0.00000E+00  9.000E+00
      -1     1     1     2     0   501 -3.499893475E+01 -6.271819044E+01 -5.301778600E+02  5.350206165E+02  7.629394531E-06  0.00000E+00  9.000E+00
#rwgt            1           1   2.7775896739614919E-002          10      305192           0
</event>
<event>
      5   9999  3.19816E-02  5.63536E+01 -1.00000E+00  1.36175E-01
      21    -1     0     0   502   501  0.000000000E+00  0.000000000E+00  8.902407581E+01  8.902407581E+01  0.000000000E+00  0.00000E+00  9.000E+00
      21    -1     0     0   501   511  0.000000000E+00  0.000000000E+00 -3.193199692E+03  3.193199692E+03  0.000000000E+00  0.00000E+00  9.000E+00
      25     1     1     2     0     0 -1.459864797E+02 -2.185711608E+02 -2.466704788E+03  2.483816200E+03  1.250000000E+02  0.00000E+00  9.000E+00
      25     1     1     2     0     0  1.595320543E+02  2.732726118E+02 -2.919373260E+02  4.483088210E+02  1.250000000E+02  0.00000E+00  9.000E+00
      21     1     1     2   502   511 -1.354557453E+01 -5.470145100E+01 -3.455335022E+02  3.500987468E+02  5.394796609E-06  0.00000E+00  9.000E+00
#rwgt            1           1   6.1093618146548699E-002          10      305284           0
</event>
<event>
      5   9999  3.19816E-02  2.52464E+01 -1.00000E+00  1.58433E-01
      21    -1     0     0   502   501  0.000000000E+00  0.000000000E+00  5.831812691E+02  5.831812691E+02  0.000000000E+00  0.00000E+00  9.000E+00
      21    -1     0     0   512   502  0.000000000E+00  0.000000000E+00 -1.440008990E+02  1.440008990E+02  0.000000000E+00  0.00000E+00  9.000E+00
      25     1     1     2     0     0 -1.577736542E+00  1.046021062E+02  4.782521754E+02  5.052664972E+02  1.250000000E+02  0.00000E+00  9.000E+00
      25     1     1     2     0     0 -1.450443020E+01 -8.514077623E+01  2.414704819E+01  1.538421601E+02  1.250000000E+02  0.00000E+00  9.000E+00
      21     1     1     2   512   501  1.608216674E+01 -1.946132997E+01 -6.321885345E+01  6.807351088E+01  9.536743164E-07  0.00000E+00  9.000E+00
#rwgt            1           1   2.5286178904139357E-002          10      305371           0
</event>
<event>
      5   9999  3.19816E-02  1.22059E+01 -1.00000E+00  1.86255E-01
      21    -1     0     0   502   501  0.000000000E+00  0.000000000E+00  7.083047819E+02  7.083047819E+02  0.000000000E+00  0.00000E+00  9.000E+00
      21    -1     0     0   501   511  0.000000000E+00  0.000000000E+00 -2.240574051E+02  2.240574051E+02  0.000000000E+00  0.00000E+00  9.000E+00
      25     1     1     2     0     0  1.843768797E+01 -2.281848781E+01  5.052362500E+02  5.212957894E+02  1.250000000E+02  0.00000E+00  9.000E+00
      25     1     1     2     0     0 -2.531184774E+01  1.273237123E+01  1.737699610E+02  2.159254553E+02  1.250000000E+02  0.00000E+00  9.000E+00
      21     1     1     2   502   511  6.874159766E+00  1.008611658E+01 -1.947588343E+02  1.951409422E+02  4.672030912E-06  0.00000E+00  9.000E+00
#rwgt            1           1   3.0507891695192225E-002          10      305503           0
</event>
<event>
      5   9999  3.19816E-02  1.22846E+02 -1.00000E+00  1.19938E-01
      21    -1     0     0   512   501  0.000000000E+00  0.000000000E+00  8.756396530E+02  8.756396530E+02  0.000000000E+00  0.00000E+00  9.000E+00
      21    -1     0     0   501   502  0.000000000E+00  0.000000000E+00 -2.110267248E+02  2.110267248E+02  0.000000000E+00  0.00000E+00  9.000E+00
      25     1     1     2     0     0  1.372725217E+02 -1.386937613E+02 -9.017899317E+01  2.486703751E+02  1.250000000E+02  0.00000E+00  9.000E+00
      25     1     1     2     0     0 -1.452698220E+01  1.436492465E+02  2.296692322E+02  2.986956569E+02  1.250000000E+02  0.00000E+00  9.000E+00
      21     1     1     2   512   502 -1.227455395E+02 -4.955485192E+00  5.251226892E+02  5.393003458E+02  7.629394531E-06  0.00000E+00  9.000E+00
#rwgt            1           1   2.6886028989807995E-002          10      305622           0
</event>
<event>
      5   9999  3.19816E-02  2.10299E+02 -1.00000E+00  1.10860E-01
      21    -1     0     0   502   501  0.000000000E+00  0.000000000E+00  2.511900740E+02  2.511900740E+02  0.000000000E+00  0.00000E+00  9.000E+00
      21    -1     0     0   511   502  0.000000000E+00  0.000000000E+00 -3.874108903E+03  3.874108903E+03  0.000000000E+00  0.00000E+00  9.000E+00
      25     1     1     2     0     0 -3.799937820E+02  5.769730091E+02 -1.634944949E+03  1.779315350E+03  1.250000000E+02  0.00000E+00  9.000E+00
      25     1     1     2     0     0  1.781971080E+02 -5.177812619E+02 -2.845714527E+02  6.296487562E+02  1.250000000E+02  0.00000E+00  9.000E+00
      21     1     1     2   511   501  2.017966740E+02 -5.919174718E+01 -1.703402428E+03  1.716334872E+03  2.157918644E-05  0.00000E+00  9.000E+00
#rwgt            1           1   3.3123801550814250E-002          10      305691           0
</event>
<event>
      5   9999  3.19816E-02  3.58169E+01 -1.00000E+00  1.47879E-01
      21    -1     0     0   502   512  0.000000000E+00  0.000000000E+00  1.824210806E+03  1.824210806E+03  0.000000000E+00  0.00000E+00  9.000E+00
      21    -1     0     0   501   502  0.000000000E+00  0.000000000E+00 -1.822013152E+02  1.822013152E+02  0.000000000E+00  0.00000E+00  9.000E+00
      25     1     1     2     0     0 -1.729268769E+02 -1.168643277E+02  1.192310983E+03  1.216877749E+03  1.250000000E+02  0.00000E+00  9.000E+00
      25     1     1     2     0     0  1.694425431E+02  1.525113888E+02 -6.948533971E+01  2.691165390E+02  1.250000000E+02  0.00000E+00  9.000E+00
      21     1     1     2   501   512  3.484333729E+00 -3.564706110E+01  5.191838471E+02  5.204178327E+02  7.629394531E-06  0.00000E+00  9.000E+00
#rwgt            1           1   2.8709769772198312E-002          10      305815           0
</event>
<event>
      5   9999  3.19816E-02  1.44281E+02 -1.00000E+00  1.17067E-01
      21    -1     0     0   502   511  0.000000000E+00  0.000000000E+00  5.831063293E+02  5.831063293E+02  0.000000000E+00  0.00000E+00  9.000E+00
      21    -1     0     0   501   502  0.000000000E+00  0.000000000E+00 -4.074690780E+02  4.074690780E+02  0.000000000E+00  0.00000E+00  9.000E+00
      25     1     1     2     0     0  1.549158767E+02  1.809456067E+02  2.741467685E+02  3.840855271E+02  1.250000000E+02  0.00000E+00  9.000E+00
      25     1     1     2     0     0 -2.966579516E+02 -2.078913897E+02 -1.978954753E+02  4.312915363E+02  1.250000000E+02  0.00000E+00  9.000E+00
      21     1     1     2   501   511  1.417420749E+02  2.694578294E+01  9.938595803E+01  1.751983438E+02  2.336015456E-06  0.00000E+00  9.000E+00
#rwgt            1           1   3.0248484693616778E-002          10      305944           0
</event>
<event>
      5   9999  3.19816E-02  5.06909E+01 -1.00000E+00  1.38736E-01
       1    -1     0     0   502     0  0.000000000E+00  0.000000000E+00  1.836194889E+03  1.836194889E+03  0.000000000E+00  0.00000E+00  9.000E+00
      21    -1     0     0   501   502  0.000000000E+00  0.000000000E+00 -3.018654154E+02  3.018654154E+02  0.000000000E+00  0.00000E+00  9.000E+00
      25     1     1     2     0     0  3.042156391E+02  2.213637468E+02 -1.144877509E+02  4.126518006E+02  1.250000000E+02  0.00000E+00  9.000E+00
      25     1     1     2     0     0 -3.389128141E+02 -2.583188170E+02  1.319848717E+03  1.392557411E+03  1.250000000E+02  0.00000E+00  9.000E+00
       1     1     1     2   501     0  3.469717500E+01  3.695507015E+01  3.289685071E+02  3.328510926E+02  3.814697266E-06  0.00000E+00  9.000E+00
#rwgt            1           1   2.5151004079821588E-002          10      305997           0
</event>
<event>
      5   9999  3.19816E-02  4.50037E+01 -1.00000E+00  1.41735E-01
      21    -1     0     0   502   501  0.000000000E+00  0.000000000E+00  3.328008988E+02  3.328008988E+02  0.000000000E+00  0.00000E+00  9.000E+00
      21    -1     0     0   511   502  0.000000000E+00  0.000000000E+00 -3.751898208E+02  3.751898208E+02  0.000000000E+00  0.00000E+00  9.000E+00
      25     1     1     2     0     0  1.340886324E+01 -1.167084473E+02 -1.353841205E+02  2.185280746E+02  1.250000000E+02  0.00000E+00  9.000E+00
      25     1     1     2     0     0  1.420327387E+01  8.117116225E+01  2.689660307E+02  3.078282252E+02  1.250000000E+02  0.00000E+00  9.000E+00
      21     1     1     2   511   501 -2.761213711E+01  3.553728502E+01 -1.759708321E+02  1.816344199E+02  2.697398305E-06  0.00000E+00  9.000E+00
#rwgt            1           1   2.7593804717563234E-002          10      306157           0
</event>
<event>
      5   9999  3.19816E-02  3.50132E+01 -1.00000E+00  1.48520E-01
      21    -1     0     0   502   501  0.000000000E+00  0.000000000E+00  1.289846974E+02  1.289846974E+02  0.000000000E+00  0.00000E+00  9.000E+00
      21    -1     0     0   501   512  0.000000000E+00  0.000000000E+00 -7.244253224E+02  7.244253224E+02  0.000000000E+00  0.00000E+00  9.000E+00
      25     1     1     2     0     0  1.072082494E+02  1.308544204E+02 -7.285491365E+01  2.225967801E+02  1.250000000E+02  0.00000E+00  9.000E+00
      25     1     1     2     0     0 -1.229055097E+02 -1.621517439E+02 -2.152548279E+02  3.214943130E+02  1.250000000E+02  0.00000E+00  9.000E+00
      21     1     1     2   502   512  1.569726028E+01  3.129732347E+01 -3.073308835E+02  3.093189267E+02  3.814697266E-06  0.00000E+00  9.000E+00
#rwgt            1           1   2.7308232625712369E-002          10      306227           0
</event>
<event>
      5   9999  3.19816E-02  2.90632E+01 -1.00000E+00  1.54003E-01
      21    -1     0     0   502   501  0.000000000E+00  0.000000000E+00  8.253511476E+01  8.253511476E+01  0.000000000E+00  0.00000E+00  9.000E+00
      -3    -1     0     0     0   502  0.000000000E+00  0.000000000E+00 -5.400059136E+02  5.400059136E+02  0.000000000E+00  0.00000E+00  9.000E+00
      25     1     1     2     0     0 -2.943823927E+01  5.519684020E+01 -8.089550935E+00  1.400133634E+02  1.250000000E+02  0.00000E+00  9.000E+00
      25     1     1     2     0     0  4.207353060E+01 -2.902402662E+01 -2.823184863E+02  3.129557538E+02  1.250000000E+02  0.00000E+00  9.000E+00
      -3     1     1     2     0   501 -1.263529133E+01 -2.617281358E+01 -1.670627616E+02  1.695719112E+02  2.697398305E-06  0.00000E+00  9.000E+00
#rwgt            1           1   2.4429653987196865E-002          10      306372           0
</event>
<event>
      5   9999  3.19816E-02  4.45073E+01 -1.00000E+00  1.42022E-01
       3    -1     0     0   502     0  0.000000000E+00  0.000000000E+00  1.085004938E+02  1.085004938E+02  0.000000000E+00  0.00000E+00  9.000E+00
      21    -1     0     0   501   502  0.000000000E+00  0.000000000E+00 -1.459239166E+03  1.459239166E+03  0.000000000E+00  0.00000E+00  9.000E+00
      25     1     1     2     0     0  1.089292240E+02 -3.160354077E+02 -6.100573029E+02  7.067806361E+02  1.250000000E+02  0.00000E+00  9.000E+00
      25     1     1     2     0     0 -1.485549168E+02  3.363011942E+02 -7.008149975E+02  8.012076617E+02  1.250000000E+02  0.00000E+00  9.000E+00
       3     1     1     2   501     0  3.962569280E+01 -2.026578644E+01 -3.986637138E+01  5.975136147E+01  9.536743164E-07  0.00000E+00  9.000E+00
#rwgt            1           1   3.7807336245005672E-002          10      306503           0
</event>
<event>
      5   9999  3.19816E-02  3.46294E+01 -1.00000E+00  1.48833E-01
      21    -1     0     0   502   501  0.000000000E+00  0.000000000E+00  1.004083839E+03  1.004083839E+03  0.000000000E+00  0.00000E+00  9.000E+00
      21    -1     0     0   501   511  0.000000000E+00  0.000000000E+00 -6.552771620E+01  6.552771620E+01  0.000000000E+00  0.00000E+00  9.000E+00
      25     1     1     2     0     0  2.878534050E+01  2.085916824E+02  4.154577618E+02  4.822543288E+02  1.250000000E+02  0.00000E+00  9.000E+00
      25     1     1     2     0     0 -9.224191472E+00 -1.800161930E+02  4.992417821E+02  5.453056689E+02  1.250000000E+02  0.00000E+00  9.000E+00
      21     1     1     2   502   511 -1.956114903E+01 -2.857548937E+01  2.385657907E+01  4.205155774E+01  1.011524364E-06  0.00000E+00  9.000E+00
#rwgt            1           1   2.7925162909245051E-002          10      306585           0
</event>
<event>
      5   9999  3.19816E-02  3.03928E+01 -1.00000E+00  1.52648E-01
      21    -1     0     0   502   512  0.000000000E+00  0.000000000E+00  3.802271288E+02  3.802271288E+02  0.000000000E+00  0.00000E+00  9.000E+00
      21    -1     0     0   501   502  0.000000000E+00  0.000000000E+00 -5.090535902E+02  5.090535902E+02  0.000000000E+00  0.00000E+00  9.000E+00
      25     1     1     2     0     0 -5.710588679E+01  1.933565140E+02 -1.588471959E+02  2.854912528E+02  1.250000000E+02  0.00000E+00  9.000E+00
      25     1     1     2     0     0  8.436111732E+01 -1.799074409E+02 -2.378575123E+02  3.341925815E+02  1.250000000E+02  0.00000E+00  9.000E+00
      21     1     1     2   501   512 -2.725523053E+01 -1.344907311E+01  2.678782467E+02  2.695968847E+02  3.814697266E-06  0.00000E+00  9.000E+00
#rwgt            1           1   2.7599765492326820E-002          10      306697           0
</event>
<event>
      5   9999  3.19816E-02  1.40326E+02 -1.00000E+00  1.17553E-01
      21    -1     0     0   502   501  0.000000000E+00  0.000000000E+00  3.482328105E+02  3.482328105E+02  0.000000000E+00  0.00000E+00  9.000E+00
      21    -1     0     0   501   511  0.000000000E+00  0.000000000E+00 -6.712466851E+02  6.712466851E+02  0.000000000E+00  0.00000E+00  9.000E+00
      25     1     1     2     0     0 -9.485831663E+01  2.020973081E+02 -4.956489658E+02  5.577941551E+02  1.250000000E+02  0.00000E+00  9.000E+00
      25     1     1     2     0     0  1.542949696E+02 -7.498009094E+01  2.273824162E+02  3.110574141E+02  1.250000000E+02  0.00000E+00  9.000E+00
      21     1     1     2   502   511 -5.943665295E+01 -1.271172172E+02 -5.474732501E+01  1.506279264E+02  1.348699152E-06  0.00000E+00  9.000E+00
#rwgt            1           1   2.8649741755213672E-002          10      306818           0
</event>
<event>
      5   9999  3.19816E-02  6.96175E+01 -1.00000E+00  1.31341E-01
      21    -1     0     0   502   512  0.000000000E+00  0.000000000E+00  5.804287761E+02  5.804287761E+02  0.000000000E+00  0.00000E+00  9.000E+00
      21    -1     0     0   501   502  0.000000000E+00  0.000000000E+00 -4.806863969E+02  4.806863969E+02  0.000000000E+00  0.00000E+00  9.000E+00
      25     1     1     2     0     0  1.126849608E+02 -4.597337061E+02 -1.349420917E+01  4.897551169E+02  1.250000000E+02  0.00000E+00  9.000E+00
      25     1     1     2     0     0 -4.408390761E+01  4.715863680E+02  9.069682927E+01  4.981847130E+02  1.250000000E+02  0.00000E+00  9.000E+00
      21     1     1     2   501   512 -6.860105317E+01 -1.185266197E+01  2.253975918E+01  7.317534309E+01  4.768371582E-07  0.00000E+00  9.000E+00
#rwgt            1           1   3.0454009092892517E-002          10      306876           0
</event>
<event>
      5   9999  3.19816E-02  6.14876E+01 -1.00000E+00  1.34137E-01
      21    -1     0     0   502   501  0.000000000E+00  0.000000000E+00  8.783864465E+01  8.783864465E+01  0.000000000E+00  0.00000E+00  9.000E+00
      21    -1     0     0   511   502  0.000000000E+00  0.000000000E+00 -1.462891258E+03  1.462891258E+03  0.000000000E+00  0.00000E+00  9.000E+00
      25     1     1     2     0     0  9.161207012E+01  2.023301037E+02 -2.195293254E+02  3.363753364E+02  1.250000000E+02  0.00000E+00  9.000E+00
      25     1     1     2     0     0 -9.504963852E+01 -2.637215595E+02 -1.026912774E+03  1.071801446E+03  1.250000000E+02  0.00000E+00  9.000E+00
      21     1     1     2   511   501  3.437568401E+00  6.139145580E+01 -1.286105143E+02  1.425531203E+02  0.000000000E+00  0.00000E+00  9.000E+00
#rwgt            1           1   3.0407683039293566E-002          10      306977           0
</event>
<event>
      5   9999  3.19816E-02  8.12794E+01 -1.00000E+00  1.28017E-01
      21    -1     0     0   502   501  0.000000000E+00  0.000000000E+00  1.747144662E+02  1.747144662E+02  0.000000000E+00  0.00000E+00  9.000E+00
      21    -1     0     0   501   512  0.000000000E+00  0.000000000E+00 -4.405589124E+02  4.405589124E+02  0.000000000E+00  0.00000E+00  9.000E+00
      25     1     1     2     0     0  8.524048878E+01  4.810632641E+01 -6.789850087E+01  1.726712657E+02  1.250000000E+02  0.00000E+00  9.000E+00
      25     1     1     2     0     0 -1.340711744E+02 -1.130824892E+02  1.377248743E+01  2.158180033E+02  1.250000000E+02  0.00000E+00  9.000E+00
      21     1     1     2   502   512  4.883068561E+01  6.497616274E+01 -2.117184328E+02  2.267841096E+02  0.000000000E+00  0.00000E+00  9.000E+00
#rwgt            1           1   2.7140077527665077E-002          10      307065           0
</event>
<event>
      5   9999  3.19816E-02  4.63026E+01 -1.00000E+00  1.41006E-01
       1    -1     0     0   502     0  0.000000000E+00  0.000000000E+00  9.421650889E+02  9.421650889E+02  0.000000000E+00  0.00000E+00  9.000E+00
      21    -1     0     0   501   502  0.000000000E+00  0.000000000E+00 -1.289509107E+02  1.289509107E+02  0.000000000E+00  0.00000E+00  9.000E+00
      25     1     1     2     0     0  9.553876981E+01 -7.706037887E+01  5.347058840E+02  5.626733874E+02  1.250000000E+02  0.00000E+00  9.000E+00
      25     1     1     2     0     0 -1.121702286E+02  1.202729209E+02  3.598028743E+02  4.148865436E+02  1.250000000E+02  0.00000E+00  9.000E+00
       1     1     1     2   501     0  1.663145882E+01 -4.321254207E+01 -8.129458015E+01  9.355606863E+01  9.536743164E-07  0.00000E+00  9.000E+00
#rwgt            1           1   2.5351167009165728E-002          10      307128           0
</event>
<event>
      5   9999  3.19816E-02  4.58399E+02 -1.00000E+00  9.99357E-02
      21    -1     0     0   502   501  0.000000000E+00  0.000000000E+00  5.734520247E+02  5.734520247E+02  0.000000000E+00  0.00000E+00  9.000E+00
      21    -1     0     0   501   511  0.000000000E+00  0.000000000E+00 -1.075649486E+03  1.075649486E+03  0.000000000E+00  0.00000E+00  9.000E+00
      25     1     1     2     0     0  1.317731426E+02  1.291794183E+02 -1.781921757E+02  2.853575559E+02  1.250000000E+02  0.00000E+00  9.000E+00
      25     1     1     2     0     0 -5.826594651E+02 -2.118309659E+02  2.039833386E+02  6.645288653E+02  1.250000000E+02  0.00000E+00  9.000E+00
      21     1     1     2   502   511  4.508863225E+02  8.265154755E+01 -5.279886245E+02  6.992150898E+02  1.525878906E-05  0.00000E+00  9.000E+00
#rwgt            2          11   2.0431147986974866E-003          10      307206           0
</event>
<event>
      5   9999  3.19816E-02  6.16009E+02 -1.00000E+00  9.63441E-02
      21    -1     0     0   502   512  0.000000000E+00  0.000000000E+00  6.810671584E+02  6.810671584E+02  0.000000000E+00  0.00000E+00  9.000E+00
      21    -1     0     0   501   502  0.000000000E+00  0.000000000E+00 -1.651567302E+03  1.651567302E+03  0.000000000E+00  0.00000E+00  9.000E+00
      25     1     1     2     0     0 -1.453307066E+02  5.017991176E+02 -1.312754355E+03  1.418404866E+03  1.250000000E+02  0.00000E+00  9.000E+00
      25     1     1     2     0     0 -1.300971401E+02  4.920636367E+01  2.154765602E+02  2.853097967E+02  1.250000000E+02  0.00000E+00  9.000E+00
      21     1     1     2   501   512  2.754278466E+02 -5.510054812E+02  1.267776508E+02  6.289197976E+02  9.344061824E-06  0.00000E+00  9.000E+00
#rwgt            2          11   2.1020362234382148E-003          10      307286           0
</event>
<event>
      5   9999  3.19816E-02  1.13847E+02 -1.00000E+00  1.21347E-01
      21    -1     0     0   511   501  0.000000000E+00  0.000000000E+00  9.601996535E+02  9.601996535E+02  0.000000000E+00  0.00000E+00  9.000E+00
      21    -1     0     0   501   502  0.000000000E+00  0.000000000E+00 -7.464051334E+02  7.464051334E+02  0.000000000E+00  0.00000E+00  9.000E+00
      25     1     1     2     0     0  3.858207976E+02 -5.052314666E+01 -5.783063367E+02  7.081479332E+02  1.250000000E+02  0.00000E+00  9.000E+00
      25     1     1     2     0     0 -2.748844095E+02  7.610377576E+01  1.487593960E+02  3.451196621E+02  1.250000000E+02  0.00000E+00  9.000E+00
      21     1     1     2   511   502 -1.109363881E+02 -2.558062910E+01  6.433414608E+02  6.533371916E+02  7.629394531E-06  0.00000E+00  9.000E+00
#rwgt            1           1   3.4433318700648037E-002          10      307321           0
</event>
<event>
      5   9999  3.19816E-02  1.41136E+02 -1.00000E+00  1.17452E-01
      21    -1     0     0   502   512  0.000000000E+00  0.000000000E+00  3.792734893E+02  3.792734893E+02  0.000000000E+00  0.00000E+00  9.000E+00
      21    -1     0     0   501   502  0.000000000E+00  0.000000000E+00 -2.166289170E+02  2.166289170E+02  0.000000000E+00  0.00000E+00  9.000E+00
      25     1     1     2     0     0  1.612162977E+01  1.498082630E+01  3.286670404E+01  1.311089331E+02  1.250000000E+02  0.00000E+00  9.000E+00
      25     1     1     2     0     0 -1.567236300E+02 -2.714718880E+00 -7.672678270E+01  2.146664041E+02  1.250000000E+02  0.00000E+00  9.000E+00
      21     1     1     2   501   512  1.406020002E+02 -1.226610742E+01  2.065046509E+02  2.501270691E+02  2.697398305E-06  0.00000E+00  9.000E+00
#rwgt            1           1   6.5354389638985017E-002          10      307359           0
</event>
<event>
      5   9999  3.19816E-02  1.09320E+01 -1.00000E+00  1.91387E-01
      21    -1     0     0   511   501  0.000000000E+00  0.000000000E+00  9.632674154E+02  9.632674154E+02  0.000000000E+00  0.00000E+00  9.000E+00
      21    -1     0     0   501   502  0.000000000E+00  0.000000000E+00 -5.508358795E+01  5.508358795E+01  0.000000000E+00  0.00000E+00  9.000E+00
      25     1     1     2     0     0  1.135490279E+02  1.533448035E+02  4.428947663E+02  4.981854921E+02  1.250000000E+02  0.00000E+00  9.000E+00
      25     1     1     2     0     0 -1.031205563E+02 -1.500653199E+02  4.329548991E+02  4.860333260E+02  1.250000000E+02  0.00000E+00  9.000E+00
      21     1     1     2   511   502 -1.042847166E+01 -3.279483601E+00  3.233416206E+01  3.413218525E+01  4.768371582E-07  0.00000E+00  9.000E+00
#rwgt            1           1   2.8130667578730555E-002          10      307391           0
</event>
<event>
      5   9999  3.19816E-02  9.31183E+00 -1.00000E+00  1.99406E-01
      21    -1     0     0   512   501  0.000000000E+00  0.000000000E+00  3.249558768E+02  3.249558768E+02  0.000000000E+00  0.00000E+00  9.000E+00
      21    -1     0     0   501   502  0.000000000E+00  0.000000000E+00 -2.088034381E+02  2.088034381E+02  0.000000000E+00  0.00000E+00  9.000E+00
      25     1     1     2     0     0  1.646510373E+02  1.151139109E+02  1.567644822E+02  2.838331894E+02  1.250000000E+02  0.00000E+00  9.000E+00
      25     1     1     2     0     0 -1.574853767E+02 -1.091671960E+02 -5.258956927E+01  2.347547302E+02  1.250000000E+02  0.00000E+00  9.000E+00
      21     1     1     2   512   502 -7.165660564E+00 -5.946714902E+00  1.197752585E+01  1.517139529E+01  1.685873940E-07  0.00000E+00  9.000E+00
#rwgt            1           1   2.7324771544151829E-002          10      307557           0
</event>
<event>
      5   9999  3.19816E-02  1.11573E+02 -1.00000E+00  1.21726E-01
      21    -1     0     0   511   501  0.000000000E+00  0.000000000E+00  6.038283854E+02  6.038283854E+02  0.000000000E+00  0.00000E+00  9.000E+00
      21    -1     0     0   501   502  0.000000000E+00  0.000000000E+00 -5.468024226E+02  5.468024226E+02  0.000000000E+00  0.00000E+00  9.000E+00
      25     1     1     2     0     0  3.441379598E+02 -2.708830335E+02 -2.536390806E+02  5.213121295E+02  1.250000000E+02  0.00000E+00  9.000E+00
      25     1     1     2     0     0 -2.512352174E+02  3.326707179E+02  2.579709842E+02  5.059278305E+02  1.250000000E+02  0.00000E+00  9.000E+00
      21     1     1     2   511   502 -9.290274241E+01 -6.178768436E+01  5.269405921E+01  1.233908480E+02  1.168007728E-06  0.00000E+00  9.000E+00
#rwgt            1           1   2.7589803888168667E-002          10      307831           0
</event>
<event>
      5   9999  3.19816E-02  7.64852E+01 -1.00000E+00  1.29301E-01
      21    -1     0     0   512   501  0.000000000E+00  0.000000000E+00  4.671798147E+02  4.671798147E+02  0.000000000E+00  0.00000E+00  9.000E+00
      21    -1     0     0   501   502  0.000000000E+00  0.000000000E+00 -5.359399131E+02  5.359399131E+02  0.000000000E+00  0.00000E+00  9.000E+00
      25     1     1     2     0     0  3.533880080E+02  9.645870313E+01 -2.898450794E+02  4.835519989E+02  1.250000000E+02  0.00000E+00  9.000E+00
      25     1     1     2     0     0 -3.714766930E+02 -2.214321867E+01  1.979966173E+02  4.396736472E+02  1.250000000E+02  0.00000E+00  9.000E+00
      21     1     1     2   512   502  1.808868495E+01 -7.431548446E+01  2.308836367E+01  7.989408170E+01  1.011524364E-06  0.00000E+00  9.000E+00
#rwgt            1           1   2.4606473895123465E-002          10      307926           0
</event>
<event>
      5   9999  3.19816E-02  9.31732E+01 -1.00000E+00  1.25225E-01
      21    -1     0     0   511   501  0.000000000E+00  0.000000000E+00  1.364120663E+03  1.364120663E+03  0.000000000E+00  0.00000E+00  9.000E+00
      21    -1     0     0   501   502  0.000000000E+00  0.000000000E+00 -6.987446353E+01  6.987446353E+01  0.000000000E+00  0.00000E+00  9.000E+00
      25     1     1     2     0     0 -2.778693534E+01 -1.663336416E+02  2.175378129E+02  3.023023225E+02  1.250000000E+02  0.00000E+00  9.000E+00
      25     1     1     2     0     0 -5.368626706E+01  2.115371211E+02  8.544089916E+02  8.906570012E+02  1.250000000E+02  0.00000E+00  9.000E+00
      21     1     1     2   511   502  8.147320240E+01 -4.520347944E+01  2.222993948E+02  2.410358027E+02  3.814697266E-06  0.00000E+00  9.000E+00
#rwgt            1           1   2.9850731774369581E-002          10      308034           0
</event>
<event>
      5   9999  3.19816E-02  9.74158E+00 -1.00000E+00  1.97081E-01
      21    -1     0     0   512   501  0.000000000E+00  0.000000000E+00  3.951095977E+02  3.951095977E+02  0.000000000E+00  0.00000E+00  9.000E+00
      21    -1     0     0   501   502  0.000000000E+00  0.000000000E+00 -2.370663508E+02  2.370663508E+02  0.000000000E+00  0.00000E+00  9.000E+00
      25     1     1     2     0     0  5.885357245E+00  5.304727053E+01  2.816139958E+02  3.126980860E+02  1.250000000E+02  0.00000E+00  9.000E+00
      25     1     1     2     0     0 -1.097202547E+01 -6.135534945E+01 -1.991628918E+02  2.432606045E+02  1.250000000E+02  0.00000E+00  9.000E+00
      21     1     1     2   512   502  5.086668226E+00  8.308078914E+00  7.559214275E+01  7.621725798E+01  9.536743164E-07  0.00000E+00  9.000E+00
#rwgt            1           1   2.8159841167455110E-002          10      308075           0
</event>
<event>
      5   9999  3.19816E-02  8.96008E+01 -1.00000E+00  1.26011E-01
       2    -1     0     0   502     0  0.000000000E+00  0.000000000E+00  2.006309338E+03  2.006309338E+03  0.000000000E+00  0.00000E+00  9.000E+00
      21    -1     0     0   501   502  0.000000000E+00  0.000000000E+00 -4.772202889E+02  4.772202889E+02  0.000000000E+00  0.00000E+00  9.000E+00
      25     1     1     2     0     0 -7.189956086E+02 -4.920127295E+02  4.231431190E+02  9.765788807E+02  1.250000000E+02  0.00000E+00  9.000E+00
      25     1     1     2     0     0  7.739385617E+02  4.212343647E+02  8.304393703E+02  1.217240254E+03  1.250000000E+02  0.00000E+00  9.000E+00
       2     1     1     2   501     0 -5.494295309E+01  7.077836482E+01  2.755065602E+02  2.897104929E+02  3.814697266E-06  0.00000E+00  9.000E+00
#rwgt            1           1   3.0628465778851754E-002          10      308336           0
</event>
<event>
      5   9999  3.19816E-02  6.13159E+01 -1.00000E+00  1.34202E-01
      21    -1     0     0   502   501  0.000000000E+00  0.000000000E+00  3.721342089E+02  3.721342089E+02  0.000000000E+00  0.00000E+00  9.000E+00
      21    -1     0     0   501   511  0.000000000E+00  0.000000000E+00 -2.883664262E+02  2.883664262E+02  0.000000000E+00  0.00000E+00  9.000E+00
      25     1     1     2     0     0 -1.625294850E+02  1.318864069E+02 -1.167336896E+02  2.702991159E+02  1.250000000E+02  0.00000E+00  9.000E+00
      25     1     1     2     0     0  1.123925977E+02 -9.658872137E+01  2.464593858E+02  3.135740837E+02  1.250000000E+02  0.00000E+00  9.000E+00
      21     1     1     2   502   511  5.013688723E+01 -3.529768549E+01 -4.595791351E+01  7.662743554E+01  6.743495762E-07  0.00000E+00  9.000E+00
#rwgt            2          11   2.3955682857405708E-003          10      308718           0
</event>
<event>
      5   9999  3.19816E-02  1.83376E+02 -1.00000E+00  1.13037E-01
      21    -1     0     0   502   501  0.000000000E+00  0.000000000E+00  1.490330265E+03  1.490330265E+03  0.000000000E+00  0.00000E+00  9.000E+00
       1    -1     0     0   501     0  0.000000000E+00  0.000000000E+00 -9.178982955E+02  9.178982955E+02  0.000000000E+00  0.00000E+00  9.000E+00
      25     1     1     2     0     0  3.870187594E+02 -5.592049086E+02  4.345530049E+02  8.166731072E+02  1.250000000E+02  0.00000E+00  9.000E+00
      25     1     1     2     0     0 -4.910756110E+02  4.082122306E+02  7.263393246E+02  9.751852621E+02  1.250000000E+02  0.00000E+00  9.000E+00
       1     1     1     2   502     0  1.040568516E+02  1.509926780E+02 -5.884603601E+02  6.163701911E+02  0.000000000E+00  0.00000E+00  9.000E+00
#rwgt            1           1   2.0829909681153318E-002          10      308738           0
</event>
<event>
      5   9999  3.19816E-02  3.28949E+01 -1.00000E+00  1.50312E-01
      21    -1     0     0   502   511  0.000000000E+00  0.000000000E+00  2.810600116E+02  2.810600116E+02  0.000000000E+00  0.00000E+00  9.000E+00
      21    -1     0     0   501   502  0.000000000E+00  0.000000000E+00 -1.958000348E+02  1.958000348E+02  0.000000000E+00  0.00000E+00  9.000E+00
      25     1     1     2     0     0 -8.461364782E+01 -1.607353698E+02 -1.657133232E+01  2.211219970E+02  1.250000000E+02  0.00000E+00  9.000E+00
      25     1     1     2     0     0  8.351931084E+01  1.278587001E+02  6.848753512E+01  2.088991741E+02  1.250000000E+02  0.00000E+00  9.000E+00
      21     1     1     2   501   511  1.094336979E+00  3.287666966E+01  3.334377396E+01  4.683887534E+01  4.768371582E-07  0.00000E+00  9.000E+00
#rwgt            1           1   2.5921767894511158E-002          10      308830           0
</event>
<event>
      5   9999  3.19816E-02  1.35787E+02 -1.00000E+00  1.18133E-01
      21    -1     0     0   502   501  0.000000000E+00  0.000000000E+00  1.716853374E+03  1.716853374E+03  0.000000000E+00  0.00000E+00  9.000E+00
      21    -1     0     0   512   502  0.000000000E+00  0.000000000E+00 -1.478713897E+02  1.478713897E+02  0.000000000E+00  0.00000E+00  9.000E+00
      25     1     1     2     0     0 -3.481794850E+02  1.563126150E+02  8.666697979E+02  9.551984747E+02  1.250000000E+02  0.00000E+00  9.000E+00
      25     1     1     2     0     0  2.127961970E+02 -1.458549853E+02  7.177340148E+02  7.728667506E+02  1.250000000E+02  0.00000E+00  9.000E+00
      21     1     1     2   512   501  1.353832880E+02 -1.045762975E+01 -1.542182837E+01  1.366595385E+02  3.085655953E-06  0.00000E+00  9.000E+00
#rwgt            1           1   2.7041011760024967E-002          10      308932           0
</event>
<event>
      5   9999  3.19816E-02  3.29979E+01 -1.00000E+00  1.50221E-01
      21    -1     0     0   502   501  0.000000000E+00  0.000000000E+00  2.302181775E+02  2.302181775E+02  0.000000000E+00  0.00000E+00  9.000E+00
      21    -1     0     0   511   502  0.000000000E+00  0.000000000E+00 -6.214914942E+02  6.214914942E+02  0.000000000E+00  0.00000E+00  9.000E+00
      25     1     1     2     0     0 -1.987329176E+02 -2.259692785E+02 -2.317192685E+02  3.998446033E+02  1.250000000E+02  0.00000E+00  9.000E+00
      25     1     1     2     0     0  2.306908107E+02  2.177503255E+02 -5.899840524E+01  3.460336201E+02  1.250000000E+02  0.00000E+00  9.000E+00
      21     1     1     2   511   501 -3.195789311E+01  8.218952954E+00 -1.005556430E+02  1.058314483E+02  0.000000000E+00  0.00000E+00  9.000E+00
#rwgt            1           1   2.7965290464835712E-002          10      309038           0
</event>
<event>
      5   9999  3.19816E-02  8.93189E+01 -1.00000E+00  1.26075E-01
       2    -1     0     0   502     0  0.000000000E+00  0.000000000E+00  1.333751698E+03  1.333751698E+03  0.000000000E+00  0.00000E+00  9.000E+00
      21    -1     0     0   501   502  0.000000000E+00  0.000000000E+00 -3.600959183E+02  3.600959183E+02  0.000000000E+00  0.00000E+00  9.000E+00
      25     1     1     2     0     0  1.451702007E+01  3.408260878E+02 -2.574949066E+01  3.642268555E+02  1.250000000E+02  0.00000E+00  9.000E+00
      25     1     1     2     0     0 -8.000561092E+01 -4.015640692E+02  1.185142653E+02  4.442130464E+02  1.250000000E+02  0.00000E+00  9.000E+00
       2     1     1     2   501     0  6.548859085E+01  6.073798146E+01  8.808910047E+02  8.854077140E+02  1.078959322E-05  0.00000E+00  9.000E+00
#rwgt            1           1   2.9281084458160210E-002          10      309164           0
</event>
<event>
      5   9999  3.19816E-02  6.67871E+01 -1.00000E+00  1.32263E-01
      21    -1     0     0   502   501  0.000000000E+00  0.000000000E+00  3.874432658E+01  3.874432658E+01  0.000000000E+00  0.00000E+00  9.000E+00
      21    -1     0     0   511   502  0.000000000E+00  0.000000000E+00 -1.656104022E+03  1.656104022E+03  0.000000000E+00  0.00000E+00  9.000E+00
      25     1     1     2     0     0  7.684676596E+01 -7.264489501E+01 -3.129447343E+02  3.531884949E+02  1.250000000E+02  0.00000E+00  9.000E+00
      25     1     1     2     0     0 -1.236613994E+02  1.202778864E+02 -6.539471455E+02  6.877723320E+02  1.250000000E+02  0.00000E+00  9.000E+00
      21     1     1     2   511   501  4.681463340E+01 -4.763299135E+01 -6.504678156E+02  6.538875216E+02  1.078959322E-05  0.00000E+00  9.000E+00
#rwgt            1           1   2.7400259048299125E-002          10      309256           0
</event>
<event>
      5   9999  3.19816E-02  1.07594E+02 -1.00000E+00  1.22415E-01
      21    -1     0     0   502   501  0.000000000E+00  0.000000000E+00  7.132562506E+02  7.132562506E+02  0.000000000E+00  0.00000E+00  9.000E+00
      21    -1     0     0   512   502  0.000000000E+00  0.000000000E+00 -3.759100288E+02  3.759100288E+02  0.000000000E+00  0.00000E+00  9.000E+00
      25     1     1     2     0     0 -7.940628479E+01 -3.551006852E+02  3.360182527E+02  5.108180898E+02  1.250000000E+02  0.00000E+00  9.000E+00
      25     1     1     2     0     0 -2.818808418E+01  3.552485408E+02  1.400558797E+02  4.027862253E+02  1.250000000E+02  0.00000E+00  9.000E+00
      21     1     1     2   512   501  1.075943690E+02 -1.478555690E-01 -1.387279106E+02  1.755619642E+02  1.907348633E-06  0.00000E+00  9.000E+00
#rwgt            1           1   2.7562158795700821E-002          10      309296           0
</event>
<event>
      5   9999  3.19816E-02  1.03938E+02 -1.00000E+00  1.23078E-01
       2    -1     0     0   502     0  0.000000000E+00  0.000000000E+00  3.497994887E+02  3.497994887E+02  0.000000000E+00  0.00000E+00  9.000E+00
      21    -1     0     0   501   502  0.000000000E+00  0.000000000E+00 -5.229560294E+02  5.229560294E+02  0.000000000E+00  0.00000E+00  9.000E+00
      25     1     1     2     0     0 -6.971705944E+01 -2.695346714E+02 -2.649615101E+02  4.041522106E+02  1.250000000E+02  0.00000E+00  9.000E+00
      25     1     1     2     0     0  1.725454333E+02  2.846788548E+02  7.041819419E+01  3.624882053E+02  1.250000000E+02  0.00000E+00  9.000E+00
       2     1     1     2   501     0 -1.028283739E+02 -1.514418336E+01  2.138677525E+01  1.061151022E+02  7.539457465E-07  0.00000E+00  9.000E+00
#rwgt            1           1   2.8656355635653205E-002          10      309384           0
</event>
<event>
      5   9999  3.19816E-02  8.08898E+01 -1.00000E+00  1.28117E-01
      21    -1     0     0   502   501  0.000000000E+00  0.000000000E+00  1.339461684E+02  1.339461684E+02  0.000000000E+00  0.00000E+00  9.000E+00
      21    -1     0     0   511   502  0.000000000E+00  0.000000000E+00 -7.728634976E+02  7.728634976E+02  0.000000000E+00  0.00000E+00  9.000E+00
      25     1     1     2     0     0 -2.206795150E+02 -5.585906203E+01 -4.573383448E+02  5.259306464E+02  1.250000000E+02  0.00000E+00  9.000E+00
      25     1     1     2     0     0  2.023908133E+02 -2.293612747E+01 -8.216447740E+01  2.527134911E+02  1.250000000E+02  0.00000E+00  9.000E+00
      21     1     1     2   511   501  1.828870172E+01  7.879518950E+01 -9.941450700E+01  1.281655285E+02  2.336015456E-06  0.00000E+00  9.000E+00
#rwgt            1           1   2.6807037658847937E-002          10      309474           0
</event>
<event>
      5   9999  3.35150E-02  7.33147E+01 -1.00000E+00  1.30211E-01
      21    -1     0     0   502   501  0.000000000E+00  0.000000000E+00  2.338459705E+03  2.338459705E+03  0.000000000E+00  0.00000E+00  9.000E+00
      21    -1     0     0   501   512  0.000000000E+00  0.000000000E+00 -1.481946586E+02  1.481946586E+02  0.000000000E+00  0.00000E+00  9.000E+00
      25     1     1     2     0     0  9.766892925E+01 -2.408660088E+02  1.566521028E+03  1.592849266E+03  1.250000000E+02  0.00000E+00  9.000E+00
      25     1     1     2     0     0 -1.310901679E+02  3.061198693E+02  7.017537189E+02  7.867510969E+02  1.250000000E+02  0.00000E+00  9.000E+00
      21     1     1     2   502   512  3.342123863E+01 -6.525386050E+01 -7.800970084E+01  1.070540000E+02  4.046097457E-06  0.00000E+00  9.000E+00
#rwgt            1           1   9.4959714466541903E-002          10      309569           0
</event>
<event>
      5   9999  3.19816E-02  3.47371E+01 -1.00000E+00  1.48745E-01
      21    -1     0     0   502   501  0.000000000E+00  0.000000000E+00  1.495680083E+03  1.495680083E+03  0.000000000E+00  0.00000E+00  9.000E+00
      21    -1     0     0   511   502  0.000000000E+00  0.000000000E+00 -7.771907436E+02  7.771907436E+02  0.000000000E+00  0.00000E+00  9.000E+00
      25     1     1     2     0     0 -6.526443991E+02  7.104249889E+02  1.453460044E+01  9.728744170E+02  1.250000000E+02  0.00000E+00  9.000E+00
      25     1     1     2     0     0  6.697979531E+02 -7.406312766E+02  7.405943899E+02  1.249507517E+03  1.250000000E+02  0.00000E+00  9.000E+00
      21     1     1     2   511   501 -1.715355395E+01  3.020628775E+01 -3.663965081E+01  5.048889228E+01  8.259061849E-07  0.00000E+00  9.000E+00
#rwgt            1           1   3.3408932769844073E-002          10      309669           0
</event>
<event>
      5   9999  3.19816E-02  1.00945E+01 -1.00000E+00  1.95286E-01
      21    -1     0     0   502   501  0.000000000E+00  0.000000000E+00  1.094199514E+03  1.094199514E+03  0.000000000E+00  0.00000E+00  9.000E+00
      21    -1     0     0   512   502  0.000000000E+00  0.000000000E+00 -4.023811545E+01  4.023811545E+01  0.000000000E+00  0.00000E+00  9.000E+00
      25     1     1     2     0     0 -6.591663640E+01 -7.740515990E+01  8.425612538E+02  8.578292535E+02  1.250000000E+02  0.00000E+00  9.000E+00
      25     1     1     2     0     0  7.554510167E+01  8.043704942E+01  1.889956648E+02  2.520348044E+02  1.250000000E+02  0.00000E+00  9.000E+00
      21     1     1     2   512   501 -9.628465272E+00 -3.031889518E+00  2.240447957E+01  2.457357122E+01  2.384185791E-07  0.00000E+00  9.000E+00
#rwgt            1           1   3.1943220013866763E-002          10      309899           0
</event>
<event>
      5   9999  3.19816E-02  1.38884E+02 -1.00000E+00  1.17734E-01
      -3    -1     0     0     0   501  0.000000000E+00  0.000000000E+00  6.236684053E+02  6.236684053E+02  0.000000000E+00  0.00000E+00  9.000E+00
      21    -1     0     0   501   502  0.000000000E+00  0.000000000E+00 -5.660825518E+02  5.660825518E+02  0.000000000E+00  0.00000E+00  9.000E+00
      25     1     1     2     0     0 -3.583107735E+02  1.580315368E+01 -3.021464482E+02  4.853388777E+02  1.250000000E+02  0.00000E+00  9.000E+00
      25     1     1     2     0     0  2.327957716E+02 -7.525800183E+01 -4.328997985E+01  2.781306536E+02  1.250000000E+02  0.00000E+00  9.000E+00
      -3     1     1     2     0   502  1.255150020E+02  5.945484814E+01  4.030222815E+02  4.262814259E+02  5.394796609E-06  0.00000E+00  9.000E+00
#rwgt            1           1   3.3109720999146983E-002          10      310090           0
</event>
<event>
      5   9999  3.19816E-02  1.57106E+01 -1.00000E+00  1.75511E-01
      21    -1     0     0   502   501  0.000000000E+00  0.000000000E+00  6.037459020E+02  6.037459020E+02  0.000000000E+00  0.00000E+00  9.000E+00
      21    -1     0     0   501   511  0.000000000E+00  0.000000000E+00 -1.957678296E+02  1.957678296E+02  0.000000000E+00  0.00000E+00  9.000E+00
      25     1     1     2     0     0 -8.615750655E+01 -1.724712419E+02  4.839873098E+02  5.357594248E+02  1.250000000E+02  0.00000E+00  9.000E+00
      25     1     1     2     0     0  7.754242236E+01  1.856090622E+02 -7.215141761E+01  2.475770149E+02  1.250000000E+02  0.00000E+00  9.000E+00
      21     1     1     2   502   511  8.615084182E+00 -1.313782029E+01 -3.857819760E+00  1.617729183E+01  1.264405455E-07  0.00000E+00  9.000E+00
#rwgt            1           1   2.8078629320188904E-002          10      310135           0
</event>
<event>
      5   9999  3.19816E-02  1.67819E+02 -1.00000E+00  1.14494E-01
       2    -1     0     0   502     0  0.000000000E+00  0.000000000E+00  9.365771179E+02  9.365771179E+02  0.000000000E+00  0.00000E+00  9.000E+00
      21    -1     0     0   501   502  0.000000000E+00  0.000000000E+00 -7.428245222E+02  7.428245222E+02  0.000000000E+00  0.00000E+00  9.000E+00
      25     1     1     2     0     0  5.402133431E+02  3.949876949E+02  1.251905141E+02  6.922018492E+02  1.250000000E+02  0.00000E+00  9.000E+00
      25     1     1     2     0     0 -7.049155509E+02 -3.627933258E+02 -8.262129833E+00  8.026320414E+02  1.250000000E+02  0.00000E+00  9.000E+00
       2     1     1     2   501     0  1.647022078E+02 -3.219436917E+01  7.682421150E+01  1.845677495E+02  2.861022949E-06  0.00000E+00  9.000E+00
#rwgt            1           1   3.1381862755460427E-002          10      310275           0
</event>
<event>
      5   9999  3.19816E-02  1.80852E+02 -1.00000E+00  1.13263E-01
      21    -1     0     0   502   501  0.000000000E+00  0.000000000E+00  1.780536065E+03  1.780536065E+03  0.000000000E+00  0.00000E+00  9.000E+00
      21    -1     0     0   501   511  0.000000000E+00  0.000000000E+00 -1.009854206E+03  1.009854206E+03  0.000000000E+00  0.00000E+00  9.000E+00
      25     1     1     2     0     0  8.484919102E+02  4.928792259E+02  8.825239334E+02  1.325647746E+03  1.250000000E+02  0.00000E+00  9.000E+00
      25     1     1     2     0     0 -8.249450444E+02 -6.721916242E+02  2.135005952E+02  1.092512430E+03  1.250000000E+02  0.00000E+00  9.000E+00
      21     1     1     2   502   511 -2.354686584E+01  1.793123983E+02 -3.253426693E+02  3.722300950E+02  0.000000000E+00  0.00000E+00  9.000E+00
#rwgt            1           1   3.1182830384732744E-002          10      310351           0
</event>
<event>
      5   9999  3.19816E-02  6.59941E+01 -1.00000E+00  1.32530E-01
      21    -1     0     0   502   512  0.000000000E+00  0.000000000E+00  3.649748613E+02  3.649748613E+02  0.000000000E+00  0.00000E+00  9.000E+00
      21    -1     0     0   501   502  0.000000000E+00  0.000000000E+00 -1.416207782E+02  1.416207782E+02  0.000000000E+00  0.00000E+00  9.000E+00
      25     1     1     2     0     0  7.497077033E+01 -5.133069981E+01 -1.898367373E+01  1.556946917E+02  1.250000000E+02  0.00000E+00  9.000E+00
      25     1     1     2     0     0 -1.368153135E+02  2.829881865E+01  1.713961184E+02  2.540096112E+02  1.250000000E+02  0.00000E+00  9.000E+00
      21     1     1     2   501   512  6.184454320E+01  2.303188116E+01  7.094163832E+01  9.689133666E+01  1.907348633E-06  0.00000E+00  9.000E+00
#rwgt            1           1   2.8374189788375075E-002          10      310408           0
</event>
<event>
      5   9999  3.19816E-02  7.72407E+02 -1.00000E+00  9.37669E-02
      21    -1     0     0   502   501  0.000000000E+00  0.000000000E+00  5.201715564E+02  5.201715564E+02  0.000000000E+00  0.00000E+00  9.000E+00
       1    -1     0     0   501     0  0.000000000E+00  0.000000000E+00 -1.804836147E+03  1.804836147E+03  0.000000000E+00  0.00000E+00  9.000E+00
      25     1     1     2     0     0  1.295009897E+02  1.054213727E+02 -3.699931242E+01  2.118445687E+02  1.250000000E+02  0.00000E+00  9.000E+00
      25     1     1     2     0     0 -1.685036528E+02  6.659998474E+02 -6.590743948E+01  7.013687107E+02  1.250000000E+02  0.00000E+00  9.000E+00
       1     1     1     2   502     0  3.900266307E+01 -7.714212202E+02 -1.181757839E+03  1.411794425E+03  2.157918644E-05  0.00000E+00  9.000E+00
#rwgt            2          12   1.0195059639227810E-003          10      310513           0
</event>
<event>
      5   9999  3.19816E-02  4.99421E+01 -1.00000E+00  1.39104E-01
      21    -1     0     0   502   501  0.000000000E+00  0.000000000E+00  9.513994539E+01  9.513994539E+01  0.000000000E+00  0.00000E+00  9.000E+00
      -4    -1     0     0     0   502  0.000000000E+00  0.000000000E+00 -4.803640596E+02  4.803640596E+02  0.000000000E+00  0.00000E+00  9.000E+00
      25     1     1     2     0     0  2.267499094E+01  9.341382378E+01 -3.217004259E+01  1.609354197E+02  1.250000000E+02  0.00000E+00  9.000E+00
      25     1     1     2     0     0  2.500028246E+01 -1.082892177E+02 -2.665655634E+02  3.146963114E+02  1.250000000E+02  0.00000E+00  9.000E+00
      -4     1     1     2     0   501 -4.767527340E+01  1.487539394E+01 -8.648850824E+01  9.987227391E+01  0.000000000E+00  0.00000E+00  9.000E+00
#rwgt            1           1   2.9589602392689172E-002          10      310532           0
</event>
<event>
      5   9999  3.19816E-02  1.39278E+02 -1.00000E+00  1.17685E-01
      21    -1     0     0   502   511  0.000000000E+00  0.000000000E+00  9.649200467E+02  9.649200467E+02  0.000000000E+00  0.00000E+00  9.000E+00
      21    -1     0     0   501   502  0.000000000E+00  0.000000000E+00 -7.684460418E+02  7.684460418E+02  0.000000000E+00  0.00000E+00  9.000E+00
      25     1     1     2     0     0 -5.421359411E+02 -2.745616887E+02  3.129465833E+02  6.948784523E+02  1.250000000E+02  0.00000E+00  9.000E+00
      25     1     1     2     0     0  6.015991057E+02  4.005084693E+02 -3.131353994E+02  7.975006560E+02  1.250000000E+02  0.00000E+00  9.000E+00
      21     1     1     2   501   511 -5.946316466E+01 -1.259467805E+02  1.966628210E+02  2.409869802E+02  2.697398305E-06  0.00000E+00  9.000E+00
#rwgt            1           1   2.9654159760575782E-002          10      310593           0
</event>
<event>
      5   9999  3.19816E-02  2.84374E+01 -1.00000E+00  1.54671E-01
      21    -1     0     0   502   512  0.000000000E+00  0.000000000E+00  1.032227682E+02  1.032227682E+02  0.000000000E+00  0.00000E+00  9.000E+00
      21    -1     0     0   501   502  0.000000000E+00  0.000000000E+00 -8.881419935E+02  8.881419935E+02  0.000000000E+00  0.00000E+00  9.000E+00
      25     1     1     2     0     0 -3.733476218E+01  1.796405970E+02 -7.976739912E+01  2.359077500E+02  1.250000000E+02  0.00000E+00  9.000E+00
      25     1     1     2     0     0  6.249793044E+01 -1.663929565E+02 -6.896410668E+02  7.230645948E+02  1.250000000E+02  0.00000E+00  9.000E+00
      21     1     1     2   501   512 -2.516316826E+01 -1.324764048E+01 -1.551075945E+01  3.239241692E+01  3.769728732E-07  0.00000E+00  9.000E+00
#rwgt            1           1   2.8351753285040318E-002          10      310662           0
</event>
<event>
      5   9999  3.19816E-02  1.79340E+01 -1.00000E+00  1.70373E-01
      21    -1     0     0   502   501  0.000000000E+00  0.000000000E+00  2.385656303E+02  2.385656303E+02  0.000000000E+00  0.00000E+00  9.000E+00
      21    -1     0     0   511   502  0.000000000E+00  0.000000000E+00 -4.735523778E+02  4.735523778E+02  0.000000000E+00  0.00000E+00  9.000E+00
      25     1     1     2     0     0 -1.175931175E+02 -2.311756109E+02  3.131677561E+01  2.896136129E+02  1.250000000E+02  0.00000E+00  9.000E+00
      25     1     1     2     0     0  1.000743429E+02  2.350125288E+02 -1.850261035E+02  3.392718995E+02  1.250000000E+02  0.00000E+00  9.000E+00
      21     1     1     2   511   501  1.751877455E+01 -3.836917897E+00 -8.127741958E+01  8.323249567E+01  0.000000000E+00  0.00000E+00  9.000E+00
#rwgt            1           1   3.2811339492326515E-002          10      310744           0
</event>
<event>
      5   9999  3.19816E-02  2.30481E+01 -1.00000E+00  1.61441E-01
      21    -1     0     0   502   512  0.000000000E+00  0.000000000E+00  1.487725800E+02  1.487725800E+02  0.000000000E+00  0.00000E+00  9.000E+00
      21    -1     0     0   501   502  0.000000000E+00  0.000000000E+00 -4.055712486E+02  4.055712486E+02  0.000000000E+00  0.00000E+00  9.000E+00
      25     1     1     2     0     0 -1.089862639E+02 -5.362503245E+01  2.530077415E+01  1.761214893E+02  1.250000000E+02  0.00000E+00  9.000E+00
      25     1     1     2     0     0  1.269827905E+02  6.802435237E+01 -2.953923202E+02  3.516156488E+02  1.250000000E+02  0.00000E+00  9.000E+00
      21     1     1     2   501   512 -1.799652660E+01 -1.439931992E+01  1.329287755E+01  2.660669047E+01  2.384185791E-07  0.00000E+00  9.000E+00
#rwgt            1           1   3.4537909205781182E-002          10      310922           0
</event>
<event>
      5   9999  3.19816E-02  4.17247E+01 -1.00000E+00  1.43712E-01
      21    -1     0     0   502   511  0.000000000E+00  0.000000000E+00  4.678611754E+02  4.678611754E+02  0.000000000E+00  0.00000E+00  9.000E+00
      21    -1     0     0   501   502  0.000000000E+00  0.000000000E+00 -2.494605019E+02  2.494605019E+02  0.000000000E+00  0.00000E+00  9.000E+00
      25     1     1     2     0     0 -1.263457871E+02 -2.061714576E+02  1.800050406E+02  3.263383865E+02  1.250000000E+02  0.00000E+00  9.000E+00
      25     1     1     2     0     0  1.055887774E+02  2.423667635E+02 -4.676887830E+01  2.961468655E+02  1.250000000E+02  0.00000E+00  9.000E+00
      21     1     1     2   501   511  2.075700968E+01 -3.619530588E+01  8.516451118E+01  9.483642540E+01  0.000000000E+00  0.00000E+00  9.000E+00
#rwgt            2          11   1.9830383010708951E-003          10      311085           0
</event>
<event>
      5   9999  3.19816E-02  2.98528E+01 -1.00000E+00  1.53188E-01
      21    -1     0     0   502   512  0.000000000E+00  0.000000000E+00  6.685447609E+02  6.685447609E+02  0.000000000E+00  0.00000E+00  9.000E+00
      21    -1     0     0   501   502  0.000000000E+00  0.000000000E+00 -8.511308122E+02  8.511308122E+02  0.000000000E+00  0.00000E+00  9.000E+00
      25     1     1     2     0     0  4.749539875E+02  5.015092103E+02 -2.218254128E+02  7.361550734E+02  1.250000000E+02  0.00000E+00  9.000E+00
      25     1     1     2     0     0 -5.016980216E+02 -5.147737842E+02 -5.635452522E+00  7.296229932E+02  1.250000000E+02  0.00000E+00  9.000E+00
      21     1     1     2   501   512  2.674403410E+01  1.326457393E+01  4.487481398E+01  5.389750653E+01  8.259061849E-07  0.00000E+00  9.000E+00
#rwgt            1           1   2.8102580467343534E-002          10      311120           0
</event>
<event>
      5   9999  3.19816E-02  3.90363E+01 -1.00000E+00  1.45500E-01
       2    -1     0     0   502     0  0.000000000E+00  0.000000000E+00  1.395621989E+03  1.395621989E+03  0.000000000E+00  0.00000E+00  9.000E+00
      21    -1     0     0   501   502  0.000000000E+00  0.000000000E+00 -7.267654831E+02  7.267654831E+02  0.000000000E+00  0.00000E+00  9.000E+00
      25     1     1     2     0     0  7.886962445E+02  5.118699291E+01 -2.016003414E+00  8.001818159E+02  1.250000000E+02  0.00000E+00  9.000E+00
      25     1     1     2     0     0 -7.516762389E+02 -6.357038575E+01  1.248284412E+02  7.747680309E+02  1.250000000E+02  0.00000E+00  9.000E+00
       2     1     1     2   501     0 -3.702000563E+01  1.238339284E+01  5.460440677E+02  5.474376248E+02  7.629394531E-06  0.00000E+00  9.000E+00
#rwgt            2          18   9.3629726496099661E-004          10      311292           0
</event>
<event>
      5   9999  3.19816E-02  4.07078E+02 -1.00000E+00  1.01457E-01
      21    -1     0     0   502   501  0.000000000E+00  0.000000000E+00  6.599091949E+02  6.599091949E+02  0.000000000E+00  0.00000E+00  9.000E+00
       2    -1     0     0   501     0  0.000000000E+00  0.000000000E+00 -1.994981663E+03  1.994981663E+03  0.000000000E+00  0.00000E+00  9.000E+00
      25     1     1     2     0     0 -1.937777818E+02  5.782285305E+02 -1.107871250E+03  1.270787853E+03  1.250000000E+02  0.00000E+00  9.000E+00
      25     1     1     2     0     0  5.785460128E+02 -7.111413427E+02 -1.572180012E+01  9.253700196E+02  1.250000000E+02  0.00000E+00  9.000E+00
       2     1     1     2   502     0 -3.847682310E+02  1.329128121E+02 -2.114794183E+02  4.587329850E+02  3.814697266E-06  0.00000E+00  9.000E+00
#rwgt            1           1   2.9266457078889824E-002          10      311311           0
</event>
<event>
      5   9999  3.19816E-02  2.20905E+02 -1.00000E+00  1.10099E-01
      21    -1     0     0   502   511  0.000000000E+00  0.000000000E+00  5.669408779E+02  5.669408779E+02  0.000000000E+00  0.00000E+00  9.000E+00
      21    -1     0     0   501   502  0.000000000E+00  0.000000000E+00 -3.528023551E+02  3.528023551E+02  0.000000000E+00  0.00000E+00  9.000E+00
      25     1     1     2     0     0 -4.114785613E+00  1.809423242E+02  3.276960970E+02  3.946730142E+02  1.250000000E+02  0.00000E+00  9.000E+00
      25     1     1     2     0     0 -5.865245135E+01  3.085791959E+01 -2.340130183E+02  2.734582490E+02  1.250000000E+02  0.00000E+00  9.000E+00
      21     1     1     2   501   511  6.276723696E+01 -2.118002438E+02  1.204554441E+02  2.516119697E+02  1.348699152E-06  0.00000E+00  9.000E+00
#rwgt            1           1   2.7188250218947344E-002          10      311362           0
</event>
<event>
      5   9999  3.19816E-02  3.02980E+02 -1.00000E+00  1.05453E-01
       1    -1     0     0   502     0  0.000000000E+00  0.000000000E+00  3.112434350E+03  3.112434350E+03  0.000000000E+00  0.00000E+00  9.000E+00
      21    -1     0     0   501   502  0.000000000E+00  0.000000000E+00 -3.524718561E+02  3.524718561E+02  0.000000000E+00  0.00000E+00  9.000E+00
      25     1     1     2     0     0 -5.183652417E+02 -3.267633410E+02  7.279327575E+01  6.296035783E+02  1.250000000E+02  0.00000E+00  9.000E+00
      25     1     1     2     0     0  5.550585441E+02  2.601344672E+01  1.368805851E+03  1.482572475E+03  1.250000000E+02  0.00000E+00  9.000E+00
       1     1     1     2   501     0 -3.669330238E+01  3.007498943E+02  1.318363367E+03  1.352730152E+03  1.525878906E-05  0.00000E+00  9.000E+00
#rwgt            2          17   4.6268480319611199E-004          10      311437           0
</event>
<event>
      5   9999  3.19816E-02  5.23472E+01 -1.00000E+00  1.37948E-01
      21    -1     0     0   502   501  0.000000000E+00  0.000000000E+00  7.527809067E+02  7.527809067E+02  0.000000000E+00  0.00000E+00  9.000E+00
      21    -1     0     0   511   502  0.000000000E+00  0.000000000E+00 -7.825767115E+02  7.825767115E+02  0.000000000E+00  0.00000E+00  9.000E+00
      25     1     1     2     0     0  2.506277472E+02  2.923864342E+02 -3.504499122E+02  5.354850470E+02  1.250000000E+02  0.00000E+00  9.000E+00
      25     1     1     2     0     0 -2.944859739E+02 -3.209642271E+02  5.795755608E+02  7.357124809E+02  1.250000000E+02  0.00000E+00  9.000E+00
      21     1     1     2   511   501  4.385822670E+01  2.857779292E+01 -2.589214534E+02  2.641600903E+02  3.814697266E-06  0.00000E+00  9.000E+00
#rwgt            1           1   2.7370784993904964E-002          10      311456           0
</event>
<event>
      5   9999  3.19816E-02  3.89045E+01 -1.00000E+00  1.45592E-01
      21    -1     0     0   502   501  0.000000000E+00  0.000000000E+00  5.731995461E+02  5.731995461E+02  0.000000000E+00  0.00000E+00  9.000E+00
      21    -1     0     0   501   512  0.000000000E+00  0.000000000E+00 -1.378839824E+02  1.378839824E+02  0.000000000E+00  0.00000E+00  9.000E+00
      25     1     1     2     0     0 -5.187176008E+01  4.436872999E+01 -6.448985837E+01  1.563432299E+02  1.250000000E+02  0.00000E+00  9.000E+00
      25     1     1     2     0     0  7.780682914E+01 -1.536986728E+01  4.936282740E+02  5.153484340E+02  1.250000000E+02  0.00000E+00  9.000E+00
      21     1     1     2   502   512 -2.593506906E+01 -2.899886270E+01  6.177147986E+00  3.939186467E+01  7.300048300E-07  0.00000E+00  9.000E+00
#rwgt            1           1   3.0396386553997255E-002          10      311556           0
</event>
<event>
      5   9999  3.19816E-02  3.10989E+01 -1.00000E+00  1.51963E-01
      21    -1     0     0   511   501  0.000000000E+00  0.000000000E+00  3.385873076E+02  3.385873076E+02  0.000000000E+00  0.00000E+00  9.000E+00
      21    -1     0     0   501   502  0.000000000E+00  0.000000000E+00 -6.115533351E+02  6.115533351E+02  0.000000000E+00  0.00000E+00  9.000E+00
      25     1     1     2     0     0  1.920662581E+02 -3.169435374E+02  6.646528751E+01  3.967181466E+02  1.250000000E+02  0.00000E+00  9.000E+00
      25     1     1     2     0     0 -1.690504024E+02  3.378579304E+02 -3.383039816E+02  5.223031722E+02  1.250000000E+02  0.00000E+00  9.000E+00
      21     1     1     2   511   502 -2.301585567E+01 -2.091439294E+01 -1.127333387E+00  3.111932398E+01  7.474384429E-07  0.00000E+00  9.000E+00
#rwgt            1           1   2.6459780320920934E-002          10      311677           0
</event>
<event>
      5   9999  3.19816E-02  9.21701E+01 -1.00000E+00  1.25442E-01
      21    -1     0     0   502   501  0.000000000E+00  0.000000000E+00  8.054936036E+02  8.054936036E+02  0.000000000E+00  0.00000E+00  9.000E+00
      21    -1     0     0   512   502  0.000000000E+00  0.000000000E+00 -4.624793056E+02  4.624793056E+02  0.000000000E+00  0.00000E+00  9.000E+00
      25     1     1     2     0     0  5.020486372E+02  1.707833663E+01  4.358210553E+02  6.766901034E+02  1.250000000E+02  0.00000E+00  9.000E+00
      25     1     1     2     0     0 -4.476650666E+02 -9.149440555E+01 -2.053017303E+01  4.741536946E+02  1.250000000E+02  0.00000E+00  9.000E+00
      21     1     1     2   512   501 -5.438357057E+01  7.441606892E+01 -7.227658430E+01  1.171291112E+02  1.348699152E-06  0.00000E+00  9.000E+00
#rwgt            1           1   2.9483653524050767E-002          10      311767           0
</event>
<event>
      5   9999  3.19816E-02  8.09355E+01 -1.00000E+00  1.28106E-01
      21    -1     0     0   502   511  0.000000000E+00  0.000000000E+00  5.886180949E+02  5.886180949E+02  0.000000000E+00  0.00000E+00  9.000E+00
      21    -1     0     0   501   502  0.000000000E+00  0.000000000E+00 -1.121648231E+03  1.121648231E+03  0.000000000E+00  0.00000E+00  9.000E+00
      25     1     1     2     0     0  7.736109419E+02  6.577035434E+01 -7.591198468E+01  7.900552248E+02  1.250000000E+02  0.00000E+00  9.000E+00
      25     1     1     2     0     0 -6.971179112E+02 -3.932475865E+01 -4.475385458E+02  8.387106585E+02  1.250000000E+02  0.00000E+00  9.000E+00
      21     1     1     2   501   511 -7.649303068E+01 -2.644559569E+01 -9.579605607E+00  8.150044243E+01  1.072883606E-06  0.00000E+00  9.000E+00
#rwgt            1           1   4.1199029441024791E-002          10      311831           0
</event>
<event>
      5   9999  3.19816E-02  7.30625E+01 -1.00000E+00  1.30286E-01
      21    -1     0     0   502   501  0.000000000E+00  0.000000000E+00  1.137980543E+03  1.137980543E+03  0.000000000E+00  0.00000E+00  9.000E+00
      21    -1     0     0   501   512  0.000000000E+00  0.000000000E+00 -4.505648707E+02  4.505648707E+02  0.000000000E+00  0.00000E+00  9.000E+00
      25     1     1     2     0     0  1.366545588E+01  3.275580295E+02  9.941418538E+02  1.054240975E+03  1.250000000E+02  0.00000E+00  9.000E+00
      25     1     1     2     0     0  3.316294425E+01 -2.714757315E+02 -1.029731948E+02  3.178479707E+02  1.250000000E+02  0.00000E+00  9.000E+00
      21     1     1     2   502   512 -4.682840012E+01 -5.608229804E+01 -2.037529865E+02  2.164564684E+02  2.697398305E-06  0.00000E+00  9.000E+00
#rwgt            1           1   2.5401982129179036E-002          10      311912           0
</event>
<event>
      5   9999  3.19816E-02  7.21644E+01 -1.00000E+00  1.30554E-01
      21    -1     0     0   511   501  0.000000000E+00  0.000000000E+00  1.811174828E+03  1.811174828E+03  0.000000000E+00  0.00000E+00  9.000E+00
      21    -1     0     0   501   502  0.000000000E+00  0.000000000E+00 -1.148981199E+02  1.148981199E+02  0.000000000E+00  0.00000E+00  9.000E+00
      25     1     1     2     0     0  5.753597378E+01 -1.300260352E+02  1.210463742E+03  1.225179428E+03  1.250000000E+02  0.00000E+00  9.000E+00
      25     1     1     2     0     0 -1.110799555E+01  7.477984182E+01 -5.439849522E+01  1.558833172E+02  1.250000000E+02  0.00000E+00  9.000E+00
      21     1     1     2   511   502 -4.642797823E+01  5.524619338E+01  5.402114604E+02  5.450102027E+02  7.629394531E-06  0.00000E+00  9.000E+00
#rwgt            1           1   2.9275739249150917E-002          10      312005           0
</event>
<event>
      5   9999  3.19816E-02  1.01817E+01 -1.00000E+00  1.94858E-01
      21    -1     0     0   502   501  0.000000000E+00  0.000000000E+00  8.349607249E+01  8.349607249E+01  0.000000000E+00  0.00000E+00  9.000E+00
      21    -1     0     0   501   512  0.000000000E+00  0.000000000E+00 -5.236050371E+02  5.236050371E+02  0.000000000E+00  0.00000E+00  9.000E+00
      25     1     1     2     0     0  9.688129950E+01 -8.573057363E-01 -2.390329546E+01  1.599471435E+02  1.250000000E+02  0.00000E+00  9.000E+00
      25     1     1     2     0     0 -8.734496203E+01  4.424452687E+00 -3.988738343E+02  4.270527530E+02  1.250000000E+02  0.00000E+00  9.000E+00
      21     1     1     2   502   512 -9.536337465E+00 -3.567146951E+00 -1.733183485E+01  2.010121312E+01  0.000000000E+00  0.00000E+00  9.000E+00
#rwgt            1           1   2.8263359365696586E-002          10      312103           0
</event>
<event>
      5   9999  3.19816E-02  3.38399E+01 -1.00000E+00  1.49493E-01
      21    -1     0     0   502   501  0.000000000E+00  0.000000000E+00  1.127547568E+03  1.127547568E+03  0.000000000E+00  0.00000E+00  9.000E+00
       1    -1     0     0   501     0  0.000000000E+00  0.000000000E+00 -3.909719191E+02  3.909719191E+02  0.000000000E+00  0.00000E+00  9.000E+00
      25     1     1     2     0     0 -5.783850121E+01  4.807374316E+02  2.992321413E+02  5.827680883E+02  1.250000000E+02  0.00000E+00  9.000E+00
      25     1     1     2     0     0  2.519643590E+01 -4.896612154E+02  5.912284653E+02  7.781896070E+02  1.250000000E+02  0.00000E+00  9.000E+00
       1     1     1     2   502     0  3.264206531E+01  8.923783833E+00 -1.538849572E+02  1.575617923E+02  2.697398305E-06  0.00000E+00  9.000E+00
#rwgt            1           1   2.9608943813838603E-002          10      312305           0
</event>
<event>
      5   9999  3.19816E-02  2.92734E+01 -1.00000E+00  1.53783E-01
      21    -1     0     0   502   501  0.000000000E+00  0.000000000E+00  2.876704200E+02  2.876704200E+02  0.000000000E+00  0.00000E+00  9.000E+00
      21    -1     0     0   501   511  0.000000000E+00  0.000000000E+00 -2.694930995E+02  2.694930995E+02  0.000000000E+00  0.00000E+00  9.000E+00
      25     1     1     2     0     0  1.637868311E+02  2.002629097E+01 -4.424549909E+01  2.116833545E+02  1.250000000E+02  0.00000E+00  9.000E+00
      25     1     1     2     0     0 -1.864137550E+02 -3.859923869E+01  1.367184043E+02  2.656255096E+02  1.250000000E+02  0.00000E+00  9.000E+00
      21     1     1     2   502   511  2.262692389E+01  1.857294772E+01 -7.429558475E+01  7.985465538E+01  0.000000000E+00  0.00000E+00  9.000E+00
#rwgt            1           1   2.4706999854530728E-002          10      312470           0
</event>
<event>
      5   9999  3.19816E-02  9.97911E+01 -1.00000E+00  1.23869E-01
      21    -1     0     0   502   501  0.000000000E+00  0.000000000E+00  1.041227122E+03  1.041227122E+03  0.000000000E+00  0.00000E+00  9.000E+00
      21    -1     0     0   501   512  0.000000000E+00  0.000000000E+00 -4.746987634E+02  4.746987634E+02  0.000000000E+00  0.00000E+00  9.000E+00
      25     1     1     2     0     0 -4.165776656E+02 -4.993286690E+02  5.265024804E+02  8.459881400E+02  1.250000000E+02  0.00000E+00  9.000E+00
      25     1     1     2     0     0  3.478158783E+02  4.270094081E+02  6.886218264E+00  5.647878715E+02  1.250000000E+02  0.00000E+00  9.000E+00
      21     1     1     2   502   512  6.876178725E+01  7.231926086E+01  3.313965958E+01  1.051498736E+02  2.939421655E-06  0.00000E+00  9.000E+00
#rwgt            1           1   3.0565824132126843E-002          10      312609           0
</event>
<event>
      5   9999  3.19816E-02  4.57855E+01 -1.00000E+00  1.41293E-01
      21    -1     0     0   511   501  0.000000000E+00  0.000000000E+00  4.001631572E+02  4.001631572E+02  0.000000000E+00  0.00000E+00  9.000E+00
      21    -1     0     0   501   502  0.000000000E+00  0.000000000E+00 -7.188137325E+02  7.188137325E+02  0.000000000E+00  0.00000E+00  9.000E+00
      25     1     1     2     0     0 -3.808782155E+02 -2.589104122E+02 -1.873209550E+02  5.126567631E+02  1.250000000E+02  0.00000E+00  9.000E+00
      25     1     1     2     0     0  4.257281387E+02  2.497019280E+02 -1.795088545E+02  5.398554712E+02  1.250000000E+02  0.00000E+00  9.000E+00
      21     1     1     2   511   502 -4.484992321E+01  9.208484186E+00  4.817923420E+01  6.646465528E+01  9.536743164E-07  0.00000E+00  9.000E+00
#rwgt            1           1   3.0300839456615963E-002          10      312683           0
</event>
<event>
      5   9999  3.19816E-02  3.73668E+02 -1.00000E+00  1.02583E-01
      21    -1     0     0   502   501  0.000000000E+00  0.000000000E+00  6.803792951E+02  6.803792951E+02  0.000000000E+00  0.00000E+00  9.000E+00
       1    -1     0     0   501     0  0.000000000E+00  0.000000000E+00 -3.235972703E+02  3.235972703E+02  0.000000000E+00  0.00000E+00  9.000E+00
      25     1     1     2     0     0 -4.759805365E+00  4.256102475E+00  1.612000476E+02  2.040863187E+02  1.250000000E+02  0.00000E+00  9.000E+00
      25     1     1     2     0     0  2.064396721E+02 -3.188243923E+02  1.303276217E+02  4.205670223E+02  1.250000000E+02  0.00000E+00  9.000E+00
       1     1     1     2   502     0 -2.016798667E+02  3.145682898E+02  6.525435568E+01  3.793232243E+02  6.743495762E-06  0.00000E+00  9.000E+00
#rwgt            2          12   1.8857882355599516E-004          10      312793           0
</event>
<event>
      5   9999  3.19816E-02  4.05839E+01 -1.00000E+00  1.44451E-01
       2    -1     0     0   502     0  0.000000000E+00  0.000000000E+00  1.132306071E+03  1.132306071E+03  0.000000000E+00  0.00000E+00  9.000E+00
      21    -1     0     0   501   502  0.000000000E+00  0.000000000E+00 -5.301306692E+02  5.301306692E+02  0.000000000E+00  0.00000E+00  9.000E+00
      25     1     1     2     0     0 -4.108541091E+02 -1.007585828E+02  2.572653579E+02  5.106504238E+02  1.250000000E+02  0.00000E+00  9.000E+00
      25     1     1     2     0     0  3.949844851E+02  1.381110775E+02 -2.844132788E+02  5.211557602E+02  1.250000000E+02  0.00000E+00  9.000E+00
       2     1     1     2   501     0  1.586962408E+01 -3.735249472E+01  6.293233224E+02  6.306305559E+02  1.078959322E-05  0.00000E+00  9.000E+00
#rwgt            1           1   2.9010932437574733E-002          10      312812           0
</event>
<event>
      5   9999  3.19816E-02  2.39577E+02 -1.00000E+00  1.08866E-01
      21    -1     0     0   502   501  0.000000000E+00  0.000000000E+00  3.546079133E+02  3.546079133E+02  0.000000000E+00  0.00000E+00  9.000E+00
       2    -1     0     0   501     0  0.000000000E+00  0.000000000E+00 -2.129065655E+03  2.129065655E+03  0.000000000E+00  0.00000E+00  9.000E+00
      25     1     1     2     0     0 -1.954972818E+02  3.876651124E+02 -4.974995917E+02  6.720374025E+02  1.250000000E+02  0.00000E+00  9.000E+00
      25     1     1     2     0     0  3.546396538E+02 -5.667484379E+02 -1.389432195E+03  1.546971203E+03  1.250000000E+02  0.00000E+00  9.000E+00
       2     1     1     2   502     0 -1.591423720E+02  1.790833255E+02  1.124740452E+02  2.646649635E+02  4.264961200E-06  0.00000E+00  9.000E+00
#rwgt            1           1   2.8793581138525429E-002          10      312917           0
</event>
<event>
      5   9999  3.19816E-02  1.61813E+01 -1.00000E+00  1.74337E-01
      21    -1     0     0   511   501  0.000000000E+00  0.000000000E+00  4.274364183E+02  4.274364183E+02  0.000000000E+00  0.00000E+00  9.000E+00
      21    -1     0     0   501   502  0.000000000E+00  0.000000000E+00 -2.339947667E+02  2.339947667E+02  0.000000000E+00  0.00000E+00  9.000E+00
      25     1     1     2     0     0 -2.891662285E+01 -6.791611266E+00  3.456951409E+02  3.687986273E+02  1.250000000E+02  0.00000E+00  9.000E+00
      25     1     1     2     0     0  4.305950911E+01 -1.070538400E+00 -2.013838780E+02  2.409060682E+02  1.250000000E+02  0.00000E+00  9.000E+00
      21     1     1     2   511   502 -1.414288625E+01  7.862149665E+00  4.913038862E+01  5.172648949E+01  0.000000000E+00  0.00000E+00  9.000E+00
#rwgt            1           1   3.0994918170998548E-002          10      312976           0
</event>
<event>
      5   9999  3.19816E-02  3.77202E+01 -1.00000E+00  1.46439E-01
      21    -1     0     0   502   501  0.000000000E+00  0.000000000E+00  9.008822690E+02  9.008822690E+02  0.000000000E+00  0.00000E+00  9.000E+00
      21    -1     0     0   501   512  0.000000000E+00  0.000000000E+00 -6.150835442E+02  6.150835442E+02  0.000000000E+00  0.00000E+00  9.000E+00
      25     1     1     2     0     0  2.039574084E+02  1.994302707E+02 -3.359645822E+02  4.581138044E+02  1.250000000E+02  0.00000E+00  9.000E+00
      25     1     1     2     0     0 -2.061285769E+02 -1.617725904E+02  8.128180768E+02  8.631092556E+02  1.250000000E+02  0.00000E+00  9.000E+00
      21     1     1     2   502   512  2.171168508E+00 -3.765768034E+01 -1.910547698E+02  1.947427532E+02  0.000000000E+00  0.00000E+00  9.000E+00
#rwgt            1           1   3.3980946294574627E-002          10      313148           0
</event>
<event>
      5   9999  3.19816E-02  8.69639E+01 -1.00000E+00  1.26619E-01
      21    -1     0     0   502   511  0.000000000E+00  0.000000000E+00  5.183305495E+02  5.183305495E+02  0.000000000E+00  0.00000E+00  9.000E+00
      21    -1     0     0   501   502  0.000000000E+00  0.000000000E+00 -7.270703709E+02  7.270703709E+02  0.000000000E+00  0.00000E+00  9.000E+00
      25     1     1     2     0     0  1.555705872E+02  9.153693468E+01  4.206143575E+02  4.744709219E+02  1.250000000E+02  0.00000E+00  9.000E+00
      25     1     1     2     0     0 -2.005534901E+02 -1.711076521E+01 -6.408138059E+02  6.832143255E+02  1.250000000E+02  0.00000E+00  9.000E+00
      21     1     1     2   501   511  4.498290292E+01 -7.442616947E+01  1.145962708E+01  8.771567312E+01  9.973764736E-07  0.00000E+00  9.000E+00
#rwgt            1           1   2.9234805075421397E-002          10      313271           0
</event>
<event>
      5   9999  3.19816E-02  4.04313E+00 -1.00000E+00  2.62378E-01
      21    -1     0     0   512   501  0.000000000E+00  0.000000000E+00  2.123629765E+02  2.123629765E+02  0.000000000E+00  0.00000E+00  9.000E+00
      21    -1     0     0   501   502  0.000000000E+00  0.000000000E+00 -2.154270806E+02  2.154270806E+02  0.000000000E+00  0.00000E+00  9.000E+00
      25     1     1     2     0     0 -5.592297887E+01 -1.485110962E+02 -3.212398335E+00  2.020352562E+02  1.250000000E+02  0.00000E+00  9.000E+00
      25     1     1     2     0     0  5.482794644E+01  1.446190747E+02 -2.487143095E+01  2.004105001E+02  1.250000000E+02  0.00000E+00  9.000E+00
      21     1     1     2   512   502  1.095032435E+00  3.892021473E+00  2.501972519E+01  2.534430066E+01  3.371747881E-07  0.00000E+00  9.000E+00
#rwgt            1           1   2.9048862580861638E-002          10      313382           0
</event>
<event>
      5   9999  3.19816E-02  6.12336E+00 -1.00000E+00  2.24108E-01
      21    -1     0     0   502   501  0.000000000E+00  0.000000000E+00  2.178855604E+02  2.178855604E+02  0.000000000E+00  0.00000E+00  9.000E+00
       1    -1     0     0   501     0  0.000000000E+00  0.000000000E+00 -3.186143306E+03  3.186143306E+03  0.000000000E+00  0.00000E+00  9.000E+00
      25     1     1     2     0     0  3.805391038E+02 -4.397739081E+02 -1.416174290E+03  1.536029206E+03  1.250000000E+02  0.00000E+00  9.000E+00
      25     1     1     2     0     0 -3.744874227E+02  4.388397476E+02 -3.935633283E+02  7.094633516E+02  1.250000000E+02  0.00000E+00  9.000E+00
       1     1     1     2   502     0 -6.051681121E+00  9.341604606E-01 -1.158520127E+03  1.158536309E+03  1.525878906E-05  0.00000E+00  9.000E+00
#rwgt            1           1   3.2142766138624976E-002          10      313724           0
</event>
<event>
      5   9999  3.19816E-02  4.62971E+01 -1.00000E+00  1.41009E-01
      21    -1     0     0   502   501  0.000000000E+00  0.000000000E+00  6.914029616E+02  6.914029616E+02  0.000000000E+00  0.00000E+00  9.000E+00
      21    -1     0     0   511   502  0.000000000E+00  0.000000000E+00 -4.901572255E+02  4.901572255E+02  0.000000000E+00  0.00000E+00  9.000E+00
      25     1     1     2     0     0  3.558825866E+02 -2.278925257E+02 -2.427365308E+02  5.031236848E+02  1.250000000E+02  0.00000E+00  9.000E+00
      25     1     1     2     0     0 -3.755251356E+02  1.859688968E+02  4.547612051E+02  6.309011902E+02  1.250000000E+02  0.00000E+00  9.000E+00
      21     1     1     2   511   501  1.964254899E+01  4.192362892E+01 -1.077893826E+01  4.753531217E+01  9.078709013E-07  0.00000E+00  9.000E+00
#rwgt            1           1   3.0791177716117741E-002          10      314251           0
</event>
<event>
      5   9999  3.19816E-02  4.23211E+01 -1.00000E+00  1.43337E-01
      21    -1     0     0   502   501  0.000000000E+00  0.000000000E+00  1.977706795E+02  1.977706795E+02  0.000000000E+00  0.00000E+00  9.000E+00
      21    -1     0     0   501   512  0.000000000E+00  0.000000000E+00 -3.996280686E+02  3.996280686E+02  0.000000000E+00  0.00000E+00  9.000E+00
      25     1     1     2     0     0  9.243613737E+01  1.896037910E+02 -1.944796724E+02  3.129558756E+02  1.250000000E+02  0.00000E+00  9.000E+00
      25     1     1     2     0     0 -1.198341613E+02 -1.573482359E+02  1.872103508E+01  2.347214748E+02  1.250000000E+02  0.00000E+00  9.000E+00
      21     1     1     2   502   512  2.739802395E+01 -3.225555513E+01 -2.609875180E+01  4.972139779E+01  0.000000000E+00  0.00000E+00  9.000E+00
#rwgt            1           1   2.6393025694519911E-002          10      314367           0
</event>
<event>
      5   9999  3.19816E-02  1.48253E+02 -1.00000E+00  1.16596E-01
      21    -1     0     0   511   501  0.000000000E+00  0.000000000E+00  4.148768945E+02  4.148768945E+02  0.000000000E+00  0.00000E+00  9.000E+00
      21    -1     0     0   501   502  0.000000000E+00  0.000000000E+00 -4.777789850E+02  4.777789850E+02  0.000000000E+00  0.00000E+00  9.000E+00
      25     1     1     2     0     0 -1.062562262E+02  1.316819825E+02 -2.791493068E+02  3.495423659E+02  1.250000000E+02  0.00000E+00  9.000E+00
      25     1     1     2     0     0  2.425308952E+02 -1.900608678E+02  8.055578467E+01  3.421382806E+02  1.250000000E+02  0.00000E+00  9.000E+00
      21     1     1     2   511   502 -1.362746690E+02  5.837888529E+01  1.356914316E+02  2.009752330E+02  3.303624740E-06  0.00000E+00  9.000E+00
#rwgt            1           1   2.5385568595602800E-002          10      314451           0
</event>
<event>
      5   9999  3.19816E-02  7.65762E+01 -1.00000E+00  1.29276E-01
      21    -1     0     0   502   501  0.000000000E+00  0.000000000E+00  1.030573071E+02  1.030573071E+02  0.000000000E+00  0.00000E+00  9.000E+00
      21    -1     0     0   501   512  0.000000000E+00  0.000000000E+00 -5.270726924E+02  5.270726924E+02  0.000000000E+00  0.00000E+00  9.000E+00
      25     1     1     2     0     0 -8.200184173E+01  6.927685125E+01 -1.094414009E+02  1.978029433E+02  1.250000000E+02  0.00000E+00  9.000E+00
      25     1     1     2     0     0  1.102441547E+02 -1.404546564E+02 -2.095752670E+02  3.023707603E+02  1.250000000E+02  0.00000E+00  9.000E+00
      21     1     1     2   502   512 -2.824231297E+01  7.117780515E+01 -1.049987174E+02  1.299562959E+02  1.907348633E-06  0.00000E+00  9.000E+00
#rwgt            1           1   2.5027832026879943E-002          10      314505           0
</event>
<event>
      5   9999  3.19816E-02  2.74075E+02 -1.00000E+00  1.06883E-01
      21    -1     0     0   511   501  0.000000000E+00  0.000000000E+00  4.994484974E+02  4.994484974E+02  0.000000000E+00  0.00000E+00  9.000E+00
      21    -1     0     0   501   502  0.000000000E+00  0.000000000E+00 -9.022153187E+02  9.022153187E+02  0.000000000E+00  0.00000E+00  9.000E+00
      25     1     1     2     0     0  1.336961861E+02  4.749309935E+02 -1.555526982E+02  5.322177756E+02  1.250000000E+02  0.00000E+00  9.000E+00
      25     1     1     2     0     0 -3.871406279E+02 -3.706092265E+02 -2.247684063E+02  5.944534473E+02  1.250000000E+02  0.00000E+00  9.000E+00
      21     1     1     2   511   502  2.534444418E+02 -1.043217670E+02 -2.244571677E+01  2.749925932E+02  3.568322551E-06  0.00000E+00  9.000E+00
#rwgt            1           1   2.7613224914344515E-002          10      314601           0
</event>
<event>
      5   9999  3.19816E-02  5.31685E+01 -1.00000E+00  1.37570E-01
      21    -1     0     0   502   501  0.000000000E+00  0.000000000E+00  1.010181859E+03  1.010181859E+03  0.000000000E+00  0.00000E+00  9.000E+00
      21    -1     0     0   501   512  0.000000000E+00  0.000000000E+00 -9.658405832E+02  9.658405832E+02  0.000000000E+00  0.00000E+00  9.000E+00
      25     1     1     2     0     0  1.096113739E+02 -4.916613331E+02 -2.033400854E+02  5.574205863E+02  1.250000000E+02  0.00000E+00  9.000E+00
      25     1     1     2     0     0 -8.937868806E+01  4.424929222E+02  7.658343653E+02  8.977281388E+02  1.250000000E+02  0.00000E+00  9.000E+00
      21     1     1     2   502   512 -2.023268580E+01  4.916841090E+01 -5.181530038E+02  5.208737174E+02  7.629394531E-06  0.00000E+00  9.000E+00
#rwgt            1           1   2.2764245273164584E-002          10      314684           0
</event>
<event>
      5   9999  3.19816E-02  3.54367E+01 -1.00000E+00  1.48180E-01
       2    -1     0     0   502     0  0.000000000E+00  0.000000000E+00  2.374907709E+03  2.374907709E+03  0.000000000E+00  0.00000E+00  9.000E+00
      21    -1     0     0   501   502  0.000000000E+00  0.000000000E+00 -1.527751869E+03  1.527751869E+03  0.000000000E+00  0.00000E+00  9.000E+00
      25     1     1     2     0     0  1.082504086E+03  5.716963357E+01 -1.591652220E+02  1.102742958E+03  1.250000000E+02  0.00000E+00  9.000E+00
      25     1     1     2     0     0 -1.110581997E+03 -3.555040317E+01 -5.479768666E+02  1.245214780E+03  1.250000000E+02  0.00000E+00  9.000E+00
       2     1     1     2   501     0  2.807791027E+01 -2.161923040E+01  1.554297929E+03  1.554701840E+03  0.000000000E+00  0.00000E+00  9.000E+00
#rwgt            1           1   2.4282665021563617E-002          10      314761           0
</event>
<event>
      5   9999  3.19816E-02  7.87260E+01 -1.00000E+00  1.28688E-01
      21    -1     0     0   502   511  0.000000000E+00  0.000000000E+00  5.239203062E+02  5.239203062E+02  0.000000000E+00  0.00000E+00  9.000E+00
      21    -1     0     0   501   502  0.000000000E+00  0.000000000E+00 -1.114022911E+03  1.114022911E+03  0.000000000E+00  0.00000E+00  9.000E+00
      25     1     1     2     0     0  1.108220876E+02 -5.308813165E+02 -7.671240346E+02  9.477451091E+02  1.250000000E+02  0.00000E+00  9.000E+00
      25     1     1     2     0     0 -1.894768878E+02  5.342277875E+02  1.892555585E+02  6.105272200E+02  1.250000000E+02  0.00000E+00  9.000E+00
      21     1     1     2   501   511  7.865480013E+01 -3.346471001E+00 -1.223412817E+01  7.967088767E+01  8.596304120E-07  0.00000E+00  9.000E+00
#rwgt            1           1   3.1188247752369561E-002          10      314887           0
</event>
<event>
      5   9999  3.19816E-02  2.61101E+01 -1.00000E+00  1.57350E-01
      21    -1     0     0   512   501  0.000000000E+00  0.000000000E+00  2.681847102E+02  2.681847102E+02  0.000000000E+00  0.00000E+00  9.000E+00
      21    -1     0     0   501   502  0.000000000E+00  0.000000000E+00 -1.462005139E+03  1.462005139E+03  0.000000000E+00  0.00000E+00  9.000E+00
      25     1     1     2     0     0  2.411102316E+02 -4.902986343E+02 -2.256423530E+02  6.042072211E+02  1.250000000E+02  0.00000E+00  9.000E+00
      25     1     1     2     0     0 -2.516157296E+02  4.663951997E+02 -9.469785485E+02  1.092349911E+03  1.250000000E+02  0.00000E+00  9.000E+00
      21     1     1     2   512   502  1.050549792E+01  2.390343453E+01 -2.119952733E+01  3.363271663E+01  4.768371582E-07  0.00000E+00  9.000E+00
#rwgt            1           1   2.8781794128913418E-002          10      315025           0
</event>
<event>
      5   9999  3.19816E-02  1.94561E+02 -1.00000E+00  1.12086E-01
       2    -1     0     0   502     0  0.000000000E+00  0.000000000E+00  1.578675122E+03  1.578675122E+03  0.000000000E+00  0.00000E+00  9.000E+00
      21    -1     0     0   501   502  0.000000000E+00  0.000000000E+00 -1.244489742E+03  1.244489742E+03  0.000000000E+00  0.00000E+00  9.000E+00
      25     1     1     2     0     0  6.598868699E+02 -5.721966870E+02 -3.962039859E+02  9.671930149E+02  1.250000000E+02  0.00000E+00  9.000E+00
      25     1     1     2     0     0 -4.844752544E+02  6.563673811E+02 -2.453528769E+02  8.610211642E+02  1.250000000E+02  0.00000E+00  9.000E+00
       2     1     1     2   501     0 -1.754116155E+02 -8.417069407E+01  9.757422433E+02  9.949506852E+02  1.078959322E-05  0.00000E+00  9.000E+00
#rwgt            1           1   3.0209746569570844E-002          10      315241           0
</event>
<event>
      5   9999  3.19816E-02  8.08959E+01 -1.00000E+00  1.28116E-01
      21    -1     0     0   511   501  0.000000000E+00  0.000000000E+00  1.414801097E+03  1.414801097E+03  0.000000000E+00  0.00000E+00  9.000E+00
      21    -1     0     0   501   502  0.000000000E+00  0.000000000E+00 -4.673142636E+02  4.673142636E+02  0.000000000E+00  0.00000E+00  9.000E+00
      25     1     1     2     0     0 -2.836404095E+02 -5.741177532E+01 -9.837810476E+01  3.302290801E+02  1.250000000E+02  0.00000E+00  9.000E+00
      25     1     1     2     0     0  3.629929787E+02  4.168550290E+01 -1.034040953E+02  3.997736743E+02  1.250000000E+02  0.00000E+00  9.000E+00
      21     1     1     2   511   502 -7.935256915E+01  1.572627242E+01  1.149269034E+03  1.152112606E+03  1.525878906E-05  0.00000E+00  9.000E+00
#rwgt            1           1   2.8753871591594177E-002          10      315282           0
</event>
<event>
      5   9999  3.19816E-02  9.28717E+01 -1.00000E+00  1.25290E-01
      21    -1     0     0   502   501  0.000000000E+00  0.000000000E+00  5.266888540E+02  5.266888540E+02  0.000000000E+00  0.00000E+00  9.000E+00
       1    -1     0     0   501     0  0.000000000E+00  0.000000000E+00 -1.863266627E+03  1.863266627E+03  0.000000000E+00  0.00000E+00  9.000E+00
      25     1     1     2     0     0  4.051151499E+02  1.459927966E+02  3.050264919E+02  5.423083459E+02  1.250000000E+02  0.00000E+00  9.000E+00
      25     1     1     2     0     0 -4.524015682E+02 -6.606063183E+01 -4.537225941E+02  6.561405173E+02  1.250000000E+02  0.00000E+00  9.000E+00
       1     1     1     2   502     0  4.728641835E+01 -7.993216475E+01 -1.187881670E+03  1.191506617E+03  0.000000000E+00  0.00000E+00  9.000E+00
#rwgt            1           1   3.0302422224211097E-002          10      315352           0
</event>
<event>
      5   9999  3.19816E-02  4.94174E+01 -1.00000E+00  1.39367E-01
      21    -1     0     0   511   501  0.000000000E+00  0.000000000E+00  2.625284115E+02  2.625284115E+02  0.000000000E+00  0.00000E+00  9.000E+00
      21    -1     0     0   501   502  0.000000000E+00  0.000000000E+00 -1.790931869E+03  1.790931869E+03  0.000000000E+00  0.00000E+00  9.000E+00
      25     1     1     2     0     0 -4.908077514E+02  1.167936697E+01 -1.428779222E+03  1.515936582E+03  1.250000000E+02  0.00000E+00  9.000E+00
      25     1     1     2     0     0  4.543515252E+02  2.168262363E+01 -6.279613054E+01  4.758926335E+02  1.250000000E+02  0.00000E+00  9.000E+00
      21     1     1     2   511   502  3.645622621E+01 -3.336199060E+01 -3.682810550E+01  6.163106523E+01  4.768371582E-07  0.00000E+00  9.000E+00
#rwgt            1           1   2.5939108912058136E-002          10      315459           0
</event>
<event>
      5   9999  3.19816E-02  8.45837E+01 -1.00000E+00  1.27189E-01
      21    -1     0     0   512   501  0.000000000E+00  0.000000000E+00  2.774442587E+02  2.774442587E+02  0.000000000E+00  0.00000E+00  9.000E+00
      21    -1     0     0   501   502  0.000000000E+00  0.000000000E+00 -2.330895732E+02  2.330895732E+02  0.000000000E+00  0.00000E+00  9.000E+00
      25     1     1     2     0     0 -1.350415520E+02 -1.132112216E+02  2.379161924E+00  2.160640226E+02  1.250000000E+02  0.00000E+00  9.000E+00
      25     1     1     2     0     0  5.221693642E+01  1.303716826E+02 -2.076811069E+01  1.891552233E+02  1.250000000E+02  0.00000E+00  9.000E+00
      21     1     1     2   512   502  8.282461560E+01 -1.716046101E+01  6.274363427E+01  1.053145859E+02  1.168007728E-06  0.00000E+00  9.000E+00
#rwgt            1           1   2.8930689573492051E-002          10      315575           0
</event>
<event>
      5   9999  3.19816E-02  4.58795E+01 -1.00000E+00  1.41241E-01
      21    -1     0     0   502   511  0.000000000E+00  0.000000000E+00  2.435141217E+02  2.435141217E+02  0.000000000E+00  0.00000E+00  9.000E+00
      21    -1     0     0   501   502  0.000000000E+00  0.000000000E+00 -1.066645638E+03  1.066645638E+03  0.000000000E+00  0.00000E+00  9.000E+00
      25     1     1     2     0     0  1.736395778E+02  8.151883194E+01 -1.033044056E+02  2.511828480E+02  1.250000000E+02  0.00000E+00  9.000E+00
      25     1     1     2     0     0 -1.869138489E+02 -3.760157341E+01 -8.713392314E+02  9.006707065E+02  1.250000000E+02  0.00000E+00  9.000E+00
      21     1     1     2   501   511  1.327427112E+01 -4.391725853E+01  1.515121207E+02  1.583062052E+02  4.264961200E-06  0.00000E+00  9.000E+00
#rwgt            1           1   2.9993748401685921E-002          10      315621           0
</event>
<event>
      5   9999  3.19816E-02  3.52595E+01 -1.00000E+00  1.48322E-01
      21    -1     0     0   502   501  0.000000000E+00  0.000000000E+00  1.014984635E+03  1.014984635E+03  0.000000000E+00  0.00000E+00  9.000E+00
      21    -1     0     0   512   502  0.000000000E+00  0.000000000E+00 -1.001771505E+02  1.001771505E+02  0.000000000E+00  0.00000E+00  9.000E+00
      25     1     1     2     0     0  1.378947977E+02 -2.315734086E+00  3.985205338E+02  4.398453748E+02  1.250000000E+02  0.00000E+00  9.000E+00
      25     1     1     2     0     0 -1.707843444E+02  1.502428962E+01  5.716069392E+02  6.097151093E+02  1.250000000E+02  0.00000E+00  9.000E+00
      21     1     1     2   512   501  3.288954667E+01 -1.270855554E+01 -5.531998831E+01  6.560130159E+01  2.780414531E-06  0.00000E+00  9.000E+00
#rwgt            1           1   1.8610395300557993E-002          10      315709           0
</event>
<event>
      5   9999  3.19816E-02  2.37503E+02 -1.00000E+00  1.08997E-01
      21    -1     0     0   502   501  0.000000000E+00  0.000000000E+00  6.364666252E+01  6.364666252E+01  0.000000000E+00  0.00000E+00  9.000E+00
      21    -1     0     0   501   511  0.000000000E+00  0.000000000E+00 -2.873255139E+03  2.873255139E+03  0.000000000E+00  0.00000E+00  9.000E+00
      25     1     1     2     0     0 -1.812400194E+02 -2.696167568E+02 -1.093700934E+03  1.147757759E+03  1.250000000E+02  0.00000E+00  9.000E+00
      25     1     1     2     0     0  1.190412177E+02  4.040260632E+01 -2.643895433E+02  3.183237546E+02  1.250000000E+02  0.00000E+00  9.000E+00
      21     1     1     2   502   511  6.219880169E+01  2.292141505E+02 -1.451517998E+03  1.470820287E+03  0.000000000E+00  0.00000E+00  9.000E+00
#rwgt            1           1   2.8781418532060721E-002          10      315775           0
</event>
<event>
      5   9999  3.21695E-02  4.38051E+01 -1.00000E+00  1.42434E-01
      21    -1     0     0   512   501  0.000000000E+00  0.000000000E+00  1.782987717E+03  1.782987717E+03  0.000000000E+00  0.00000E+00  9.000E+00
      21    -1     0     0   501   502  0.000000000E+00  0.000000000E+00 -1.092657890E+03  1.092657890E+03  0.000000000E+00  0.00000E+00  9.000E+00
      25     1     1     2     0     0 -6.600653175E+02  8.050963345E+02  6.989859975E+02  1.260187588E+03  1.250000000E+02  0.00000E+00  9.000E+00
      25     1     1     2     0     0  6.301278714E+02 -8.370749784E+02 -4.678085850E+02  1.154220744E+03  1.250000000E+02  0.00000E+00  9.000E+00
      21     1     1     2   512   502  2.993744616E+01  3.197864387E+01  4.591524146E+02  4.612372753E+02  0.000000000E+00  0.00000E+00  9.000E+00
#rwgt            1           1   7.5112767440293562E-002          10      315811           0
</event>
<event>
      5   9999  3.19816E-02  5.99198E+01 -1.00000E+00  1.34734E-01
      21    -1     0     0   511   501  0.000000000E+00  0.000000000E+00  6.698089290E+02  6.698089290E+02  0.000000000E+00  0.00000E+00  9.000E+00
      21    -1     0     0   501   502  0.000000000E+00  0.000000000E+00 -1.857112605E+02  1.857112605E+02  0.000000000E+00  0.00000E+00  9.000E+00
      25     1     1     2     0     0  2.636295917E+02  5.378022009E+01  1.967896126E+02  3.560112713E+02  1.250000000E+02  0.00000E+00  9.000E+00
      25     1     1     2     0     0 -3.073487045E+02 -9.475613267E+01  2.192147814E+02  4.088056644E+02  1.250000000E+02  0.00000E+00  9.000E+00
      21     1     1     2   511   502  4.371911279E+01  4.097591258E+01  6.809327452E+01  9.070325391E+01  1.348699152E-06  0.00000E+00  9.000E+00
#rwgt            1           1   2.9541647436398401E-002          10      315971           0
</event>
<event>
      5   9999  3.19816E-02  1.26823E+02 -1.00000E+00  1.19358E-01
      21    -1     0     0   512   501  0.000000000E+00  0.000000000E+00  4.501713007E+02  4.501713007E+02  0.000000000E+00  0.00000E+00  9.000E+00
      21    -1     0     0   501   502  0.000000000E+00  0.000000000E+00 -2.291528757E+02  2.291528757E+02  0.000000000E+00  0.00000E+00  9.000E+00
      25     1     1     2     0     0 -2.070403940E+01  4.008246081E+01 -1.452105403E+02  1.968409559E+02  1.250000000E+02  0.00000E+00  9.000E+00
      25     1     1     2     0     0  1.103881467E+02  4.958882294E+01  1.407553412E+02  2.237893214E+02  1.250000000E+02  0.00000E+00  9.000E+00
      21     1     1     2   512   502 -8.968410732E+01 -8.967128376E+01  2.254736241E+02  2.586938991E+02  2.697398305E-06  0.00000E+00  9.000E+00
#rwgt            1           1   2.8077551755531848E-002          10      316065           0
</event>
<event>
      5   9999  3.19816E-02  1.86288E+01 -1.00000E+00  1.68955E-01
      21    -1     0     0   511   501  0.000000000E+00  0.000000000E+00  1.548761319E+02  1.548761319E+02  0.000000000E+00  0.00000E+00  9.000E+00
      21    -1     0     0   501   502  0.000000000E+00  0.000000000E+00 -5.304839612E+02  5.304839612E+02  0.000000000E+00  0.00000E+00  9.000E+00
      25     1     1     2     0     0  1.463855784E+02  1.861304238E+02 -2.065892923E+02  3.381972914E+02  1.250000000E+02  0.00000E+00  9.000E+00
      25     1     1     2     0     0 -1.617750139E+02 -1.966278335E+02 -1.648389527E+02  3.280709380E+02  1.250000000E+02  0.00000E+00  9.000E+00
      21     1     1     2   511   502  1.538943547E+01  1.049740971E+01 -4.179584284E+00  1.909186370E+01  3.318646170E-07  0.00000E+00  9.000E+00
#rwgt            1           1   2.7229764594599519E-002          10      316125           0
</event>
<event>
      5   9999  3.19816E-02  1.05622E+02 -1.00000E+00  1.22769E-01
      21    -1     0     0   502   512  0.000000000E+00  0.000000000E+00  9.459535203E+02  9.459535203E+02  0.000000000E+00  0.00000E+00  9.000E+00
      21    -1     0     0   501   502  0.000000000E+00  0.000000000E+00 -8.332401233E+02  8.332401233E+02  0.000000000E+00  0.00000E+00  9.000E+00
      25     1     1     2     0     0  1.363775606E+02  1.415065165E+02 -8.310715024E+01  2.472948274E+02  1.250000000E+02  0.00000E+00  9.000E+00
      25     1     1     2     0     0 -2.192120360E+02 -7.597444572E+01 -6.385891294E+02  6.908307386E+02  1.250000000E+02  0.00000E+00  9.000E+00
      21     1     1     2   501   512  8.283447547E+01 -6.553207079E+01  8.344096767E+02  8.410680776E+02  1.525878906E-05  0.00000E+00  9.000E+00
#rwgt            1           1   2.7037208402750274E-002          10      316290           0
</event>
<event>
      5   9999  3.19816E-02  2.91865E+02 -1.00000E+00  1.05981E-01
      21    -1     0     0   502   511  0.000000000E+00  0.000000000E+00  6.803485325E+02  6.803485325E+02  0.000000000E+00  0.00000E+00  9.000E+00
      21    -1     0     0   501   502  0.000000000E+00  0.000000000E+00 -3.059548437E+02  3.059548437E+02  0.000000000E+00  0.00000E+00  9.000E+00
      25     1     1     2     0     0  1.898335367E+02  2.189483400E+02  9.704770102E+01  3.301793505E+02  1.250000000E+02  0.00000E+00  9.000E+00
      25     1     1     2     0     0  5.354018994E+01 -5.784545674E+01 -1.004767567E+02  1.786987058E+02  1.250000000E+02  0.00000E+00  9.000E+00
      21     1     1     2   501   511 -2.433737266E+02 -1.611028833E+02  3.778227445E+02  4.774253199E+02  5.394796609E-06  0.00000E+00  9.000E+00
#rwgt            2          11   3.4772563548727815E-003          10      316385           0
</event>
<event>
      5   9999  3.19816E-02  1.90425E+01 -1.00000E+00  1.68146E-01
      21    -1     0     0   512   501  0.000000000E+00  0.000000000E+00  1.837776319E+02  1.837776319E+02  0.000000000E+00  0.00000E+00  9.000E+00
      21    -1     0     0   501   502  0.000000000E+00  0.000000000E+00 -1.678602173E+02  1.678602173E+02  0.000000000E+00  0.00000E+00  9.000E+00
      25     1     1     2     0     0  9.401776295E+01 -6.450979334E+01  2.432184142E+01  1.709309953E+02  1.250000000E+02  0.00000E+00  9.000E+00
      25     1     1     2     0     0 -7.497753092E+01  6.480666806E+01 -1.575287497E+01  1.602956251E+02  1.250000000E+02  0.00000E+00  9.000E+00
      21     1     1     2   512   502 -1.904023203E+01 -2.968747169E-01  7.348448066E+00  2.041122876E+01  2.665600750E-07  0.00000E+00  9.000E+00
#rwgt            1           1   3.3501212274829932E-002          10      316420           0
</event>
<event>
      5   9999  3.19816E-02  1.46283E+01 -1.00000E+00  1.78416E-01
      21    -1     0     0   511   501  0.000000000E+00  0.000000000E+00  4.801762638E+02  4.801762638E+02  0.000000000E+00  0.00000E+00  9.000E+00
      21    -1     0     0   501   502  0.000000000E+00  0.000000000E+00 -2.934136421E+02  2.934136421E+02  0.000000000E+00  0.00000E+00  9.000E+00
      25     1     1     2     0     0 -3.088064459E+02 -1.351068584E+02  5.300127153E+01  3.633860468E+02  1.250000000E+02  0.00000E+00  9.000E+00
      25     1     1     2     0     0  3.228521488E+02  1.391941308E+02  1.280488816E+02  3.944997239E+02  1.250000000E+02  0.00000E+00  9.000E+00
      21     1     1     2   511   502 -1.404570294E+01 -4.087272420E+00  5.712468515E+00  1.570413523E+01  2.528810911E-07  0.00000E+00  9.000E+00
#rwgt            1           1   2.9466445133656712E-002          10      316548           0
</event>
<event>
      5   9999  3.19816E-02  8.72933E+01 -1.00000E+00  1.26542E-01
       1    -1     0     0   502     0  0.000000000E+00  0.000000000E+00  7.720103400E+02  7.720103400E+02  0.000000000E+00  0.00000E+00  9.000E+00
      21    -1     0     0   501   502  0.000000000E+00  0.000000000E+00 -1.892151034E+02  1.892151034E+02  0.000000000E+00  0.00000E+00  9.000E+00
      25     1     1     2     0     0 -4.541915924E+01 -1.683883837E+02  5.321901060E+02  5.738195333E+02  1.250000000E+02  0.00000E+00  9.000E+00
      25     1     1     2     0     0 -1.172715041E+01  2.343763763E+02 -3.127875389E+01  2.677184571E+02  1.250000000E+02  0.00000E+00  9.000E+00
       1     1     1     2   501     0  5.714630965E+01 -6.598799262E+01  8.188388450E+01  1.196874530E+02  2.132480600E-06  0.00000E+00  9.000E+00
#rwgt            1           1   2.8377379820651971E-002          10      316726           0
</event>
<event>
      5   9999  3.19816E-02  7.23386E+01 -1.00000E+00  1.30502E-01
      21    -1     0     0   511   501  0.000000000E+00  0.000000000E+00  7.630731482E+02  7.630731482E+02  0.000000000E+00  0.00000E+00  9.000E+00
      21    -1     0     0   501   502  0.000000000E+00  0.000000000E+00 -1.121009711E+02  1.121009711E+02  0.000000000E+00  0.00000E+00  9.000E+00
      25     1     1     2     0     0 -1.690599977E+01  2.155229014E+02  3.373809836E+02  4.197461875E+02  1.250000000E+02  0.00000E+00  9.000E+00
      25     1     1     2     0     0 -3.899158758E+01 -1.696063932E+02  1.131038856E+02  2.422894167E+02  1.250000000E+02  0.00000E+00  9.000E+00
      21     1     1     2   511   502  5.589758735E+01 -4.591650827E+01  2.004873079E+02  2.131385152E+02  4.672030912E-06  0.00000E+00  9.000E+00
#rwgt            1           1   2.7198692965235610E-002          10      316852           0
</event>
<event>
      5   9999  3.19816E-02  6.41874E+01 -1.00000E+00  1.33156E-01
      21    -1     0     0   502   501  0.000000000E+00  0.000000000E+00  7.970373585E+02  7.970373585E+02  0.000000000E+00  0.00000E+00  9.000E+00
      21    -1     0     0   501   512  0.000000000E+00  0.000000000E+00 -5.815169477E+02  5.815169477E+02  0.000000000E+00  0.00000E+00  9.000E+00
      25     1     1     2     0     0 -6.219547960E+02  1.989562728E+02  1.853625670E+02  6.902142044E+02  1.250000000E+02  0.00000E+00  9.000E+00
      25     1     1     2     0     0  5.656303610E+02 -2.297389790E+02  2.121250152E+01  6.235324161E+02  1.250000000E+02  0.00000E+00  9.000E+00
      21     1     1     2   502   512  5.632443501E+01  3.078270621E+01  8.945342233E+00  6.480768572E+01  1.186117455E-06  0.00000E+00  9.000E+00
#rwgt            2          11   6.8505550400855203E-003          10      317023           0
</event>
<event>
      5   9999  3.19816E-02  2.79383E+02 -1.00000E+00  1.06607E-01
      21    -1     0     0   511   501  0.000000000E+00  0.000000000E+00  2.824555205E+03  2.824555205E+03  0.000000000E+00  0.00000E+00  9.000E+00
      21    -1     0     0   501   502  0.000000000E+00  0.000000000E+00 -9.862742193E+01  9.862742193E+01  0.000000000E+00  0.00000E+00  9.000E+00
      25     1     1     2     0     0 -1.089645748E+01  2.068183528E+02  1.264435734E+02  2.729570316E+02  1.250000000E+02  0.00000E+00  9.000E+00
      25     1     1     2     0     0 -1.771668601E+02 -2.100392987E-01  7.864677926E+02  8.158092480E+02  1.250000000E+02  0.00000E+00  9.000E+00
      21     1     1     2   511   502  1.880633176E+02 -2.066083135E+02  1.813016417E+03  1.834416347E+03  0.000000000E+00  0.00000E+00  9.000E+00
#rwgt            1           1   2.9429581162115644E-002          10      317058           0
</event>
<event>
      5   9999  3.19816E-02  2.16053E+02 -1.00000E+00  1.10441E-01
       2    -1     0     0   502     0  0.000000000E+00  0.000000000E+00  4.093848462E+03  4.093848462E+03  0.000000000E+00  0.00000E+00  9.000E+00
      21    -1     0     0   501   502  0.000000000E+00  0.000000000E+00 -4.189838861E+02  4.189838861E+02  0.000000000E+00  0.00000E+00  9.000E+00
      25     1     1     2     0     0  2.451870113E+02 -5.113143503E+02  5.144502026E+02  7.757854383E+02  1.250000000E+02  0.00000E+00  9.000E+00
      25     1     1     2     0     0 -2.771542534E+02  2.976395317E+02 -1.258430716E+02  4.436949963E+02  1.250000000E+02  0.00000E+00  9.000E+00
       2     1     1     2   501     0  3.196724213E+01  2.136748186E+02  3.286257445E+03  3.293351913E+03  6.103515625E-05  0.00000E+00  9.000E+00
#rwgt            2          18   1.5025749726453406E-003          10      317206           0
</event>
<event>
      5   9999  3.19816E-02  2.18888E+02 -1.00000E+00  1.10240E-01
      21    -1     0     0   502   501  0.000000000E+00  0.000000000E+00  2.025393004E+02  2.025393004E+02  0.000000000E+00  0.00000E+00  9.000E+00
      21    -1     0     0   501   511  0.000000000E+00  0.000000000E+00 -2.235439729E+03  2.235439729E+03  0.000000000E+00  0.00000E+00  9.000E+00
      25     1     1     2     0     0 -1.767244181E+02 -3.974711004E+02 -6.305355073E+02  7.761538646E+02  1.250000000E+02  0.00000E+00  9.000E+00
      25     1     1     2     0     0  1.986506359E+02  6.152577619E+02 -9.126204499E+02  1.125391165E+03  1.250000000E+02  0.00000E+00  9.000E+00
      21     1     1     2   502   511 -2.192621777E+01 -2.177866615E+02 -4.897444718E+02  5.364340002E+02  5.394796609E-06  0.00000E+00  9.000E+00
#rwgt            1           1   3.7620630866903426E-002          10      317225           0
</event>
<event>
      5   9999  3.19816E-02  3.26663E+01 -1.00000E+00  1.50515E-01
      21    -1     0     0   512   501  0.000000000E+00  0.000000000E+00  1.538198932E+03  1.538198932E+03  0.000000000E+00  0.00000E+00  9.000E+00
      21    -1     0     0   501   502  0.000000000E+00  0.000000000E+00 -2.764032617E+02  2.764032617E+02  0.000000000E+00  0.00000E+00  9.000E+00
      25     1     1     2     0     0 -2.486570517E+02 -1.294509405E+01 -1.243181743E+02  3.050867308E+02  1.250000000E+02  0.00000E+00  9.000E+00
      25     1     1     2     0     0  2.188260989E+02 -3.665245519E-01  1.967926641E+02  3.197457561E+02  1.250000000E+02  0.00000E+00  9.000E+00
      21     1     1     2   512   502  2.983095283E+01  1.331161860E+01  1.189321180E+03  1.189769707E+03  1.525878906E-05  0.00000E+00  9.000E+00
#rwgt            1           1   3.0485020874281114E-002          10      317271           0
</event>
<event>
      5   9999  3.19816E-02  9.10987E+01 -1.00000E+00  1.25677E-01
      21    -1     0     0   502   501  0.000000000E+00  0.000000000E+00  7.492638949E+02  7.492638949E+02  0.000000000E+00  0.00000E+00  9.000E+00
      21    -1     0     0   511   502  0.000000000E+00  0.000000000E+00 -9.432455232E+02  9.432455232E+02  0.000000000E+00  0.00000E+00  9.000E+00
      25     1     1     2     0     0 -2.936270689E+02  5.779580331E+01  4.556297516E+02  5.592679867E+02  1.250000000E+02  0.00000E+00  9.000E+00
      25     1     1     2     0     0  2.189593006E+02 -5.606795906E+00  1.728567843E+02  3.057434862E+02  1.250000000E+02  0.00000E+00  9.000E+00
      21     1     1     2   511   501  7.466776824E+01 -5.218900740E+01 -8.224681641E+02  8.274979451E+02  0.000000000E+00  0.00000E+00  9.000E+00
#rwgt            1           1   2.9589650069957299E-002          10      317406           0
</event>
<event>
      5   9999  3.19816E-02  1.29637E+02 -1.00000E+00  1.18961E-01
      21    -1     0     0   502   501  0.000000000E+00  0.000000000E+00  9.732454505E+02  9.732454505E+02  0.000000000E+00  0.00000E+00  9.000E+00
       1    -1     0     0   501     0  0.000000000E+00  0.000000000E+00 -1.197611885E+03  1.197611885E+03  0.000000000E+00  0.00000E+00  9.000E+00
      25     1     1     2     0     0 -7.409833765E+02 -5.387231166E+02  2.421422997E+02  9.557912188E+02  1.250000000E+02  0.00000E+00  9.000E+00
      25     1     1     2     0     0  6.635729481E+02  6.427100073E+02 -2.541096341E+02  9.662307784E+02  1.250000000E+02  0.00000E+00  9.000E+00
       1     1     1     2   502     0  7.741042836E+01 -1.039868907E+02 -2.123990997E+02  2.488353379E+02  2.697398305E-06  0.00000E+00  9.000E+00
#rwgt            1           1   3.1105576021121926E-002          10      317483           0
</event>
<event>
      5   9999  3.19816E-02  4.30276E+01 -1.00000E+00  1.42902E-01
      21    -1     0     0   502   501  0.000000000E+00  0.000000000E+00  1.440979331E+03  1.440979331E+03  0.000000000E+00  0.00000E+00  9.000E+00
      21    -1     0     0   511   502  0.000000000E+00  0.000000000E+00 -1.598007512E+02  1.598007512E+02  0.000000000E+00  0.00000E+00  9.000E+00
      25     1     1     2     0     0  2.205892688E+02 -2.885606456E+02  4.518424377E+02  5.930543485E+02  1.250000000E+02  0.00000E+00  9.000E+00
      25     1     1     2     0     0 -2.613694599E+02  2.748365501E+02  8.644211752E+02  9.522069586E+02  1.250000000E+02  0.00000E+00  9.000E+00
      21     1     1     2   511   501  4.078019110E+01  1.372409550E+01 -3.508503338E+01  5.551877476E+01  1.168007728E-06  0.00000E+00  9.000E+00
#rwgt            1           1   2.8848575972884295E-002          10      317602           0
</event>
<event>
      5   9999  3.19816E-02  6.41176E+01 -1.00000E+00  1.33181E-01
      21    -1     0     0   502   501  0.000000000E+00  0.000000000E+00  6.931566121E+01  6.931566121E+01  0.000000000E+00  0.00000E+00  9.000E+00
      21    -1     0     0   512   502  0.000000000E+00  0.000000000E+00 -1.349065284E+03  1.349065284E+03  0.000000000E+00  0.00000E+00  9.000E+00
      25     1     1     2     0     0  1.621882394E+02  7.300410671E+01 -2.286625008E+02  3.155093721E+02  1.250000000E+02  0.00000E+00  9.000E+00
      25     1     1     2     0     0 -2.262889087E+02 -7.447564129E+01 -8.778500392E+02  9.181497605E+02  1.250000000E+02  0.00000E+00  9.000E+00
      21     1     1     2   512   501  6.410066934E+01  1.471534581E+00 -1.732370829E+02  1.847218128E+02  1.907348633E-06  0.00000E+00  9.000E+00
#rwgt            1           1   2.7955173638996137E-002          10      317758           0
</event>
<event>
      5   9999  3.19816E-02  5.12637E+01 -1.00000E+00  1.38460E-01
      21    -1     0     0   502   501  0.000000000E+00  0.000000000E+00  8.329218694E+02  8.329218694E+02  0.000000000E+00  0.00000E+00  9.000E+00
      21    -1     0     0   501   511  0.000000000E+00  0.000000000E+00 -2.300585909E+02  2.300585909E+02  0.000000000E+00  0.00000E+00  9.000E+00
      25     1     1     2     0     0 -2.337516088E+02 -1.741676500E+02  3.206649556E+01  3.187905975E+02  1.250000000E+02  0.00000E+00  9.000E+00
      25     1     1     2     0     0  2.508198680E+02  1.258288678E+02  6.077631985E+02  6.809879703E+02  1.250000000E+02  0.00000E+00  9.000E+00
      21     1     1     2   502   511 -1.706825926E+01  4.833878220E+01 -3.696641556E+01  6.320189252E+01  1.261592536E-06  0.00000E+00  9.000E+00
#rwgt            1           1   2.8052587055991444E-002          10      317872           0
</event>
<event>
      5   9999  3.19816E-02  3.07776E+01 -1.00000E+00  1.52272E-01
      21    -1     0     0   512   501  0.000000000E+00  0.000000000E+00  1.103564296E+03  1.103564296E+03  0.000000000E+00  0.00000E+00  9.000E+00
      21    -1     0     0   501   502  0.000000000E+00  0.000000000E+00 -8.152246149E+01  8.152246149E+01  0.000000000E+00  0.00000E+00  9.000E+00
      25     1     1     2     0     0 -1.775153616E+02  1.327033576E+02  3.043969791E+02  3.967422407E+02  1.250000000E+02  0.00000E+00  9.000E+00
      25     1     1     2     0     0  2.081560654E+02 -1.298034418E+02  5.206954628E+02  5.890047929E+02  1.250000000E+02  0.00000E+00  9.000E+00
      21     1     1     2   512   502 -3.064070383E+01 -2.899915723E+00  1.969493930E+02  1.993397242E+02  2.697398305E-06  0.00000E+00  9.000E+00
#rwgt            1           1   2.8075223346484851E-002          10      317946           0
</event>
<event>
      5   9999  3.19816E-02  9.40802E+01 -1.00000E+00  1.25032E-01
      21    -1     0     0   502   511  0.000000000E+00  0.000000000E+00  5.873400258E+02  5.873400258E+02  0.000000000E+00  0.00000E+00  9.000E+00
      21    -1     0     0   501   502  0.000000000E+00  0.000000000E+00 -1.530933466E+03  1.530933466E+03  0.000000000E+00  0.00000E+00  9.000E+00
      25     1     1     2     0     0 -7.318972456E+02 -4.180160649E+02 -4.355952285E+01  8.531901551E+02  1.250000000E+02  0.00000E+00  9.000E+00
      25     1     1     2     0     0  6.509482957E+02  3.700748931E+02 -8.910255936E+02  1.170572816E+03  1.250000000E+02  0.00000E+00  9.000E+00
      21     1     1     2   501   511  8.094894995E+01  4.794117180E+01 -9.008323295E+00  9.451051973E+01  1.161908429E-06  0.00000E+00  9.000E+00
#rwgt            1           1   2.8134764569244915E-002          10      318087           0
</event>
<event>
      5   9999  3.19816E-02  7.49776E+01 -1.00000E+00  1.29727E-01
      21    -1     0     0   512   501  0.000000000E+00  0.000000000E+00  1.151794376E+03  1.151794376E+03  0.000000000E+00  0.00000E+00  9.000E+00
      21    -1     0     0   501   502  0.000000000E+00  0.000000000E+00 -2.376678809E+02  2.376678809E+02  0.000000000E+00  0.00000E+00  9.000E+00
      25     1     1     2     0     0  5.760583850E+01 -2.882236966E+02  8.037318397E+02  8.648706274E+02  1.250000000E+02  0.00000E+00  9.000E+00
      25     1     1     2     0     0  5.817774573E+00  3.282123453E+02 -4.297366150E+01  3.538769924E+02  1.250000000E+02  0.00000E+00  9.000E+00
      21     1     1     2   512   502 -6.342361307E+01 -3.998864874E+01  1.533683173E+02  1.707146376E+02  2.697398305E-06  0.00000E+00  9.000E+00
#rwgt            2          11   4.1593690036987666E-003          10      318221           0
</event>
<event>
      5   9999  3.19816E-02  8.48273E+01 -1.00000E+00  1.27130E-01
      21    -1     0     0   502   511  0.000000000E+00  0.000000000E+00  3.640583422E+02  3.640583422E+02  0.000000000E+00  0.00000E+00  9.000E+00
      21    -1     0     0   501   502  0.000000000E+00  0.000000000E+00 -4.664937350E+02  4.664937350E+02  0.000000000E+00  0.00000E+00  9.000E+00
      25     1     1     2     0     0  3.713174803E+02  2.560058122E+01 -1.624118783E+02  4.248937269E+02  1.250000000E+02  0.00000E+00  9.000E+00
      25     1     1     2     0     0 -2.902575775E+02 -6.012448282E-01  5.410787455E+01  3.206282658E+02  1.250000000E+02  0.00000E+00  9.000E+00
      21     1     1     2   501   511 -8.105990284E+01 -2.499933639E+01  5.868611022E+00  8.503008447E+01  6.951036328E-07  0.00000E+00  9.000E+00
#rwgt            1           1   2.9911592574189915E-002          10      318286           0
</event>
<event>
      5   9999  3.19816E-02  4.14483E+01 -1.00000E+00  1.43889E-01
       2    -1     0     0   502     0  0.000000000E+00  0.000000000E+00  1.484787029E+03  1.484787029E+03  0.000000000E+00  0.00000E+00  9.000E+00
      21    -1     0     0   501   502  0.000000000E+00  0.000000000E+00 -9.920062082E+01  9.920062082E+01  0.000000000E+00  0.00000E+00  9.000E+00
      25     1     1     2     0     0  2.359422981E+01  2.575943128E+02  2.044824907E+02  3.526323960E+02  1.250000000E+02  0.00000E+00  9.000E+00
      25     1     1     2     0     0  1.171123437E+01 -2.793080888E+02  1.017484481E+03  1.062567565E+03  1.250000000E+02  0.00000E+00  9.000E+00
       2     1     1     2   501     0 -3.530546418E+01  2.171377596E+01  1.636194366E+02  1.687876888E+02  2.697398305E-06  0.00000E+00  9.000E+00
#rwgt            1           1   3.0102433340756404E-002          10      318351           0
</event>
<event>
      5   9999  3.19816E-02  1.43530E+02 -1.00000E+00  1.17158E-01
      21    -1     0     0   502   501  0.000000000E+00  0.000000000E+00  1.783869173E+02  1.783869173E+02  0.000000000E+00  0.00000E+00  9.000E+00
      21    -1     0     0   501   511  0.000000000E+00  0.000000000E+00 -1.010222488E+03  1.010222488E+03  0.000000000E+00  0.00000E+00  9.000E+00
      25     1     1     2     0     0 -7.961782240E+01 -3.722383697E+02 -4.459820518E+02  5.995209688E+02  1.250000000E+02  0.00000E+00  9.000E+00
      25     1     1     2     0     0  1.327262944E+02  2.388957990E+02 -2.416000251E+02  3.855944036E+02  1.250000000E+02  0.00000E+00  9.000E+00
      21     1     1     2   502   511 -5.310847196E+01  1.333425706E+02 -1.442534936E+02  2.034940327E+02  0.000000000E+00  0.00000E+00  9.000E+00
#rwgt            1           1   2.6170228137006441E-002          10      318453           0
</event>
<event>
      5   9999  3.19816E-02  3.06923E+01 -1.00000E+00  1.52355E-01
      21    -1     0     0   502   501  0.000000000E+00  0.000000000E+00  1.473222413E+03  1.473222413E+03  0.000000000E+00  0.00000E+00  9.000E+00
      21    -1     0     0   501   512  0.000000000E+00  0.000000000E+00 -4.207484285E+02  4.207484285E+02  0.000000000E+00  0.00000E+00  9.000E+00
      25     1     1     2     0     0  8.637722153E+01 -3.190562010E+02  1.197566880E+03  1.248618963E+03  1.250000000E+02  0.00000E+00  9.000E+00
      25     1     1     2     0     0 -9.878804526E+01  2.909851002E+02  1.389385384E+02  3.596669625E+02  1.250000000E+02  0.00000E+00  9.000E+00
      21     1     1     2   502   512  1.241082373E+01  2.807110072E+01 -2.840314341E+02  2.856849153E+02  3.814697266E-06  0.00000E+00  9.000E+00
#rwgt            1           1   2.5787544882926519E-002          10      318534           0
</event>
<event>
      5   9999  3.19816E-02  1.56616E+02 -1.00000E+00  1.15656E-01
      21    -1     0     0   502   501  0.000000000E+00  0.000000000E+00  7.117697164E+02  7.117697164E+02  0.000000000E+00  0.00000E+00  9.000E+00
      21    -1     0     0   501   511  0.000000000E+00  0.000000000E+00 -3.801193338E+02  3.801193338E+02  0.000000000E+00  0.00000E+00  9.000E+00
      25     1     1     2     0     0 -2.715609719E+02 -2.038067984E+02  4.661074151E+02  5.900539763E+02  1.250000000E+02  0.00000E+00  9.000E+00
      25     1     1     2     0     0  1.149460799E+02  2.042954599E+02  3.858170787E+01  2.684451236E+02  1.250000000E+02  0.00000E+00  9.000E+00
      21     1     1     2   502   511  1.566148920E+02 -4.886614023E-01 -1.730387404E+02  2.333899502E+02  5.046370146E-06  0.00000E+00  9.000E+00
#rwgt            1           1   3.0307900978621918E-002          10      318705           0
</event>
<event>
      5   9999  3.19816E-02  1.94790E+01 -1.00000E+00  1.67320E-01
      21    -1     0     0   502   501  0.000000000E+00  0.000000000E+00  1.059056300E+02  1.059056300E+02  0.000000000E+00  0.00000E+00  9.000E+00
      21    -1     0     0   512   502  0.000000000E+00  0.000000000E+00 -9.182384493E+02  9.182384493E+02  0.000000000E+00  0.00000E+00  9.000E+00
      25     1     1     2     0     0 -2.318932054E+02 -1.083602850E+02 -4.437872246E+02  5.273409815E+02  1.250000000E+02  0.00000E+00  9.000E+00
      25     1     1     2     0     0  2.513053249E+02  1.099732806E+02 -2.990246136E+02  4.246047672E+02  1.250000000E+02  0.00000E+00  9.000E+00
      21     1     1     2   512   501 -1.941211952E+01 -1.612995638E+00 -6.952098106E+01  7.219833064E+01  9.536743164E-07  0.00000E+00  9.000E+00
#rwgt            1           1   2.5638663807808788E-002          10      318776           0
</event>
<event>
      5   9999  3.19816E-02  2.65523E+02 -1.00000E+00  1.07344E-01
      21    -1     0     0   502   511  0.000000000E+00  0.000000000E+00  1.072223269E+03  1.072223269E+03  0.000000000E+00  0.00000E+00  9.000E+00
      21    -1     0     0   501   502  0.000000000E+00  0.000000000E+00 -1.680892103E+02  1.680892103E+02  0.000000000E+00  0.00000E+00  9.000E+00
      25     1     1     2     0     0 -2.678032559E+01  7.310485749E+01  4.695956784E+01  1.545694247E+02  1.250000000E+02  0.00000E+00  9.000E+00
      25     1     1     2     0     0 -2.983735784E+00 -3.369547010E+02  2.985694625E+02  4.672430814E+02  1.250000000E+02  0.00000E+00  9.000E+00
      21     1     1     2   501   511  2.976406137E+01  2.638498435E+02  5.586050288E+02  6.184999737E+02  7.629394531E-06  0.00000E+00  9.000E+00
#rwgt            1           1   3.4870600347297720E-002          10      319001           0
</event>
<event>
      5   9999  3.19816E-02  1.46101E+01 -1.00000E+00  1.78468E-01
      21    -1     0     0   502   501  0.000000000E+00  0.000000000E+00  1.188773617E+02  1.188773617E+02  0.000000000E+00  0.00000E+00  9.000E+00
      21    -1     0     0   501   512  0.000000000E+00  0.000000000E+00 -2.920059710E+02  2.920059710E+02  0.000000000E+00  0.00000E+00  9.000E+00
      25     1     1     2     0     0 -8.108902047E+01  8.463707717E+01 -1.093234349E+02  2.032620906E+02  1.250000000E+02  0.00000E+00  9.000E+00
      25     1     1     2     0     0  8.690242032E+01 -9.804079434E+01 -5.081752856E+01  1.880729891E+02  1.250000000E+02  0.00000E+00  9.000E+00
      21     1     1     2   502   512 -5.813399849E+00  1.340371716E+01 -1.298764580E+01  1.954825299E+01  2.384185791E-07  0.00000E+00  9.000E+00
#rwgt            1           1   2.7991137220500287E-002          10      319039           0
</event>
<event>
      5   9999  3.19816E-02  1.24244E+01 -1.00000E+00  1.85455E-01
      21    -1     0     0   502   501  0.000000000E+00  0.000000000E+00  3.174631353E+02  3.174631353E+02  0.000000000E+00  0.00000E+00  9.000E+00
      21    -1     0     0   501   511  0.000000000E+00  0.000000000E+00 -2.075032570E+03  2.075032570E+03  0.000000000E+00  0.00000E+00  9.000E+00
      25     1     1     2     0     0 -7.552610312E+02  1.960289841E+02 -1.111267776E+03  1.363593655E+03  1.250000000E+02  0.00000E+00  9.000E+00
      25     1     1     2     0     0  7.500250653E+02 -1.847617975E+02 -6.150841757E+02  9.953030008E+02  1.250000000E+02  0.00000E+00  9.000E+00
      21     1     1     2   502   511  5.235965903E+00 -1.126718664E+01 -3.121748305E+01  3.359904882E+01  0.000000000E+00  0.00000E+00  9.000E+00
#rwgt            1           1   2.7996423960738013E-002          10      319204           0
</event>
<event>
      5   9999  3.19816E-02  5.08279E+01 -1.00000E+00  1.38670E-01
      21    -1     0     0   512   501  0.000000000E+00  0.000000000E+00  1.692351557E+03  1.692351557E+03  0.000000000E+00  0.00000E+00  9.000E+00
      21    -1     0     0   501   502  0.000000000E+00  0.000000000E+00 -4.651729926E+01  4.651729926E+01  0.000000000E+00  0.00000E+00  9.000E+00
      25     1     1     2     0     0 -1.197211142E+02 -1.147186144E+02  6.751315438E+02  7.063434767E+02  1.250000000E+02  0.00000E+00  9.000E+00
      25     1     1     2     0     0  1.660018717E+02  9.370508308E+01  4.066152009E+02  4.661525347E+02  1.250000000E+02  0.00000E+00  9.000E+00
      21     1     1     2   512   502 -4.628075746E+01  2.101353130E+01  5.640875127E+02  5.663728445E+02  1.078959322E-05  0.00000E+00  9.000E+00
#rwgt            1           1   2.8564358813057456E-002          10      319480           0
</event>
<event>
      5   9999  3.19816E-02  6.12991E+02 -1.00000E+00  9.64016E-02
      21    -1     0     0   502   501  0.000000000E+00  0.000000000E+00  2.757470218E+02  2.757470218E+02  0.000000000E+00  0.00000E+00  9.000E+00
      21    -1     0     0   501   511  0.000000000E+00  0.000000000E+00 -2.517759100E+03  2.517759100E+03  0.000000000E+00  0.00000E+00  9.000E+00
      25     1     1     2     0     0  1.649947077E+02 -1.048291217E+02 -6.445618583E+02  6.850528355E+02  1.250000000E+02  0.00000E+00  9.000E+00
      25     1     1     2     0     0  3.353238884E+02  4.590024836E+02 -2.604737195E+02  6.376495500E+02  1.250000000E+02  0.00000E+00  9.000E+00
      21     1     1     2   502   511 -5.003185962E+02 -3.541733619E+02 -1.336976501E+03  1.470803736E+03  2.642899792E-05  0.00000E+00  9.000E+00
#rwgt            2          11   7.5439242691645563E-004          10      319526           0
</event>
<event>
      5   9999  3.19816E-02  4.48240E+01 -1.00000E+00  1.41839E-01
      21    -1     0     0   502   501  0.000000000E+00  0.000000000E+00  9.200593696E+02  9.200593696E+02  0.000000000E+00  0.00000E+00  9.000E+00
      -1    -1     0     0     0   502  0.000000000E+00  0.000000000E+00 -6.879624891E+02  6.879624891E+02  0.000000000E+00  0.00000E+00  9.000E+00
      25     1     1     2     0     0 -4.464092285E+01  2.383752352E+02  6.198769921E+02  6.772651254E+02  1.250000000E+02  0.00000E+00  9.000E+00
      25     1     1     2     0     0  5.920668774E+01 -2.807665924E+02  1.801040350E+02  3.611063205E+02  1.250000000E+02  0.00000E+00  9.000E+00
      -1     1     1     2     0   501 -1.456576489E+01  4.239135728E+01 -5.678841466E+02  5.696504127E+02  1.078959322E-05  0.00000E+00  9.000E+00
#rwgt            1           1   2.5861564148990230E-002          10      319546           0
</event>
<event>
      5   9999  3.19816E-02  1.63529E+02 -1.00000E+00  1.14926E-01
      21    -1     0     0   511   501  0.000000000E+00  0.000000000E+00  2.563006697E+03  2.563006697E+03  0.000000000E+00  0.00000E+00  9.000E+00
      21    -1     0     0   501   502  0.000000000E+00  0.000000000E+00 -5.341094643E+02  5.341094643E+02  0.000000000E+00  0.00000E+00  9.000E+00
      25     1     1     2     0     0 -6.475895328E+02  8.069667727E+02  1.578171828E+03  1.891247973E+03  1.250000000E+02  0.00000E+00  9.000E+00
      25     1     1     2     0     0  4.952780148E+02 -7.474450694E+02  2.352813108E+02  9.353912224E+02  1.250000000E+02  0.00000E+00  9.000E+00
      21     1     1     2   511   502  1.523115180E+02 -5.952170327E+01  2.154440937E+02  2.704769661E+02  4.672030912E-06  0.00000E+00  9.000E+00
#rwgt            1           1   2.8786970752285892E-002          10      319693           0
</event>
<event>
      5   9999  3.19816E-02  4.46730E+01 -1.00000E+00  1.41926E-01
      21    -1     0     0   512   501  0.000000000E+00  0.000000000E+00  5.139031676E+02  5.139031676E+02  0.000000000E+00  0.00000E+00  9.000E+00
      21    -1     0     0   501   502  0.000000000E+00  0.000000000E+00 -2.474143059E+02  2.474143059E+02  0.000000000E+00  0.00000E+00  9.000E+00
      25     1     1     2     0     0  4.816814904E+01 -2.065301806E+02  1.173220828E+02  2.726982896E+02  1.250000000E+02  0.00000E+00  9.000E+00
      25     1     1     2     0     0 -5.155372036E+01  1.619856628E+02 -1.013989252E+02  2.341022919E+02  1.250000000E+02  0.00000E+00  9.000E+00
      21     1     1     2   512   502  3.385571325E+00  4.454451772E+01  2.505657042E+02  2.545168919E+02  2.697398305E-06  0.00000E+00  9.000E+00
#rwgt            1           1   2.8360375746596580E-002          10      319841           0
</event>
<event>
      5   9999  3.19816E-02  4.75813E+02 -1.00000E+00  9.94676E-02
      21    -1     0     0   502   511  0.000000000E+00  0.000000000E+00  2.595569332E+03  2.595569332E+03  0.000000000E+00  0.00000E+00  9.000E+00
      21    -1     0     0   501   502  0.000000000E+00  0.000000000E+00 -3.012994359E+02  3.012994359E+02  0.000000000E+00  0.00000E+00  9.000E+00
      25     1     1     2     0     0  2.828287557E+02 -2.507250443E+02  1.990313979E+02  4.450771285E+02  1.250000000E+02  0.00000E+00  9.000E+00
      25     1     1     2     0     0 -7.572487535E+02  2.143433156E+02  1.274977771E+03  1.503516561E+03  1.250000000E+02  0.00000E+00  9.000E+00
      21     1     1     2   501   511  4.744199978E+02  3.638172868E+01  8.202607271E+02  9.482750787E+02  1.078959322E-05  0.00000E+00  9.000E+00
#rwgt            2          11   1.4322150740021884E-003          10      320047           0
</event>
<event>
      5   9999  3.19816E-02  4.58075E+01 -1.00000E+00  1.41281E-01
      21    -1     0     0   502   501  0.000000000E+00  0.000000000E+00  2.076368887E+03  2.076368887E+03  0.000000000E+00  0.00000E+00  9.000E+00
      21    -1     0     0   512   502  0.000000000E+00  0.000000000E+00 -4.048361861E+02  4.048361861E+02  0.000000000E+00  0.00000E+00  9.000E+00
      25     1     1     2     0     0  2.767882442E+02 -2.703729037E+02  1.254178151E+02  4.255207016E+02  1.250000000E+02  0.00000E+00  9.000E+00
      25     1     1     2     0     0 -3.019454383E+02  2.320918065E+02  1.776311820E+03  1.820974007E+03  1.250000000E+02  0.00000E+00  9.000E+00
      21     1     1     2   512   501  2.515719410E+01  3.828109720E+01 -2.301969337E+02  2.347103643E+02  8.092194914E-06  0.00000E+00  9.000E+00
#rwgt            1           1   2.7639011297544532E-002          10      320067           0
</event>
<event>
      5   9999  3.19816E-02  1.18602E+02 -1.00000E+00  1.20585E-01
      21    -1     0     0   502   501  0.000000000E+00  0.000000000E+00  2.008178166E+02  2.008178166E+02  0.000000000E+00  0.00000E+00  9.000E+00
      21    -1     0     0   511   502  0.000000000E+00  0.000000000E+00 -1.114140300E+03  1.114140300E+03  0.000000000E+00  0.00000E+00  9.000E+00
      25     1     1     2     0     0 -2.136194543E+00  6.448578682E+01  1.563107415E+02  2.102879644E+02  1.250000000E+02  0.00000E+00  9.000E+00
      25     1     1     2     0     0  8.180071441E+01  2.337800850E+01 -4.809555059E+02  5.041637500E+02  1.250000000E+02  0.00000E+00  9.000E+00
      21     1     1     2   511   501 -7.966451987E+01 -8.786379532E+01 -5.886777193E+02  6.005064025E+02  0.000000000E+00  0.00000E+00  9.000E+00
#rwgt            1           1   3.0013792495971452E-002          10      320139           0
</event>
<event>
      5   9999  3.19816E-02  8.65855E+01 -1.00000E+00  1.26708E-01
      21    -1     0     0   502   501  0.000000000E+00  0.000000000E+00  4.270638501E+02  4.270638501E+02  0.000000000E+00  0.00000E+00  9.000E+00
       2    -1     0     0   501     0  0.000000000E+00  0.000000000E+00 -2.698550945E+03  2.698550945E+03  0.000000000E+00  0.00000E+00  9.000E+00
      25     1     1     2     0     0 -7.339598575E+02  4.046314806E+02 -1.084242768E+03  1.376092688E+03  1.250000000E+02  0.00000E+00  9.000E+00
      25     1     1     2     0     0  7.920705740E+02 -3.404428055E+02 -4.018462511E+02  9.593656797E+02  1.250000000E+02  0.00000E+00  9.000E+00
       2     1     1     2   502     0 -5.811071646E+01 -6.418867511E+01 -7.853980762E+02  7.901564272E+02  1.525878906E-05  0.00000E+00  9.000E+00
#rwgt            1           1   3.0980041767883756E-002          10      320195           0
</event>
<event>
      5   9999  3.19816E-02  1.53606E+02 -1.00000E+00  1.15986E-01
      21    -1     0     0   502   501  0.000000000E+00  0.000000000E+00  1.110389914E+03  1.110389914E+03  0.000000000E+00  0.00000E+00  9.000E+00
      21    -1     0     0   511   502  0.000000000E+00  0.000000000E+00 -1.370903789E+02  1.370903789E+02  0.000000000E+00  0.00000E+00  9.000E+00
      25     1     1     2     0     0  9.574196301E+01  2.101132017E+02  7.822418481E+02  8.251311350E+02  1.250000000E+02  0.00000E+00  9.000E+00
      25     1     1     2     0     0 -8.871559196E+01 -5.666843808E+01  2.116174954E+02  2.673737693E+02  1.250000000E+02  0.00000E+00  9.000E+00
      21     1     1     2   511   501 -7.026371041E+00 -1.534447636E+02 -2.055980840E+01  1.549753886E+02  2.831063768E-06  0.00000E+00  9.000E+00
#rwgt            1           1   3.6019043002624353E-002          10      320294           0
</event>
<event>
      5   9999  3.19816E-02  8.30387E+01 -1.00000E+00  1.27571E-01
      21    -1     0     0   502   501  0.000000000E+00  0.000000000E+00  3.131961625E+02  3.131961625E+02  0.000000000E+00  0.00000E+00  9.000E+00
       2    -1     0     0   501     0  0.000000000E+00  0.000000000E+00 -1.595848386E+03  1.595848386E+03  0.000000000E+00  0.00000E+00  9.000E+00
      25     1     1     2     0     0 -1.252541496E+01  3.093783829E+01  2.850391308E+02  3.130277016E+02  1.250000000E+02  0.00000E+00  9.000E+00
      25     1     1     2     0     0  7.175954454E+01 -8.913352834E+01 -5.643569825E+02  5.892520868E+02  1.250000000E+02  0.00000E+00  9.000E+00
       2     1     1     2   502     0 -5.923412958E+01  5.819569005E+01 -1.003334371E+03  1.006764760E+03  1.078959322E-05  0.00000E+00  9.000E+00
#rwgt            1           1   2.8782983500989862E-002          10      320336           0
</event>
<event>
      5   9999  3.19816E-02  2.88351E+01 -1.00000E+00  1.54244E-01
      21    -1     0     0   502   501  0.000000000E+00  0.000000000E+00  7.620874687E+02  7.620874687E+02  0.000000000E+00  0.00000E+00  9.000E+00
      21    -1     0     0   501   511  0.000000000E+00  0.000000000E+00 -7.007149637E+02  7.007149637E+02  0.000000000E+00  0.00000E+00  9.000E+00
      25     1     1     2     0     0 -1.404024287E+02  3.767395416E+02  7.890397793E+01  4.283647534E+02  1.250000000E+02  0.00000E+00  9.000E+00
      25     1     1     2     0     0  1.651422294E+02 -3.915518544E+02  4.114032091E+02  6.045348716E+02  1.250000000E+02  0.00000E+00  9.000E+00
      21     1     1     2   502   511 -2.473980071E+01  1.481231275E+01 -4.289346820E+02  4.299028074E+02  7.629394531E-06  0.00000E+00  9.000E+00
#rwgt            1           1   2.3401366090767872E-002          10      320422           0
</event>
<event>
      5   9999  3.19816E-02  2.64768E+01 -1.00000E+00  1.56906E-01
      21    -1     0     0   502   501  0.000000000E+00  0.000000000E+00  3.034161298E+02  3.034161298E+02  0.000000000E+00  0.00000E+00  9.000E+00
      21    -1     0     0   512   502  0.000000000E+00  0.000000000E+00 -1.718367826E+02  1.718367826E+02  0.000000000E+00  0.00000E+00  9.000E+00
      25     1     1     2     0     0 -5.639698067E+01 -1.391258799E+02  1.193544049E+02  2.289259790E+02  1.250000000E+02  0.00000E+00  9.000E+00
      25     1     1     2     0     0  6.153421634E+01  1.650995567E+02  2.398042859E+01  2.173577336E+02  1.250000000E+02  0.00000E+00  9.000E+00
      21     1     1     2   512   501 -5.137235668E+00 -2.597367679E+01 -1.175548635E+01  2.896919978E+01  2.384185791E-07  0.00000E+00  9.000E+00
#rwgt            2          11   1.4500732333673607E-003          10      320665           0
</event>
<event>
      5   9999  3.19816E-02  8.17644E+01 -1.00000E+00  1.27893E-01
      21    -1     0     0   502   501  0.000000000E+00  0.000000000E+00  8.479951595E+02  8.479951595E+02  0.000000000E+00  0.00000E+00  9.000E+00
       4    -1     0     0   501     0  0.000000000E+00  0.000000000E+00 -1.103915774E+02  1.103915774E+02  0.000000000E+00  0.00000E+00  9.000E+00
      25     1     1     2     0     0 -1.938813285E+02 -1.713699460E+01  5.936200022E+02  6.370976009E+02  1.250000000E+02  0.00000E+00  9.000E+00
      25     1     1     2     0     0  1.155146526E+02  4.046264565E+01  1.610215716E+02  2.377683898E+02  1.250000000E+02  0.00000E+00  9.000E+00
       4     1     1     2   502     0  7.836667589E+01 -2.332565105E+01 -1.703799168E+01  8.352074621E+01  6.307962682E-07  0.00000E+00  9.000E+00
#rwgt            1           1   3.2634001104212856E-002          10      320685           0
</event>
<event>
      5   9999  3.19816E-02  2.43949E+01 -1.00000E+00  1.59552E-01
      21    -1     0     0   502   501  0.000000000E+00  0.000000000E+00  1.038264693E+03  1.038264693E+03  0.000000000E+00  0.00000E+00  9.000E+00
      21    -1     0     0   511   502  0.000000000E+00  0.000000000E+00 -2.101111269E+02  2.101111269E+02  0.000000000E+00  0.00000E+00  9.000E+00
      25     1     1     2     0     0  1.188332704E+02 -9.941623376E+01  2.251267560E+02  3.005195334E+02  1.250000000E+02  0.00000E+00  9.000E+00
      25     1     1     2     0     0 -1.147089988E+02  1.234599473E+02  7.602902060E+02  7.887120579E+02  1.250000000E+02  0.00000E+00  9.000E+00
      21     1     1     2   511   501 -4.124271584E+00 -2.404371354E+01 -1.572633959E+02  1.591442285E+02  2.697398305E-06  0.00000E+00  9.000E+00
#rwgt            1           1   3.0294387672211705E-002          10      320742           0
</event>
<event>
      5   9999  3.19816E-02  4.10171E+02 -1.00000E+00  1.01358E-01
      21    -1     0     0   502   501  0.000000000E+00  0.000000000E+00  2.890202925E+02  2.890202925E+02  0.000000000E+00  0.00000E+00  9.000E+00
       2    -1     0     0   501     0  0.000000000E+00  0.000000000E+00 -1.361853137E+03  1.361853137E+03  0.000000000E+00  0.00000E+00  9.000E+00
      25     1     1     2     0     0 -2.046401503E+02  1.443695580E+02  6.524166471E+01  2.874050021E+02  1.250000000E+02  0.00000E+00  9.000E+00
      25     1     1     2     0     0  1.603924799E+02  2.634078639E+02 -4.125937685E+02  5.300642114E+02  1.250000000E+02  0.00000E+00  9.000E+00
       2     1     1     2   502     0  4.424767045E+01 -4.077774219E+02 -7.254807406E+02  8.334042160E+02  1.078959322E-05  0.00000E+00  9.000E+00
#rwgt            2          13   1.2178329662187880E-003          10      320975           0
</event>
<event>
      5   9999  3.19816E-02  2.79356E+02 -1.00000E+00  1.06608E-01
      21    -1     0     0   502   501  0.000000000E+00  0.000000000E+00  8.220854266E+02  8.220854266E+02  0.000000000E+00  0.00000E+00  9.000E+00
       2    -1     0     0   501     0  0.000000000E+00  0.000000000E+00 -1.253268215E+03  1.253268215E+03  0.000000000E+00  0.00000E+00  9.000E+00
      25     1     1     2     0     0 -3.771711077E+01  4.460973977E+02 -2.210896004E+02  5.147145618E+02  1.250000000E+02  0.00000E+00  9.000E+00
      25     1     1     2     0     0  2.074509491E+01 -1.672575207E+02  6.359472043E+02  6.696710266E+02  1.250000000E+02  0.00000E+00  9.000E+00
       2     1     1     2   502     0  1.697201586E+01 -2.788398770E+02 -8.460403924E+02  8.909680533E+02  1.078959322E-05  0.00000E+00  9.000E+00
#rwgt            2          13   1.7395663499252120E-003          10      321099           0
</event>
<event>
      5   9999  3.19816E-02  1.79028E+01 -1.00000E+00  1.70439E-01
      21    -1     0     0   502   501  0.000000000E+00  0.000000000E+00  1.839373716E+02  1.839373716E+02  0.000000000E+00  0.00000E+00  9.000E+00
      21    -1     0     0   501   511  0.000000000E+00  0.000000000E+00 -8.235296143E+02  8.235296143E+02  0.000000000E+00  0.00000E+00  9.000E+00
      25     1     1     2     0     0  1.855504162E+02  1.963349850E+02 -5.941190802E+02  6.645140064E+02  1.250000000E+02  0.00000E+00  9.000E+00
      25     1     1     2     0     0 -1.917232742E+02 -1.795300121E+02  3.399516126E+00  2.909044445E+02  1.250000000E+02  0.00000E+00  9.000E+00
      21     1     1     2   502   511  6.172857948E+00 -1.680497283E+01 -4.887267860E+01  5.204853505E+01  6.743495762E-07  0.00000E+00  9.000E+00
#rwgt            1           1   3.1600019756713470E-002          10      321118           0
</event>
<event>
      5   9999  3.19816E-02  2.45975E+01 -1.00000E+00  1.59281E-01
       2    -1     0     0   502     0  0.000000000E+00  0.000000000E+00  2.028983436E+03  2.028983436E+03  0.000000000E+00  0.00000E+00  9.000E+00
      21    -1     0     0   501   502  0.000000000E+00  0.000000000E+00 -5.984682660E+01  5.984682660E+01  0.000000000E+00  0.00000E+00  9.000E+00
      25     1     1     2     0     0  4.152158280E+01 -7.786326826E+01  1.504367842E+03  1.512129073E+03  1.250000000E+02  0.00000E+00  9.000E+00
      25     1     1     2     0     0 -1.951523345E+01  8.885213257E+01  5.186588007E+01  1.630662912E+02  1.250000000E+02  0.00000E+00  9.000E+00
       2     1     1     2   501     0 -2.200634935E+01 -1.098886431E+01  4.129028876E+02  4.136348984E+02  5.394796609E-06  0.00000E+00  9.000E+00
#rwgt            1           1   3.8217726095038998E-002          10      321298           0
</event>
<event>
      5   9999  3.19816E-02  1.98864E+01 -1.00000E+00  1.66573E-01
      21    -1     0     0   502   501  0.000000000E+00  0.000000000E+00  3.668253566E+02  3.668253566E+02  0.000000000E+00  0.00000E+00  9.000E+00
      21    -1     0     0   511   502  0.000000000E+00  0.000000000E+00 -3.241453240E+02  3.241453240E+02  0.000000000E+00  0.00000E+00  9.000E+00
      25     1     1     2     0     0  5.273262386E+01  2.929038844E+02 -9.055254800E+01  3.352583766E+02  1.250000000E+02  0.00000E+00  9.000E+00
      25     1     1     2     0     0 -5.033480511E+01 -2.731625622E+02  1.392812874E+02  3.349263426E+02  1.250000000E+02  0.00000E+00  9.000E+00
      21     1     1     2   511   501 -2.397818751E+00 -1.974132220E+01 -6.048706684E+00  2.078596136E+01  3.039252468E-07  0.00000E+00  9.000E+00
#rwgt            1           1   2.7645238190421507E-002          10      321484           0
</event>
<event>
      5   9999  3.19816E-02  1.56726E+02 -1.00000E+00  1.15644E-01
      21    -1     0     0   512   501  0.000000000E+00  0.000000000E+00  7.269147001E+02  7.269147001E+02  0.000000000E+00  0.00000E+00  9.000E+00
      21    -1     0     0   501   502  0.000000000E+00  0.000000000E+00 -3.241436385E+02  3.241436385E+02  0.000000000E+00  0.00000E+00  9.000E+00
      25     1     1     2     0     0  1.686814924E+02  3.174648572E+02  1.462443217E+01  3.808887705E+02  1.250000000E+02  0.00000E+00  9.000E+00
      25     1     1     2     0     0 -2.934583096E+02 -2.226299112E+02  2.620855677E+02  4.690369939E+02  1.250000000E+02  0.00000E+00  9.000E+00
      21     1     1     2   512   502  1.247768172E+02 -9.483494606E+01  1.260610617E+02  2.011325741E+02  1.348699152E-06  0.00000E+00  9.000E+00
#rwgt            1           1   2.9165075980737240E-002          10      321670           0
</event>
<event>
      5   9999  3.19816E-02  1.90806E+02 -1.00000E+00  1.12397E-01
      21    -1     0     0   511   501  0.000000000E+00  0.000000000E+00  7.502252005E+02  7.502252005E+02  0.000000000E+00  0.00000E+00  9.000E+00
      21    -1     0     0   501   502  0.000000000E+00  0.000000000E+00 -3.281953051E+02  3.281953051E+02  0.000000000E+00  0.00000E+00  9.000E+00
      25     1     1     2     0     0 -5.085506610E+01 -4.653215100E+02  1.278060844E+02  5.010685987E+02  1.250000000E+02  0.00000E+00  9.000E+00
      25     1     1     2     0     0  1.046447664E+01  2.788393416E+02  1.890334756E+02  3.594711930E+02  1.250000000E+02  0.00000E+00  9.000E+00
      21     1     1     2   511   502  4.039058946E+01  1.864821684E+02  1.051903354E+02  2.178807140E+02  2.336015456E-06  0.00000E+00  9.000E+00
#rwgt            1           1   2.9184135645876290E-002          10      321725           0
</event>
<event>
      5   9999  3.19816E-02  1.23588E+01 -1.00000E+00  1.85693E-01
      21    -1     0     0   502   501  0.000000000E+00  0.000000000E+00  7.887450035E+01  7.887450035E+01  0.000000000E+00  0.00000E+00  9.000E+00
      21    -1     0     0   501   512  0.000000000E+00  0.000000000E+00 -7.774596675E+02  7.774596675E+02  0.000000000E+00  0.00000E+00  9.000E+00
      25     1     1     2     0     0  1.228881713E+02 -1.241375926E+01 -5.999753216E+01  1.856887394E+02  1.250000000E+02  0.00000E+00  9.000E+00
      25     1     1     2     0     0 -1.244333622E+02  2.467562409E+01 -4.867896118E+02  5.183451304E+02  1.250000000E+02  0.00000E+00  9.000E+00
      21     1     1     2   502   512  1.545190921E+00 -1.226186483E+01 -1.517980232E+02  1.523002981E+02  2.697398305E-06  0.00000E+00  9.000E+00
#rwgt            1           1   2.7618684884081934E-002          10      321763           0
</event>
<event>
      5   9999  3.19816E-02  3.26789E+01 -1.00000E+00  1.50504E-01
      21    -1     0     0   502   501  0.000000000E+00  0.000000000E+00  2.651112390E+03  2.651112390E+03  0.000000000E+00  0.00000E+00  9.000E+00
      21    -1     0     0   501   511  0.000000000E+00  0.000000000E+00 -2.145357708E+02  2.145357708E+02  0.000000000E+00  0.00000E+00  9.000E+00
      25     1     1     2     0     0  3.450934025E+02 -1.937593294E+01  1.901606442E+03  1.936800698E+03  1.250000000E+02  0.00000E+00  9.000E+00
      25     1     1     2     0     0 -3.145319117E+02  3.094767996E+01  6.906647895E+02  7.697603093E+02  1.250000000E+02  0.00000E+00  9.000E+00
      21     1     1     2   502   511 -3.056149084E+01 -1.157174702E+01 -1.556946124E+02  1.590871534E+02  7.629394531E-06  0.00000E+00  9.000E+00
#rwgt            1           1   5.6897979483533534E-002          10      321989           0
</event>
<event>
      5   9999  3.19816E-02  6.89439E+01 -1.00000E+00  1.31556E-01
      21    -1     0     0   502   501  0.000000000E+00  0.000000000E+00  5.889357483E+01  5.889357483E+01  0.000000000E+00  0.00000E+00  9.000E+00
       2    -1     0     0   501     0  0.000000000E+00  0.000000000E+00 -2.978578168E+03  2.978578168E+03  0.000000000E+00  0.00000E+00  9.000E+00
      25     1     1     2     0     0 -2.251407919E+02 -1.230484976E+01 -4.401346898E+02  5.100816901E+02  1.250000000E+02  0.00000E+00  9.000E+00
      25     1     1     2     0     0  1.749180512E+02  5.953759577E+01 -5.102681412E+02  5.569018099E+02  1.250000000E+02  0.00000E+00  9.000E+00
       2     1     1     2   502     0  5.022274065E+01 -4.723274601E+01 -1.969281762E+03  1.970488242E+03  2.157918644E-05  0.00000E+00  9.000E+00
#rwgt            1           1   2.8490951157204389E-002          10      322153           0
</event>
<event>
      5   9999  3.19816E-02  2.93853E+01 -1.00000E+00  1.53667E-01
      21    -1     0     0   511   501  0.000000000E+00  0.000000000E+00  2.848880244E+03  2.848880244E+03  0.000000000E+00  0.00000E+00  9.000E+00
      21    -1     0     0   501   502  0.000000000E+00  0.000000000E+00 -6.845597716E+02  6.845597716E+02  0.000000000E+00  0.00000E+00  9.000E+00
      25     1     1     2     0     0 -2.842759466E+00 -3.965312373E+02 -6.416088698E+01  4.206978997E+02  1.250000000E+02  0.00000E+00  9.000E+00
      25     1     1     2     0     0  5.325981664E+00  4.258113945E+02 -3.306499855E+02  5.534420681E+02  1.250000000E+02  0.00000E+00  9.000E+00
      21     1     1     2   511   502 -2.483222198E+00 -2.928015725E+01  2.559131345E+03  2.559300048E+03  0.000000000E+00  0.00000E+00  9.000E+00
#rwgt            1           1   2.9206800228706250E-002          10      322196           0
</event>
<event>
      5   9999  3.19816E-02  5.14245E+02 -1.00000E+00  9.85066E-02
      21    -1     0     0   512   501  0.000000000E+00  0.000000000E+00  7.142493975E+02  7.142493975E+02  0.000000000E+00  0.00000E+00  9.000E+00
      21    -1     0     0   501   502  0.000000000E+00  0.000000000E+00 -8.843285523E+02  8.843285523E+02  0.000000000E+00  0.00000E+00  9.000E+00
      25     1     1     2     0     0 -1.813670401E+02 -2.958239501E+02  1.674452097E+02  4.050539605E+02  1.250000000E+02  0.00000E+00  9.000E+00
      25     1     1     2     0     0  3.762019475E+02 -1.800832173E+02 -4.915942567E+02  6.566945893E+02  1.250000000E+02  0.00000E+00  9.000E+00
      21     1     1     2   512   502 -1.948349074E+02  4.759071673E+02  1.540698922E+02  5.368294000E+02  8.529922400E-06  0.00000E+00  9.000E+00
#rwgt            2          11   2.4672315039440855E-003          10      322433           0
</event>
<event>
      5   9999  3.19816E-02  5.44204E+01 -1.00000E+00  1.37008E-01
      21    -1     0     0   502   501  0.000000000E+00  0.000000000E+00  6.288186920E+02  6.288186920E+02  0.000000000E+00  0.00000E+00  9.000E+00
      21    -1     0     0   511   502  0.000000000E+00  0.000000000E+00 -6.318997119E+02  6.318997119E+02  0.000000000E+00  0.00000E+00  9.000E+00
      25     1     1     2     0     0  3.568793950E+02 -2.742664414E+02  3.883045444E+02  6.074458023E+02  1.250000000E+02  0.00000E+00  9.000E+00
      25     1     1     2     0     0 -3.199774067E+02  3.142642629E+02 -3.268874480E+02  5.688830912E+02  1.250000000E+02  0.00000E+00  9.000E+00
      21     1     1     2   511   501 -3.690198831E+01 -3.999782152E+01 -6.449811627E+01  8.438951042E+01  9.536743164E-07  0.00000E+00  9.000E+00
#rwgt            1           1   3.0282689759650913E-002          10      322453           0
</event>
<event>
      5   9999  3.19816E-02  1.64348E+02 -1.00000E+00  1.14843E-01
      21    -1     0     0   502   501  0.000000000E+00  0.000000000E+00  5.285942136E+02  5.285942136E+02  0.000000000E+00  0.00000E+00  9.000E+00
       4    -1     0     0   501     0  0.000000000E+00  0.000000000E+00 -2.981399538E+02  2.981399538E+02  0.000000000E+00  0.00000E+00  9.000E+00
      25     1     1     2     0     0 -3.086186807E+02  1.388377092E+01  7.290440970E+01  3.411426419E+02  1.250000000E+02  0.00000E+00  9.000E+00
      25     1     1     2     0     0  2.293054809E+02  1.300595057E+02  1.280396338E+02  3.186151698E+02  1.250000000E+02  0.00000E+00  9.000E+00
       4     1     1     2   502     0  7.931319972E+01 -1.439432766E+02  2.951021625E+01  1.669763558E+02  3.198720900E-06  0.00000E+00  9.000E+00
#rwgt            1           1   3.0162090657833991E-002          10      322544           0
</event>
<event>
      5   9999  3.19816E-02  5.07317E+02 -1.00000E+00  9.86731E-02
      21    -1     0     0   502   501  0.000000000E+00  0.000000000E+00  1.923064746E+02  1.923064746E+02  0.000000000E+00  0.00000E+00  9.000E+00
       2    -1     0     0   501     0  0.000000000E+00  0.000000000E+00 -2.099769425E+03  2.099769425E+03  0.000000000E+00  0.00000E+00  9.000E+00
      25     1     1     2     0     0 -1.601093181E+02  1.063580269E+02 -2.956920986E+02  3.741735437E+02  1.250000000E+02  0.00000E+00  9.000E+00
      25     1     1     2     0     0 -2.654749491E+02 -3.824894767E+02 -1.081283556E+03  1.183881023E+03  1.250000000E+02  0.00000E+00  9.000E+00
       2     1     1     2   502     0  4.255842672E+02  2.761314498E+02 -5.304872961E+02  7.340213330E+02  7.629394531E-06  0.00000E+00  9.000E+00
#rwgt            2          13   1.2357876240677503E-003          10      322626           0
</event>
<event>
      5   9999  3.19816E-02  1.47660E+02 -1.00000E+00  1.16665E-01
       2    -1     0     0   502     0  0.000000000E+00  0.000000000E+00  3.911015534E+03  3.911015534E+03  0.000000000E+00  0.00000E+00  9.000E+00
      21    -1     0     0   501   502  0.000000000E+00  0.000000000E+00 -8.145225282E+01  8.145225282E+01  0.000000000E+00  0.00000E+00  9.000E+00
      25     1     1     2     0     0 -1.883895441E+02 -2.805366425E+02  1.374371065E+03  1.420813940E+03  1.250000000E+02  0.00000E+00  9.000E+00
      25     1     1     2     0     0  2.681685967E+02  4.047889460E+02  1.105252381E+03  1.213662356E+03  1.250000000E+02  0.00000E+00  9.000E+00
       2     1     1     2   501     0 -7.977905258E+01 -1.242523034E+02  1.349939835E+03  1.357991491E+03  3.051757812E-05  0.00000E+00  9.000E+00
#rwgt            2          18   2.5384029004497234E-003          10      322645           0
</event>
<event>
      5   9999  3.19816E-02  2.66076E+01 -1.00000E+00  1.56750E-01
      21    -1     0     0   502   501  0.000000000E+00  0.000000000E+00  9.578932776E+02  9.578932776E+02  0.000000000E+00  0.00000E+00  9.000E+00
      21    -1     0     0   511   502  0.000000000E+00  0.000000000E+00 -6.441749094E+01  6.441749094E+01  0.000000000E+00  0.00000E+00  9.000E+00
      25     1     1     2     0     0  1.301597696E+02  1.035333308E+02  4.886095486E+02  5.310602670E+02  1.250000000E+02  0.00000E+00  9.000E+00
      25     1     1     2     0     0 -1.510104602E+02 -1.200625264E+02  4.037669399E+02  4.646201793E+02  1.250000000E+02  0.00000E+00  9.000E+00
      21     1     1     2   511   501  2.085069060E+01  1.652919560E+01  1.099298241E+00  2.663032224E+01  3.504149919E-07  0.00000E+00  9.000E+00
#rwgt            1           1   2.7410164895618712E-002          10      322679           0
</event>
<event>
      5   9999  3.19816E-02  7.43504E+01 -1.00000E+00  1.29908E-01
      21    -1     0     0   502   501  0.000000000E+00  0.000000000E+00  2.345660877E+02  2.345660877E+02  0.000000000E+00  0.00000E+00  9.000E+00
      21    -1     0     0   501   512  0.000000000E+00  0.000000000E+00 -2.888192037E+03  2.888192037E+03  0.000000000E+00  0.00000E+00  9.000E+00
      25     1     1     2     0     0  1.551517531E+02  4.263627765E+02 -3.743498601E+02  6.013485690E+02  1.250000000E+02  0.00000E+00  9.000E+00
      25     1     1     2     0     0 -1.715831481E+02 -3.538507535E+02 -2.331967824E+02  4.739798221E+02  1.250000000E+02  0.00000E+00  9.000E+00
      21     1     1     2   502   512  1.643139503E+01 -7.251202308E+01 -2.046079307E+03  2.047429734E+03  0.000000000E+00  0.00000E+00  9.000E+00
#rwgt            2          11   8.2485214615327074E-004          10      322906           0
</event>
<event>
      5   9999  3.19816E-02  7.76256E+01 -1.00000E+00  1.28986E-01
      21    -1     0     0   502   511  0.000000000E+00  0.000000000E+00  1.057280782E+03  1.057280782E+03  0.000000000E+00  0.00000E+00  9.000E+00
      21    -1     0     0   501   502  0.000000000E+00  0.000000000E+00 -9.493592056E+01  9.493592056E+01  0.000000000E+00  0.00000E+00  9.000E+00
      25     1     1     2     0     0  2.184610045E+02 -9.008189774E+01  4.217199711E+02  4.993122197E+02  1.250000000E+02  0.00000E+00  9.000E+00
      25     1     1     2     0     0 -1.949580846E+02  1.640639918E+02  3.778619436E+02  4.725783497E+02  1.250000000E+02  0.00000E+00  9.000E+00
      21     1     1     2   501   511 -2.350291989E+01 -7.398209404E+01  1.627629472E+02  1.803261336E+02  1.907348633E-06  0.00000E+00  9.000E+00
#rwgt            1           1   2.7633040162632017E-002          10      322971           0
</event>
<event>
      5   9999  3.19816E-02  1.52961E+01 -1.00000E+00  1.76587E-01
      21    -1     0     0   502   501  0.000000000E+00  0.000000000E+00  3.900183235E+02  3.900183235E+02  0.000000000E+00  0.00000E+00  9.000E+00
       1    -1     0     0   501     0  0.000000000E+00  0.000000000E+00 -7.933195362E+02  7.933195362E+02  0.000000000E+00  0.00000E+00  9.000E+00
      25     1     1     2     0     0  1.312195243E+02  1.612551932E+01  2.182245995E+02  2.841224591E+02  1.250000000E+02  0.00000E+00  9.000E+00
      25     1     1     2     0     0 -1.444088048E+02 -8.378597569E+00  7.291135065E+01  2.046097966E+02  1.250000000E+02  0.00000E+00  9.000E+00
       1     1     1     2   502     0  1.318928050E+01 -7.746921746E+00 -6.944371629E+02  6.946056040E+02  0.000000000E+00  0.00000E+00  9.000E+00
#rwgt            1           1   2.7632148240615793E-002          10      323111           0
</event>
<event>
      5   9999  3.19816E-02  1.97410E+01 -1.00000E+00  1.66838E-01
      21    -1     0     0   502   501  0.000000000E+00  0.000000000E+00  2.184161919E+02  2.184161919E+02  0.000000000E+00  0.00000E+00  9.000E+00
      21    -1     0     0   511   502  0.000000000E+00  0.000000000E+00 -3.406120318E+02  3.406120318E+02  0.000000000E+00  0.00000E+00  9.000E+00
      25     1     1     2     0     0  7.102142623E+01 -8.341976800E+01 -2.265512032E+02  2.809863846E+02  1.250000000E+02  0.00000E+00  9.000E+00
      25     1     1     2     0     0 -7.127815923E+01  6.368043800E+01  1.567165101E+02  2.220829546E+02  1.250000000E+02  0.00000E+00  9.000E+00
      21     1     1     2   511   501  2.567329968E-01  1.973933000E+01 -5.236114682E+01  5.595888452E+01  6.743495762E-07  0.00000E+00  9.000E+00
#rwgt            1           1   2.5360225776682094E-002          10      323222           0
</event>
<event>
      5   9999  3.19816E-02  1.97981E+02 -1.00000E+00  1.11809E-01
      21    -1     0     0   502   501  0.000000000E+00  0.000000000E+00  7.630951344E+02  7.630951344E+02  0.000000000E+00  0.00000E+00  9.000E+00
      21    -1     0     0   501   512  0.000000000E+00  0.000000000E+00 -4.454216728E+02  4.454216728E+02  0.000000000E+00  0.00000E+00  9.000E+00
      25     1     1     2     0     0 -1.897923412E+02 -2.445478898E+02  3.312006645E+01  3.354798682E+02  1.250000000E+02  0.00000E+00  9.000E+00
      25     1     1     2     0     0  8.053662059E+01  4.096528673E+02  4.415237246E+02  6.203787700E+02  1.250000000E+02  0.00000E+00  9.000E+00
      21     1     1     2   502   512  1.092557206E+02 -1.651049775E+02 -1.569703295E+02  2.526581691E+02  5.722045898E-06  0.00000E+00  9.000E+00
#rwgt            1           1   2.7194488309083657E-002          10      323373           0
</event>
<event>
      5   9999  3.19816E-02  4.08467E+01 -1.00000E+00  1.44278E-01
      21    -1     0     0   502   501  0.000000000E+00  0.000000000E+00  9.435212543E+02  9.435212543E+02  0.000000000E+00  0.00000E+00  9.000E+00
      21    -1     0     0   501   511  0.000000000E+00  0.000000000E+00 -1.231686587E+02  1.231686587E+02  0.000000000E+00  0.00000E+00  9.000E+00
      25     1     1     2     0     0  1.828386018E+02  1.293305252E+01  7.808687448E+02  8.117747315E+02  1.250000000E+02  0.00000E+00  9.000E+00
      25     1     1     2     0     0 -1.622564383E+02  2.234903078E+01  5.142552622E+01  2.123586958E+02  1.250000000E+02  0.00000E+00  9.000E+00
      21     1     1     2   502   511 -2.058216353E+01 -3.528208330E+01 -1.194167548E+01  4.255648565E+01  1.369610464E-06  0.00000E+00  9.000E+00
#rwgt            1           1   2.7605840491425133E-002          10      323458           0
</event>
<event>
      5   9999  3.19816E-02  8.69962E+00 -1.00000E+00  2.03021E-01
      21    -1     0     0   512   501  0.000000000E+00  0.000000000E+00  4.204891816E+02  4.204891816E+02  0.000000000E+00  0.00000E+00  9.000E+00
      21    -1     0     0   501   502  0.000000000E+00  0.000000000E+00 -5.127330343E+02  5.127330343E+02  0.000000000E+00  0.00000E+00  9.000E+00
      25     1     1     2     0     0 -3.944076719E+02 -1.245554665E+02  5.250046773E+01  4.352617316E+02  1.250000000E+02  0.00000E+00  9.000E+00
      25     1     1     2     0     0  3.857154557E+02  1.241966226E+02 -1.807096742E+02  4.609579159E+02  1.250000000E+02  0.00000E+00  9.000E+00
      21     1     1     2   512   502  8.692216237E+00  3.588438315E-01  3.596535379E+01  3.700256836E+01  0.000000000E+00  0.00000E+00  9.000E+00
#rwgt            1           1   2.9399171244954749E-002          10      323560           0
</event>
<event>
      5   9999  3.19816E-02  3.22120E+01 -1.00000E+00  1.50924E-01
      21    -1     0     0   502   511  0.000000000E+00  0.000000000E+00  1.185825117E+03  1.185825117E+03  0.000000000E+00  0.00000E+00  9.000E+00
      21    -1     0     0   501   502  0.000000000E+00  0.000000000E+00 -4.420813824E+02  4.420813824E+02  0.000000000E+00  0.00000E+00  9.000E+00
      25     1     1     2     0     0 -5.999487001E+02  1.156800769E+01  7.216060509E+02  9.467906602E+02  1.250000000E+02  0.00000E+00  9.000E+00
      25     1     1     2     0     0  6.278334705E+02 -2.769425019E+01 -2.174692692E+00  6.407585875E+02  1.250000000E+02  0.00000E+00  9.000E+00
      21     1     1     2   501   511 -2.788477042E+01  1.612624250E+01  2.431237616E+01  4.035725156E+01  3.371747881E-07  0.00000E+00  9.000E+00
#rwgt            1           1   2.5642496534909871E-002          10      323841           0
</event>
<event>
      5   9999  4.27010E-02  8.97140E+00 -1.00000E+00  2.01369E-01
      21    -1     0     0   502   501  0.000000000E+00  0.000000000E+00  1.777969730E+03  1.777969730E+03  0.000000000E+00  0.00000E+00  9.000E+00
      21    -1     0     0   501   512  0.000000000E+00  0.000000000E+00 -1.414797497E+02  1.414797497E+02  0.000000000E+00  0.00000E+00  9.000E+00
      25     1     1     2     0     0 -1.007547730E+02 -1.707360084E+00  5.999010144E+02  6.210158342E+02  1.250000000E+02  0.00000E+00  9.000E+00
      25     1     1     2     0     0  1.007448416E+02 -7.264032668E+00  1.161819660E+03  1.172882011E+03  1.250000000E+02  0.00000E+00  9.000E+00
      21     1     1     2   502   512  9.931370227E-03  8.971392752E+00 -1.252306944E+02  1.255516341E+02  1.907348633E-06  0.00000E+00  9.000E+00
#rwgt            1           1  0.12561081987449893               10      323998           0
</event>
<event>
      5   9999  3.19816E-02  4.55166E+01 -1.00000E+00  1.41444E-01
      21    -1     0     0   502   511  0.000000000E+00  0.000000000E+00  5.748313013E+02  5.748313013E+02  0.000000000E+00  0.00000E+00  9.000E+00
      21    -1     0     0   501   502  0.000000000E+00  0.000000000E+00 -9.421100243E+02  9.421100243E+02  0.000000000E+00  0.00000E+00  9.000E+00
      25     1     1     2     0     0 -1.264902344E+02 -2.716906957E+02 -2.362866281E+02  4.015868326E+02  1.250000000E+02  0.00000E+00  9.000E+00
      25     1     1     2     0     0  1.720066814E+02  2.715808910E+02 -5.741918048E+02  6.698236391E+02  1.250000000E+02  0.00000E+00  9.000E+00
      21     1     1     2   501   511 -4.551644697E+01  1.098047141E-01  4.431997098E+02  4.455308539E+02  5.394796609E-06  0.00000E+00  9.000E+00
#rwgt            1           1   2.7882980952590935E-002          10      324172           0
</event>
<event>
      5   9999  3.19816E-02  4.49954E+01 -1.00000E+00  1.41740E-01
      21    -1     0     0   502   501  0.000000000E+00  0.000000000E+00  7.320085842E+02  7.320085842E+02  0.000000000E+00  0.00000E+00  9.000E+00
       2    -1     0     0   501     0  0.000000000E+00  0.000000000E+00 -1.826813587E+03  1.826813587E+03  0.000000000E+00  0.00000E+00  9.000E+00
      25     1     1     2     0     0 -4.855858176E+02 -7.080900771E+01 -1.572940448E+03  1.652444902E+03  1.250000000E+02  0.00000E+00  9.000E+00
      25     1     1     2     0     0  4.521090120E+02  4.074428420E+01  6.079681244E+02  7.689687222E+02  1.250000000E+02  0.00000E+00  9.000E+00
       2     1     1     2   502     0  3.347680565E+01  3.006472352E+01 -1.298326791E+02  1.374085466E+02  0.000000000E+00  0.00000E+00  9.000E+00
#rwgt            1           1   1.8833893896351796E-002          10      324251           0
</event>
<event>
      5   9999  3.19816E-02  7.11701E+01 -1.00000E+00  1.30857E-01
      21    -1     0     0   502   501  0.000000000E+00  0.000000000E+00  1.568181347E+03  1.568181347E+03  0.000000000E+00  0.00000E+00  9.000E+00
      21    -1     0     0   501   511  0.000000000E+00  0.000000000E+00 -5.828821631E+02  5.828821631E+02  0.000000000E+00  0.00000E+00  9.000E+00
      25     1     1     2     0     0  7.303234933E+02 -1.943472994E+02 -3.035463426E+01  7.666092104E+02  1.250000000E+02  0.00000E+00  9.000E+00
      25     1     1     2     0     0 -7.997529311E+02  1.787030458E+02  1.018527573E+03  1.313226160E+03  1.250000000E+02  0.00000E+00  9.000E+00
      21     1     1     2   502   511  6.942943784E+01  1.564425352E+01 -2.873754688E+00  7.122814032E+01  1.697424753E-06  0.00000E+00  9.000E+00
#rwgt            1           1   3.0298377558001958E-002          10      324440           0
</event>
<event>
      5   9999  3.19816E-02  2.43823E+02 -1.00000E+00  1.08603E-01
      21    -1     0     0   512   501  0.000000000E+00  0.000000000E+00  3.872450960E+02  3.872450960E+02  0.000000000E+00  0.00000E+00  9.000E+00
      21    -1     0     0   501   502  0.000000000E+00  0.000000000E+00 -1.106646130E+03  1.106646130E+03  0.000000000E+00  0.00000E+00  9.000E+00
      25     1     1     2     0     0  2.368254080E+02 -5.290363840E+02 -2.366082096E+02  6.384153932E+02  1.250000000E+02  0.00000E+00  9.000E+00
      25     1     1     2     0     0 -1.291563735E+01  4.325270404E+02 -3.858539075E+02  5.930891099E+02  1.250000000E+02  0.00000E+00  9.000E+00
      21     1     1     2   512   502 -2.239097706E+02  9.650934357E+01 -9.693891717E+01  2.623867231E+02  5.046370146E-06  0.00000E+00  9.000E+00
#rwgt            1           1   3.0397246666278098E-002          10      324612           0
</event>
<event>
      5   9999  3.19816E-02  2.58572E+01 -1.00000E+00  1.57662E-01
      21    -1     0     0   502   501  0.000000000E+00  0.000000000E+00  2.743882753E+02  2.743882753E+02  0.000000000E+00  0.00000E+00  9.000E+00
      21    -1     0     0   511   502  0.000000000E+00  0.000000000E+00 -2.670095160E+03  2.670095160E+03  0.000000000E+00  0.00000E+00  9.000E+00
      25     1     1     2     0     0  1.477252168E+01  1.361604831E+02 -2.585236643E+03  2.591877969E+03  1.250000000E+02  0.00000E+00  9.000E+00
      25     1     1     2     0     0 -2.827479393E+01 -1.141086644E+02  2.405061230E+02  2.954461820E+02  1.250000000E+02  0.00000E+00  9.000E+00
      21     1     1     2   511   501  1.350227225E+01 -2.205181868E+01 -5.097636468E+01  5.715928463E+01  0.000000000E+00  0.00000E+00  9.000E+00
#rwgt            1           1   2.2905807696682323E-002          10      324648           0
</event>
<event>
      5   9999  3.19816E-02  1.34703E+02 -1.00000E+00  1.18275E-01
      21    -1     0     0   502   501  0.000000000E+00  0.000000000E+00  2.779929148E+02  2.779929148E+02  0.000000000E+00  0.00000E+00  9.000E+00
      21    -1     0     0   501   512  0.000000000E+00  0.000000000E+00 -1.052843198E+03  1.052843198E+03  0.000000000E+00  0.00000E+00  9.000E+00
      25     1     1     2     0     0 -3.302500321E+02  3.430535921E+02 -4.614278846E+02  6.747529499E+02  1.250000000E+02  0.00000E+00  9.000E+00
      25     1     1     2     0     0  2.030805514E+02 -2.986357919E+02 -8.593828726E+01  3.917083555E+02  1.250000000E+02  0.00000E+00  9.000E+00
      21     1     1     2   502   512  1.271694808E+02 -4.441780018E+01 -2.274841112E+02  2.643748071E+02  4.672030912E-06  0.00000E+00  9.000E+00
#rwgt            1           1   2.9129352383475686E-002          10      324860           0
</event>
<event>
      5   9999  3.19816E-02  2.77689E+01 -1.00000E+00  1.55408E-01
      21    -1     0     0   502   501  0.000000000E+00  0.000000000E+00  4.649857288E+02  4.649857288E+02  0.000000000E+00  0.00000E+00  9.000E+00
      -1    -1     0     0     0   502  0.000000000E+00  0.000000000E+00 -2.314903937E+02  2.314903937E+02  0.000000000E+00  0.00000E+00  9.000E+00
      25     1     1     2     0     0 -2.039237844E+02 -5.621776762E+01 -6.651811279E+01  2.545486330E+02  1.250000000E+02  0.00000E+00  9.000E+00
      25     1     1     2     0     0  2.282397892E+02  4.280719754E+01  3.146356176E+02  4.105440651E+02  1.250000000E+02  0.00000E+00  9.000E+00
      -1     1     1     2     0   501 -2.431600477E+01  1.341057008E+01 -1.462216975E+01  3.138342438E+01  6.307962682E-07  0.00000E+00  9.000E+00
#rwgt            1           1   2.9436568524699745E-002          10      324914           0
</event>
<event>
      5   9999  3.19816E-02  2.81438E+01 -1.00000E+00  1.54992E-01
      21    -1     0     0   502   511  0.000000000E+00  0.000000000E+00  5.635922620E+02  5.635922620E+02  0.000000000E+00  0.00000E+00  9.000E+00
      21    -1     0     0   501   502  0.000000000E+00  0.000000000E+00 -7.345975892E+01  7.345975892E+01  0.000000000E+00  0.00000E+00  9.000E+00
      25     1     1     2     0     0  4.210422998E+01  1.088251158E+02  9.470350354E+01  1.954723142E+02  1.250000000E+02  0.00000E+00  9.000E+00
      25     1     1     2     0     0 -6.470932272E+01 -9.205959535E+01  3.312941853E+02  3.715415223E+02  1.250000000E+02  0.00000E+00  9.000E+00
      21     1     1     2   501   511  2.260509274E+01 -1.676552047E+01  6.413481424E+01  7.003818453E+01  9.536743164E-07  0.00000E+00  9.000E+00
#rwgt            1           1   2.7683638545432324E-002          10      325005           0
</event>
<event>
      5   9999  3.19816E-02  3.41970E+01 -1.00000E+00  1.49192E-01
      21    -1     0     0   502   501  0.000000000E+00  0.000000000E+00  3.596024015E+02  3.596024015E+02  0.000000000E+00  0.00000E+00  9.000E+00
      21    -1     0     0   512   502  0.000000000E+00  0.000000000E+00 -6.296352099E+02  6.296352099E+02  0.000000000E+00  0.00000E+00  9.000E+00
      25     1     1     2     0     0 -4.095244624E+02 -7.259022281E+01 -2.668882653E+02  5.097391215E+02  1.250000000E+02  0.00000E+00  9.000E+00
      25     1     1     2     0     0  3.770440792E+02  6.189164108E+01  6.118287494E+01  4.066462309E+02  1.250000000E+02  0.00000E+00  9.000E+00
      21     1     1     2   512   501  3.248038322E+01  1.069858173E+01 -6.432741798E+01  7.285225906E+01  0.000000000E+00  0.00000E+00  9.000E+00
#rwgt            1           1   2.9504469928144671E-002          10      325092           0
</event>
<event>
      5   9999  3.19816E-02  3.09616E+01 -1.00000E+00  1.52094E-01
      21    -1     0     0   502   501  0.000000000E+00  0.000000000E+00  8.921125119E+02  8.921125119E+02  0.000000000E+00  0.00000E+00  9.000E+00
      21    -1     0     0   511   502  0.000000000E+00  0.000000000E+00 -2.358455304E+02  2.358455304E+02  0.000000000E+00  0.00000E+00  9.000E+00
      25     1     1     2     0     0 -5.292439904E+01  4.038607266E+02  2.740849814E+02  5.066083848E+02  1.250000000E+02  0.00000E+00  9.000E+00
      25     1     1     2     0     0  5.056829291E+01 -4.347324992E+02  3.745552817E+02  5.894626003E+02  1.250000000E+02  0.00000E+00  9.000E+00
      21     1     1     2   511   501  2.356106128E+00  3.087177264E+01  7.626718366E+00  3.188705717E+01  1.192092896E-07  0.00000E+00  9.000E+00
#rwgt            1           1   2.8987871503186064E-002          10      325230           0
</event>
<event>
      5   9999  3.19816E-02  5.00682E+01 -1.00000E+00  1.39042E-01
      21    -1     0     0   502   501  0.000000000E+00  0.000000000E+00  8.678015349E+02  8.678015349E+02  0.000000000E+00  0.00000E+00  9.000E+00
      21    -1     0     0   501   512  0.000000000E+00  0.000000000E+00 -1.650551193E+02  1.650551193E+02  0.000000000E+00  0.00000E+00  9.000E+00
      25     1     1     2     0     0 -3.937392613E+01  3.702390909E+01  4.271838803E+01  1.427267900E+02  1.250000000E+02  0.00000E+00  9.000E+00
      25     1     1     2     0     0  3.157045709E+01 -8.648027127E+01  7.614011583E+02  7.770664417E+02  1.250000000E+02  0.00000E+00  9.000E+00
      21     1     1     2   502   512  7.803469039E+00  4.945636218E+01 -1.013731307E+02  1.130634225E+02  3.015782986E-06  0.00000E+00  9.000E+00
#rwgt            1           1   3.0450736740571149E-002          10      325364           0
</event>
<event>
      5   9999  3.19816E-02  5.73297E+01 -1.00000E+00  1.35769E-01
      21    -1     0     0   502   511  0.000000000E+00  0.000000000E+00  4.028954856E+02  4.028954856E+02  0.000000000E+00  0.00000E+00  9.000E+00
      21    -1     0     0   501   502  0.000000000E+00  0.000000000E+00 -3.123048883E+02  3.123048883E+02  0.000000000E+00  0.00000E+00  9.000E+00
      25     1     1     2     0     0 -3.500799133E+01 -1.607019956E+01  2.675474176E+02  2.978093877E+02  1.250000000E+02  0.00000E+00  9.000E+00
      25     1     1     2     0     0  9.727391898E+00  6.752488080E+01 -2.716398633E+02  3.067041686E+02  1.250000000E+02  0.00000E+00  9.000E+00
      21     1     1     2   501   511  2.528059943E+01 -5.145468124E+01  9.468304307E+01  1.106868175E+02  1.907348633E-06  0.00000E+00  9.000E+00
#rwgt            1           1   2.7956988583392278E-002          10      325499           0
</event>
<event>
      5   9999  3.19816E-02  6.51774E+01 -1.00000E+00  1.32810E-01
      21    -1     0     0   502   501  0.000000000E+00  0.000000000E+00  1.287809279E+03  1.287809279E+03  0.000000000E+00  0.00000E+00  9.000E+00
      21    -1     0     0   512   502  0.000000000E+00  0.000000000E+00 -7.368160227E+02  7.368160227E+02  0.000000000E+00  0.00000E+00  9.000E+00
      25     1     1     2     0     0  1.799551676E+02 -1.259204282E+02  1.221171012E+03  1.247045893E+03  1.250000000E+02  0.00000E+00  9.000E+00
      25     1     1     2     0     0 -2.027295302E+02  6.485144365E+01 -2.462393406E+02  3.486599848E+02  1.250000000E+02  0.00000E+00  9.000E+00
      21     1     1     2   512   501  2.277436256E+01  6.106898455E+01 -4.239384155E+02  4.289194243E+02  9.344061824E-06  0.00000E+00  9.000E+00
#rwgt            2          11   5.5228375612963463E-003          10      325644           0
</event>
<event>
      5   9999  3.19816E-02  1.94707E+02 -1.00000E+00  1.12074E-01
      21    -1     0     0   502   511  0.000000000E+00  0.000000000E+00  9.510663018E+02  9.510663018E+02  0.000000000E+00  0.00000E+00  9.000E+00
      21    -1     0     0   501   502  0.000000000E+00  0.000000000E+00 -4.429334013E+02  4.429334013E+02  0.000000000E+00  0.00000E+00  9.000E+00
      25     1     1     2     0     0 -3.781031034E+02 -2.461237618E+02  9.055502243E+01  4.768270913E+02  1.250000000E+02  0.00000E+00  9.000E+00
      25     1     1     2     0     0  4.246283143E+02  4.351903698E+02  3.382937743E+02  7.069423888E+02  1.250000000E+02  0.00000E+00  9.000E+00
      21     1     1     2   501   511 -4.652521096E+01 -1.890666081E+02  7.928410375E+01  2.102302230E+02  3.693564745E-06  0.00000E+00  9.000E+00
#rwgt            1           1   2.7279520562619019E-002          10      325664           0
</event>
<event>
      5   9999  3.19816E-02  6.68000E+01 -1.00000E+00  1.32258E-01
       2    -1     0     0   502     0  0.000000000E+00  0.000000000E+00  4.052749599E+02  4.052749599E+02  0.000000000E+00  0.00000E+00  9.000E+00
      21    -1     0     0   501   502  0.000000000E+00  0.000000000E+00 -1.115751010E+03  1.115751010E+03  0.000000000E+00  0.00000E+00  9.000E+00
      25     1     1     2     0     0  2.739853420E+02 -1.287541353E+02 -4.077144710E+01  3.300498537E+02  1.250000000E+02  0.00000E+00  9.000E+00
      25     1     1     2     0     0 -3.021945632E+02  6.820266185E+01 -8.953550614E+02  9.556457728E+02  1.250000000E+02  0.00000E+00  9.000E+00
       2     1     1     2   501     0  2.820922114E+01  6.055147347E+01  2.256504584E+02  2.353303433E+02  0.000000000E+00  0.00000E+00  9.000E+00
#rwgt            1           1   3.0349376947324484E-002          10      325741           0
</event>
<event>
      5   9999  3.19816E-02  9.42824E+01 -1.00000E+00  1.24989E-01
      21    -1     0     0   502   501  0.000000000E+00  0.000000000E+00  2.546229460E+01  2.546229460E+01  0.000000000E+00  0.00000E+00  9.000E+00
       1    -1     0     0   501     0  0.000000000E+00  0.000000000E+00 -4.104349481E+03  4.104349481E+03  0.000000000E+00  0.00000E+00  9.000E+00
      25     1     1     2     0     0  1.479389969E+02 -1.983375561E+02 -1.465875365E+03  1.491857674E+03  1.250000000E+02  0.00000E+00  9.000E+00
      25     1     1     2     0     0 -5.476120365E+01  1.839476438E+02 -1.191230076E+03  1.213049718E+03  1.250000000E+02  0.00000E+00  9.000E+00
       1     1     1     2   502     0 -9.317779329E+01  1.438991227E+01 -1.421781746E+03  1.424904384E+03  2.157918644E-05  0.00000E+00  9.000E+00
#rwgt            1           1   5.8605505335158604E-002          10      325826           0
</event>
<event>
      5   9999  3.19816E-02  2.55504E+01 -1.00000E+00  1.58046E-01
      21    -1     0     0   502   511  0.000000000E+00  0.000000000E+00  2.884441492E+02  2.884441492E+02  0.000000000E+00  0.00000E+00  9.000E+00
      21    -1     0     0   501   502  0.000000000E+00  0.000000000E+00 -8.795996069E+02  8.795996069E+02  0.000000000E+00  0.00000E+00  9.000E+00
      25     1     1     2     0     0 -3.740408464E+02 -7.289514610E+00 -5.921339417E+02  7.114824641E+02  1.250000000E+02  0.00000E+00  9.000E+00
      25     1     1     2     0     0  3.603161907E+02  2.884075600E+01 -6.304036650E+01  3.876320862E+02  1.250000000E+02  0.00000E+00  9.000E+00
      21     1     1     2   501   511  1.372465576E+01 -2.155124139E+01  6.401885057E+01  6.892920578E+01  9.536743164E-07  0.00000E+00  9.000E+00
#rwgt            1           1   2.7144387785274414E-002          10      325893           0
</event>
<event>
      5   9999  3.19816E-02  2.17632E+02 -1.00000E+00  1.10328E-01
       3    -1     0     0   502     0  0.000000000E+00  0.000000000E+00  3.042429961E+03  3.042429961E+03  0.000000000E+00  0.00000E+00  9.000E+00
      21    -1     0     0   501   502  0.000000000E+00  0.000000000E+00 -1.760574143E+02  1.760574143E+02  0.000000000E+00  0.00000E+00  9.000E+00
      25     1     1     2     0     0  4.149422926E+02 -1.820307529E+02  4.335626141E+02  6.394637140E+02  1.250000000E+02  0.00000E+00  9.000E+00
      25     1     1     2     0     0 -2.021423518E+02  1.364227920E+02  2.091364426E+02  3.447256303E+02  1.250000000E+02  0.00000E+00  9.000E+00
       3     1     1     2   501     0 -2.127999408E+02  4.560796084E+01  2.223673490E+03  2.234298031E+03  3.051757812E-05  0.00000E+00  9.000E+00
#rwgt            2          19   3.0605014226479941E-005          10      326124           0
</event>
<event>
      5   9999  3.19816E-02  8.75909E+01 -1.00000E+00  1.26472E-01
      21    -1     0     0   502   501  0.000000000E+00  0.000000000E+00  1.063899526E+02  1.063899526E+02  0.000000000E+00  0.00000E+00  9.000E+00
      -1    -1     0     0     0   502  0.000000000E+00  0.000000000E+00 -1.791160090E+03  1.791160090E+03  0.000000000E+00  0.00000E+00  9.000E+00
      25     1     1     2     0     0  3.139320299E+02 -1.472555553E+02 -1.257007187E+03  1.309934955E+03  1.250000000E+02  0.00000E+00  9.000E+00
      25     1     1     2     0     0 -2.773534362E+02  6.766807270E+01 -3.644730030E+02  4.795513180E+02  1.250000000E+02  0.00000E+00  9.000E+00
      -1     1     1     2     0   501 -3.657859370E+01  7.958748259E+01 -6.328994776E+01  1.080637700E+02  9.536743164E-07  0.00000E+00  9.000E+00
#rwgt            1           1   3.3617259542817648E-002          10      326143           0
</event>
<event>
      5   9999  3.19816E-02  1.18254E+03 -1.00000E+00  8.92767E-02
      21    -1     0     0   502   501  0.000000000E+00  0.000000000E+00  3.508858087E+03  3.508858087E+03  0.000000000E+00  0.00000E+00  9.000E+00
       2    -1     0     0   501     0  0.000000000E+00  0.000000000E+00 -1.336837687E+03  1.336837687E+03  0.000000000E+00  0.00000E+00  9.000E+00
      25     1     1     2     0     0 -4.473614691E+02  6.239485205E+02  1.813983417E+03  1.973728674E+03  1.250000000E+02  0.00000E+00  9.000E+00
      25     1     1     2     0     0  3.790906110E+02  5.566188404E+02  1.226489002E+03  1.404789840E+03  1.250000000E+02  0.00000E+00  9.000E+00
       2     1     1     2   502     0  6.827085814E+01 -1.180567361E+03 -8.684520190E+02  1.467177260E+03  2.157918644E-05  0.00000E+00  9.000E+00
#rwgt            2          13   2.3553844695245896E-003          10      326268           0
</event>
<event>
      5   9999  3.19816E-02  2.92185E+02 -1.00000E+00  1.05966E-01
      21    -1     0     0   502   501  0.000000000E+00  0.000000000E+00  1.689818817E+03  1.689818817E+03  0.000000000E+00  0.00000E+00  9.000E+00
      21    -1     0     0   501   511  0.000000000E+00  0.000000000E+00 -3.803811852E+02  3.803811852E+02  0.000000000E+00  0.00000E+00  9.000E+00
      25     1     1     2     0     0 -2.645077842E+02  3.817657256E+02  9.929455116E+02  1.103301965E+03  1.250000000E+02  0.00000E+00  9.000E+00
      25     1     1     2     0     0  5.361509525E+02 -2.741446327E+02  1.601775590E+02  6.355273196E+02  1.250000000E+02  0.00000E+00  9.000E+00
      21     1     1     2   502   511 -2.716431683E+02 -1.076210930E+02  1.563145615E+02  3.313707179E+02  3.814697266E-06  0.00000E+00  9.000E+00
#rwgt            2          11   4.6168941930843340E-003          10      326317           0
</event>
<event>
      5   9999  3.19816E-02  2.36672E+02 -1.00000E+00  1.09049E-01
      21    -1     0     0   502   501  0.000000000E+00  0.000000000E+00  2.464851897E+02  2.464851897E+02  0.000000000E+00  0.00000E+00  9.000E+00
      21    -1     0     0   512   502  0.000000000E+00  0.000000000E+00 -1.067271551E+03  1.067271551E+03  0.000000000E+00  0.00000E+00  9.000E+00
      25     1     1     2     0     0  2.495939747E+01  3.473523003E+02  3.004789476E+01  3.712202419E+02  1.250000000E+02  0.00000E+00  9.000E+00
      25     1     1     2     0     0 -2.093728699E+01 -1.107143011E+02 -3.784273502E+02  4.141597346E+02  1.250000000E+02  0.00000E+00  9.000E+00
      21     1     1     2   512   501 -4.022110482E+00 -2.366379992E+02 -4.724069056E+02  5.283767638E+02  1.078959322E-05  0.00000E+00  9.000E+00
#rwgt            2          11   2.5490172862950937E-003          10      326382           0
</event>
<event>
      5   9999  3.19816E-02  2.04536E+02 -1.00000E+00  1.11295E-01
      21    -1     0     0   511   501  0.000000000E+00  0.000000000E+00  8.282808867E+02  8.282808867E+02  0.000000000E+00  0.00000E+00  9.000E+00
      21    -1     0     0   501   502  0.000000000E+00  0.000000000E+00 -7.785271664E+02  7.785271664E+02  0.000000000E+00  0.00000E+00  9.000E+00
      25     1     1     2     0     0 -3.166942898E+02 -7.007302788E+02  2.431571618E+01  7.794449633E+02  1.250000000E+02  0.00000E+00  9.000E+00
      25     1     1     2     0     0  1.744416099E+02  5.537632567E+02 -7.655647538E+01  5.988067415E+02  1.250000000E+02  0.00000E+00  9.000E+00
      21     1     1     2   511   502  1.422526799E+02  1.469670221E+02  1.019944795E+02  2.285563483E+02  2.697398305E-06  0.00000E+00  9.000E+00
#rwgt            1           1   2.2679410859466318E-002          10      326402           0
</event>
<event>
      5   9999  3.19816E-02  8.28622E+01 -1.00000E+00  1.27615E-01
      21    -1     0     0   502   501  0.000000000E+00  0.000000000E+00  7.589675421E+02  7.589675421E+02  0.000000000E+00  0.00000E+00  9.000E+00
       1    -1     0     0   501     0  0.000000000E+00  0.000000000E+00 -6.544205275E+02  6.544205275E+02  0.000000000E+00  0.00000E+00  9.000E+00
      25     1     1     2     0     0 -9.330103540E+00 -4.757105869E+01  6.278450414E+02  6.420003524E+02  1.250000000E+02  0.00000E+00  9.000E+00
      25     1     1     2     0     0  4.056728049E+01  1.243198401E+02  5.351517544E+01  1.886531232E+02  1.250000000E+02  0.00000E+00  9.000E+00
       1     1     1     2   502     0 -3.123717695E+01 -7.674878139E+01 -5.768132023E+02  5.827345940E+02  7.629394531E-06  0.00000E+00  9.000E+00
#rwgt            1           1   3.3363923590586153E-002          10      326501           0
</event>
<event>
      5   9999  3.19816E-02  1.91410E+02 -1.00000E+00  1.12347E-01
      21    -1     0     0   502   501  0.000000000E+00  0.000000000E+00  8.258562748E+02  8.258562748E+02  0.000000000E+00  0.00000E+00  9.000E+00
      21    -1     0     0   511   502  0.000000000E+00  0.000000000E+00 -7.873823748E+02  7.873823748E+02  0.000000000E+00  0.00000E+00  9.000E+00
      25     1     1     2     0     0  1.078779622E+02  2.851226834E+02 -3.397698866E+02  4.732876242E+02  1.250000000E+02  0.00000E+00  9.000E+00
      25     1     1     2     0     0 -4.442961710E+01 -4.657111067E+02  6.481491723E+02  8.090631467E+02  1.250000000E+02  0.00000E+00  9.000E+00
      21     1     1     2   511   501 -6.344834506E+01  1.805884233E+02 -2.699053857E+02  3.308878788E+02  3.814697266E-06  0.00000E+00  9.000E+00
#rwgt            1           1   2.8630240408610043E-002          10      326584           0
</event>
<event>
      5   9999  3.19816E-02  1.86349E+02 -1.00000E+00  1.12777E-01
      21    -1     0     0   502   512  0.000000000E+00  0.000000000E+00  6.298215704E+02  6.298215704E+02  0.000000000E+00  0.00000E+00  9.000E+00
      21    -1     0     0   501   502  0.000000000E+00  0.000000000E+00 -5.025963655E+02  5.025963655E+02  0.000000000E+00  0.00000E+00  9.000E+00
      25     1     1     2     0     0  9.921856998E+01 -1.020072381E+02 -2.211802584E+01  1.906934931E+02  1.250000000E+02  0.00000E+00  9.000E+00
      25     1     1     2     0     0  5.936752188E+01  4.148862582E+00 -3.672872921E+02  3.925132745E+02  1.250000000E+02  0.00000E+00  9.000E+00
      21     1     1     2   501   512 -1.585860919E+02  9.785837547E+01  5.166305229E+02  5.492111682E+02  0.000000000E+00  0.00000E+00  9.000E+00
#rwgt            2          11   6.8977372568411926E-003          10      326723           0
</event>
<event>
      5   9999  3.19816E-02  1.82806E+01 -1.00000E+00  1.69656E-01
      21    -1     0     0   502   501  0.000000000E+00  0.000000000E+00  8.330424632E+02  8.330424632E+02  0.000000000E+00  0.00000E+00  9.000E+00
      21    -1     0     0   501   511  0.000000000E+00  0.000000000E+00 -3.692023654E+02  3.692023654E+02  0.000000000E+00  0.00000E+00  9.000E+00
      25     1     1     2     0     0  5.214690047E+02 -8.536665387E+01  3.062129416E+02  6.233849165E+02  1.250000000E+02  0.00000E+00  9.000E+00
      25     1     1     2     0     0 -5.189528240E+02  6.726009777E+01  1.574394672E+02  5.605783979E+02  1.250000000E+02  0.00000E+00  9.000E+00
      21     1     1     2   502   511 -2.516180676E+00  1.810655610E+01  1.876889681E-01  1.828151433E+01  1.622747743E-07  0.00000E+00  9.000E+00
#rwgt            1           1   3.2140683993664355E-002          10      326743           0
</event>
<event>
      5   9999  3.19816E-02  2.01719E+02 -1.00000E+00  1.11513E-01
      21    -1     0     0   502   501  0.000000000E+00  0.000000000E+00  1.749448153E+03  1.749448153E+03  0.000000000E+00  0.00000E+00  9.000E+00
      21    -1     0     0   512   502  0.000000000E+00  0.000000000E+00 -2.208204153E+02  2.208204153E+02  0.000000000E+00  0.00000E+00  9.000E+00
      25     1     1     2     0     0  3.111829235E+02  8.360382216E+01  4.809012485E+02  5.922123114E+02  1.250000000E+02  0.00000E+00  9.000E+00
      25     1     1     2     0     0 -1.784758132E+02  6.831504818E+01  1.135379897E+03  1.158116174E+03  1.250000000E+02  0.00000E+00  9.000E+00
      21     1     1     2   512   501 -1.327071103E+02 -1.519188703E+02 -8.765340766E+01  2.199400831E+02  3.015782986E-06  0.00000E+00  9.000E+00
#rwgt            1           1   2.6377938791997315E-002          10      326920           0
</event>
<event>
      5   9999  3.19816E-02  2.17105E+01 -1.00000E+00  1.63481E-01
      21    -1     0     0   502   501  0.000000000E+00  0.000000000E+00  5.919713424E+02  5.919713424E+02  0.000000000E+00  0.00000E+00  9.000E+00
      21    -1     0     0   501   511  0.000000000E+00  0.000000000E+00 -6.983743899E+02  6.983743899E+02  0.000000000E+00  0.00000E+00  9.000E+00
      25     1     1     2     0     0  4.420270524E+02  3.939967490E+02  7.916589935E+00  6.052346864E+02  1.250000000E+02  0.00000E+00  9.000E+00
      25     1     1     2     0     0 -4.335355764E+02 -4.139777718E+02 -4.672610615E+01  6.141164552E+02  1.250000000E+02  0.00000E+00  9.000E+00
      21     1     1     2   502   511 -8.491475903E+00  1.998102283E+01 -6.759353130E+01  7.099459071E+01  9.536743164E-07  0.00000E+00  9.000E+00
#rwgt            1           1   2.5272575975100561E-002          10      326962           0
</event>
<event>
      5   9999  3.19816E-02  8.29132E+01 -1.00000E+00  1.27602E-01
      21    -1     0     0   502   512  0.000000000E+00  0.000000000E+00  1.826322125E+03  1.826322125E+03  0.000000000E+00  0.00000E+00  9.000E+00
      21    -1     0     0   501   502  0.000000000E+00  0.000000000E+00 -2.099022455E+02  2.099022455E+02  0.000000000E+00  0.00000E+00  9.000E+00
      25     1     1     2     0     0 -2.271668775E+02 -1.437975986E+02  1.362076272E+03  1.393972492E+03  1.250000000E+02  0.00000E+00  9.000E+00
      25     1     1     2     0     0  2.898361571E+02  8.950987868E+01 -4.543402604E+01  3.312193640E+02  1.250000000E+02  0.00000E+00  9.000E+00
      21     1     1     2   501   512 -6.266927956E+01  5.428771994E+01  2.997776342E+02  3.110325146E+02  0.000000000E+00  0.00000E+00  9.000E+00
#rwgt            2          11   3.1319680916203846E-003          10      327196           0
</event>
<event>
      5   9999  3.19816E-02  2.92529E+01 -1.00000E+00  1.53804E-01
      21    -1     0     0   502   501  0.000000000E+00  0.000000000E+00  1.787798701E+02  1.787798701E+02  0.000000000E+00  0.00000E+00  9.000E+00
      21    -1     0     0   511   502  0.000000000E+00  0.000000000E+00 -3.449032948E+03  3.449032948E+03  0.000000000E+00  0.00000E+00  9.000E+00
      25     1     1     2     0     0 -3.612538485E+02  6.336815318E+02 -1.387109512E+03  1.572181422E+03  1.250000000E+02  0.00000E+00  9.000E+00
      25     1     1     2     0     0  3.904550179E+02 -6.319428371E+02 -1.572500070E+03  1.743613587E+03  1.250000000E+02  0.00000E+00  9.000E+00
      21     1     1     2   511   501 -2.920116940E+01 -1.738694654E+00 -3.106434961E+02  3.120178089E+02  5.394796609E-06  0.00000E+00  9.000E+00
#rwgt            1           1   6.2745331820177774E-002          10      327216           0
</event>
<event>
      5   9999  3.19816E-02  1.60347E+01 -1.00000E+00  1.74697E-01
      21    -1     0     0   502   501  0.000000000E+00  0.000000000E+00  7.563060346E+02  7.563060346E+02  0.000000000E+00  0.00000E+00  9.000E+00
      21    -1     0     0   501   512  0.000000000E+00  0.000000000E+00 -1.194745666E+03  1.194745666E+03  0.000000000E+00  0.00000E+00  9.000E+00
      25     1     1     2     0     0  6.048686713E+02  8.869360410E+01 -7.977677615E+02  1.012813441E+03  1.250000000E+02  0.00000E+00  9.000E+00
      25     1     1     2     0     0 -5.988224278E+02 -1.035446498E+02  4.998935938E+02  7.967611937E+02  1.250000000E+02  0.00000E+00  9.000E+00
      21     1     1     2   502   512 -6.046243477E+00  1.485104571E+01 -1.405654634E+02  1.414770657E+02  2.697398305E-06  0.00000E+00  9.000E+00
#rwgt            1           1   2.8769746629339080E-002          10      327344           0
</event>
<event>
      5   9999  3.19816E-02  7.70917E+01 -1.00000E+00  1.29133E-01
      21    -1     0     0   502   511  0.000000000E+00  0.000000000E+00  3.668853756E+01  3.668853756E+01  0.000000000E+00  0.00000E+00  9.000E+00
      21    -1     0     0   501   502  0.000000000E+00  0.000000000E+00 -1.334693369E+03  1.334693369E+03  0.000000000E+00  0.00000E+00  9.000E+00
      25     1     1     2     0     0  1.783923467E+01  9.810487624E+01 -4.345495025E+02  4.630346371E+02  1.250000000E+02  0.00000E+00  9.000E+00
      25     1     1     2     0     0 -8.542373802E+01 -1.351921587E+02 -6.709272795E+02  7.009583077E+02  1.250000000E+02  0.00000E+00  9.000E+00
      21     1     1     2   501   511  6.758450334E+01  3.708728248E+01 -1.925280491E+02  2.073889614E+02  2.697398305E-06  0.00000E+00  9.000E+00
#rwgt            2          11   3.1273131406002411E-003          10      327754           0
</event>
<event>
      5   9999  3.19816E-02  9.84286E+01 -1.00000E+00  1.24138E-01
      21    -1     0     0   502   501  0.000000000E+00  0.000000000E+00  4.985071237E+02  4.985071237E+02  0.000000000E+00  0.00000E+00  9.000E+00
      21    -1     0     0   501   512  0.000000000E+00  0.000000000E+00 -1.062989096E+02  1.062989096E+02  0.000000000E+00  0.00000E+00  9.000E+00
      25     1     1     2     0     0 -8.852628756E-01  1.657541701E+02  2.502586422E+02  3.251609088E+02  1.250000000E+02  0.00000E+00  9.000E+00
      25     1     1     2     0     0  7.950944895E-01 -6.732564370E+01  7.465527436E+01  1.604112978E+02  1.250000000E+02  0.00000E+00  9.000E+00
      21     1     1     2   502   512  9.016838604E-02 -9.842852644E+01  6.729429750E+01  1.192338267E+02  9.536743164E-07  0.00000E+00  9.000E+00
#rwgt            1           1   2.3962251964988822E-002          10      327774           0
</event>
<event>
      5   9999  3.19816E-02  6.45945E+01 -1.00000E+00  1.33013E-01
      21    -1     0     0   502   511  0.000000000E+00  0.000000000E+00  2.030322835E+02  2.030322835E+02  0.000000000E+00  0.00000E+00  9.000E+00
      21    -1     0     0   501   502  0.000000000E+00  0.000000000E+00 -6.441825012E+02  6.441825012E+02  0.000000000E+00  0.00000E+00  9.000E+00
      25     1     1     2     0     0 -1.320454192E+02  2.691201288E+02 -1.131023390E+02  3.439168149E+02  1.250000000E+02  0.00000E+00  9.000E+00
      25     1     1     2     0     0  8.789088897E+01 -2.219732101E+02 -3.437810579E+02  4.368149839E+02  1.250000000E+02  0.00000E+00  9.000E+00
      21     1     1     2   501   511  4.415453024E+01 -4.714691876E+01  1.573317918E+01  6.648298592E+01  1.348699152E-06  0.00000E+00  9.000E+00
#rwgt            1           1   2.7621733733479512E-002          10      327839           0
</event>
<event>
      5   9999  3.19816E-02  7.19939E+01 -1.00000E+00  1.30606E-01
      21    -1     0     0   502   512  0.000000000E+00  0.000000000E+00  5.675856827E+02  5.675856827E+02  0.000000000E+00  0.00000E+00  9.000E+00
      21    -1     0     0   501   502  0.000000000E+00  0.000000000E+00 -3.722252291E+02  3.722252291E+02  0.000000000E+00  0.00000E+00  9.000E+00
      25     1     1     2     0     0  1.654585765E+02 -1.397908980E+02 -1.459771808E+02  2.895727422E+02  1.250000000E+02  0.00000E+00  9.000E+00
      25     1     1     2     0     0 -2.319464649E+02  1.121777608E+02 -1.493947440E+01  2.867598307E+02  1.250000000E+02  0.00000E+00  9.000E+00
      21     1     1     2   501   512  6.648788841E+01  2.761313722E+01  3.562771088E+02  3.634783390E+02  3.814697266E-06  0.00000E+00  9.000E+00
#rwgt            1           1   2.6396285465684184E-002          10      327909           0
</event>
<event>
      5   9999  3.19816E-02  4.02410E+01 -1.00000E+00  1.44679E-01
      21    -1     0     0   502   511  0.000000000E+00  0.000000000E+00  1.825138484E+03  1.825138484E+03  0.000000000E+00  0.00000E+00  9.000E+00
      21    -1     0     0   501   502  0.000000000E+00  0.000000000E+00 -8.681783555E+02  8.681783555E+02  0.000000000E+00  0.00000E+00  9.000E+00
      25     1     1     2     0     0 -1.039026731E+03  2.067159493E+02  6.163373821E+02  1.231992208E+03  1.250000000E+02  0.00000E+00  9.000E+00
      25     1     1     2     0     0  9.994541320E+02 -1.994121457E+02 -8.824274461E+01  1.030575348E+03  1.250000000E+02  0.00000E+00  9.000E+00
      21     1     1     2   501   511  3.957259902E+01 -7.303803594E+00  4.288654912E+02  4.307492840E+02  5.394796609E-06  0.00000E+00  9.000E+00
#rwgt            1           1   3.5425111708060113E-002          10      328001           0
</event>
<event>
      5   9999  3.19816E-02  9.07174E+01 -1.00000E+00  1.25761E-01
      21    -1     0     0   502   501  0.000000000E+00  0.000000000E+00  7.967503027E+02  7.967503027E+02  0.000000000E+00  0.00000E+00  9.000E+00
      21    -1     0     0   501   512  0.000000000E+00  0.000000000E+00 -7.121932274E+02  7.121932274E+02  0.000000000E+00  0.00000E+00  9.000E+00
      25     1     1     2     0     0 -2.572282035E+02 -5.101334904E+02 -5.390824371E+01  5.873105018E+02  1.250000000E+02  0.00000E+00  9.000E+00
      25     1     1     2     0     0  2.564584455E+02  6.008476380E+02  3.051975458E+02  7.318192129E+02  1.250000000E+02  0.00000E+00  9.000E+00
      21     1     1     2   502   512  7.697580059E-01 -9.071414760E+01 -1.667322267E+02  1.898138154E+02  4.264961200E-06  0.00000E+00  9.000E+00
#rwgt            1           1   2.3552121353791401E-002          10      328164           0
</event>
<event>
      5   9999  3.19816E-02  4.66721E+01 -1.00000E+00  1.40804E-01
      21    -1     0     0   502   511  0.000000000E+00  0.000000000E+00  2.095873038E+02  2.095873038E+02  0.000000000E+00  0.00000E+00  9.000E+00
      21    -1     0     0   501   502  0.000000000E+00  0.000000000E+00 -1.344569635E+03  1.344569635E+03  0.000000000E+00  0.00000E+00  9.000E+00
      25     1     1     2     0     0  9.418654610E+01 -1.109319912E+02 -8.182631442E+02  8.404502277E+02  1.250000000E+02  0.00000E+00  9.000E+00
      25     1     1     2     0     0 -1.290928243E+02  7.995069968E+01 -4.932999697E+02  5.310620790E+02  1.250000000E+02  0.00000E+00  9.000E+00
      21     1     1     2   501   511  3.490627818E+01  3.098129148E+01  1.765807828E+02  1.826446318E+02  5.046370146E-06  0.00000E+00  9.000E+00
#rwgt            1           1   4.3871349945171771E-002          10      328279           0
</event>
<event>
      5   9999  3.19816E-02  3.48499E+01 -1.00000E+00  1.48653E-01
      21    -1     0     0   502   501  0.000000000E+00  0.000000000E+00  1.418382546E+02  1.418382546E+02  0.000000000E+00  0.00000E+00  9.000E+00
      21    -1     0     0   512   502  0.000000000E+00  0.000000000E+00 -2.156954124E+03  2.156954124E+03  0.000000000E+00  0.00000E+00  9.000E+00
      25     1     1     2     0     0 -9.708598562E+01 -9.378092682E+01  7.230738696E+01  1.976712145E+02  1.250000000E+02  0.00000E+00  9.000E+00
      25     1     1     2     0     0  6.888521964E+01  1.142560630E+02 -1.284894301E+03  1.297835886E+03  1.250000000E+02  0.00000E+00  9.000E+00
      21     1     1     2   512   501  2.820076598E+01 -2.047513623E+01 -8.025289550E+02  8.032852781E+02  0.000000000E+00  0.00000E+00  9.000E+00
#rwgt            1           1   2.9256750969872552E-002          10      328325           0
</event>
<event>
      5   9999  3.19816E-02  6.26263E+01 -1.00000E+00  1.33717E-01
      21    -1     0     0   502   501  0.000000000E+00  0.000000000E+00  1.024962783E+03  1.024962783E+03  0.000000000E+00  0.00000E+00  9.000E+00
      21    -1     0     0   511   502  0.000000000E+00  0.000000000E+00 -3.762191065E+02  3.762191065E+02  0.000000000E+00  0.00000E+00  9.000E+00
      25     1     1     2     0     0  3.994330133E+01  3.615017041E+02 -1.561300693E+02  4.150669198E+02  1.250000000E+02  0.00000E+00  9.000E+00
      25     1     1     2     0     0  2.253617345E+01 -3.572151170E+02  8.346872885E+02  9.167542684E+02  1.250000000E+02  0.00000E+00  9.000E+00
      21     1     1     2   511   501 -6.247947478E+01 -4.286587026E+00 -2.981354251E+01  6.936070151E+01  1.507891493E-06  0.00000E+00  9.000E+00
#rwgt            1           1   3.0411563827815229E-002          10      328436           0
</event>
<event>
      5   9999  3.19816E-02  1.47776E+02 -1.00000E+00  1.16651E-01
      21    -1     0     0   502   512  0.000000000E+00  0.000000000E+00  3.182068953E+02  3.182068953E+02  0.000000000E+00  0.00000E+00  9.000E+00
      21    -1     0     0   501   502  0.000000000E+00  0.000000000E+00 -3.316844614E+02  3.316844614E+02  0.000000000E+00  0.00000E+00  9.000E+00
      25     1     1     2     0     0  1.790098437E+00  1.002690155E+02 -1.385671110E+02  2.118559043E+02  1.250000000E+02  0.00000E+00  9.000E+00
      25     1     1     2     0     0 -7.128273427E+01 -2.306859283E+02  8.628029830E+01  2.852481649E+02  1.250000000E+02  0.00000E+00  9.000E+00
      21     1     1     2   501   512  6.949263583E+01  1.304169129E+02  3.880924663E+01  1.527872875E+02  3.693564745E-06  0.00000E+00  9.000E+00
#rwgt            2          11   2.9540606211540922E-003          10      328562           0
</event>
<event>
      5   9999  3.19816E-02  4.62500E+02 -1.00000E+00  9.98235E-02
      21    -1     0     0   502   501  0.000000000E+00  0.000000000E+00  1.933412281E+02  1.933412281E+02  0.000000000E+00  0.00000E+00  9.000E+00
       2    -1     0     0   501     0  0.000000000E+00  0.000000000E+00 -2.384076694E+03  2.384076694E+03  0.000000000E+00  0.00000E+00  9.000E+00
      25     1     1     2     0     0  2.818315045E+02  4.120349850E+01 -1.499164280E+03  1.531092833E+03  1.250000000E+02  0.00000E+00  9.000E+00
      25     1     1     2     0     0  1.769250776E+02 -9.993162070E+01 -3.192163323E+01  2.406923400E+02  1.250000000E+02  0.00000E+00  9.000E+00
       2     1     1     2   502     0 -4.587565820E+02  5.872812220E+01 -6.596495526E+02  8.056327489E+02  2.018548058E-05  0.00000E+00  9.000E+00
#rwgt            2          13   1.4345379297593577E-003          10      328627           0
</event>
<event>
      5   9999  3.19816E-02  2.87658E+01 -1.00000E+00  1.54318E-01
      21    -1     0     0   511   501  0.000000000E+00  0.000000000E+00  3.109365611E+02  3.109365611E+02  0.000000000E+00  0.00000E+00  9.000E+00
      21    -1     0     0   501   502  0.000000000E+00  0.000000000E+00 -2.421343187E+02  2.421343187E+02  0.000000000E+00  0.00000E+00  9.000E+00
      25     1     1     2     0     0  1.353066589E+01  1.945489370E+02  7.383920740E+01  2.431246519E+02  1.250000000E+02  0.00000E+00  9.000E+00
      25     1     1     2     0     0  4.463844641E+00 -2.169915639E+02 -5.111831282E+01  2.556234470E+02  1.250000000E+02  0.00000E+00  9.000E+00
      21     1     1     2   511   502 -1.799451053E+01  2.244262689E+01  4.608134785E+01  5.432278096E+01  6.743495762E-07  0.00000E+00  9.000E+00
#rwgt            1           1   2.7881327646373733E-002          10      328676           0
</event>
<event>
      5   9999  3.19816E-02  6.09254E+01 -1.00000E+00  1.34349E-01
      21    -1     0     0   502   512  0.000000000E+00  0.000000000E+00  4.063334893E+02  4.063334893E+02  0.000000000E+00  0.00000E+00  9.000E+00
      21    -1     0     0   501   502  0.000000000E+00  0.000000000E+00 -3.192638382E+02  3.192638382E+02  0.000000000E+00  0.00000E+00  9.000E+00
      25     1     1     2     0     0 -1.178821591E+02 -1.383351340E+02  2.648351656E+02  3.446671985E+02  1.250000000E+02  0.00000E+00  9.000E+00
      25     1     1     2     0     0  1.552074273E+02  9.018192628E+01 -2.172786394E+02  3.083133673E+02  1.250000000E+02  0.00000E+00  9.000E+00
      21     1     1     2   501   512 -3.732526822E+01  4.815320772E+01  3.951312480E+01  7.261676179E+01  9.536743164E-07  0.00000E+00  9.000E+00
#rwgt            1           1   3.0444965108092935E-002          10      328836           0
</event>
<event>
      5   9999  3.19816E-02  4.57131E+01 -1.00000E+00  1.41334E-01
      21    -1     0     0   502   501  0.000000000E+00  0.000000000E+00  1.467610628E+03  1.467610628E+03  0.000000000E+00  0.00000E+00  9.000E+00
      -5    -1     0     0     0   502  0.000000000E+00  0.000000000E+00 -6.919564333E+01  6.919564333E+01  0.000000000E+00  0.00000E+00  9.000E+00
      25     1     1     2     0     0 -6.250103914E+01  1.161979841E+02  1.173310808E+03  1.187304343E+03  1.250000000E+02  0.00000E+00  9.000E+00
      25     1     1     2     0     0  1.709615791E+01 -1.214973944E+02  2.437310653E+02  3.001395136E+02  1.250000000E+02  0.00000E+00  9.000E+00
      -5     1     1     2     0   501  4.540488124E+01  5.299410300E+00 -1.862688853E+01  4.936241451E+01  1.800020799E-06  0.00000E+00  9.000E+00
#rwgt            1           1   4.5392644230461743E-002          10      329000           0
</event>
<event>
      5   9999  3.19816E-02  1.10281E+02 -1.00000E+00  1.21946E-01
      21    -1     0     0   502   501  0.000000000E+00  0.000000000E+00  5.057865999E+02  5.057865999E+02  0.000000000E+00  0.00000E+00  9.000E+00
       4    -1     0     0   501     0  0.000000000E+00  0.000000000E+00 -2.301651088E+02  2.301651088E+02  0.000000000E+00  0.00000E+00  9.000E+00
      25     1     1     2     0     0  1.498143352E+02  1.388025927E+02  2.711517731E+02  3.617440792E+02  1.250000000E+02  0.00000E+00  9.000E+00
      25     1     1     2     0     0 -1.930856317E+02 -3.736551249E+01  7.320662953E+01  2.442589882E+02  1.250000000E+02  0.00000E+00  9.000E+00
       4     1     1     2   502     0  4.327129651E+01 -1.014370802E+02 -6.873691164E+01  1.299486413E+02  3.162979880E-06  0.00000E+00  9.000E+00
#rwgt            1           1   2.6608712250778731E-002          10      329080           0
</event>
<event>
      5   9999  3.19816E-02  1.60312E+02 -1.00000E+00  1.15261E-01
      21    -1     0     0   502   501  0.000000000E+00  0.000000000E+00  3.993806477E+01  3.993806477E+01  0.000000000E+00  0.00000E+00  9.000E+00
      21    -1     0     0   511   502  0.000000000E+00  0.000000000E+00 -1.476995179E+03  1.476995179E+03  0.000000000E+00  0.00000E+00  9.000E+00
      25     1     1     2     0     0  3.625103483E+01  4.355656436E+01 -2.725929699E+02  3.051937730E+02  1.250000000E+02  0.00000E+00  9.000E+00
      25     1     1     2     0     0  1.211885285E+02 -1.334454344E+01 -5.841496504E+02  6.096888963E+02  1.250000000E+02  0.00000E+00  9.000E+00
      21     1     1     2   511   501 -1.574395633E+02 -3.021202092E+01 -5.803144935E+02  6.020505740E+02  7.629394531E-06  0.00000E+00  9.000E+00
#rwgt            1           1   2.0096532399842507E-002          10      329201           0
</event>
<event>
      5   9999  3.19816E-02  1.80605E+01 -1.00000E+00  1.70109E-01
      21    -1     0     0   512   501  0.000000000E+00  0.000000000E+00  1.602282993E+03  1.602282993E+03  0.000000000E+00  0.00000E+00  9.000E+00
      21    -1     0     0   501   502  0.000000000E+00  0.000000000E+00 -4.969282644E+01  4.969282644E+01  0.000000000E+00  0.00000E+00  9.000E+00
      25     1     1     2     0     0  7.555303531E+01  1.109176994E+02  1.635174851E+02  2.457111416E+02  1.250000000E+02  0.00000E+00  9.000E+00
      25     1     1     2     0     0 -9.243221649E+01 -1.173422437E+02  1.337784156E+03  1.351889183E+03  1.250000000E+02  0.00000E+00  9.000E+00
      21     1     1     2   512   502  1.687918118E+01  6.424544365E+00  5.128852613E+01  5.437549485E+01  6.743495762E-07  0.00000E+00  9.000E+00
#rwgt            1           1   3.6162839651321964E-002          10      329231           0
</event>
<event>
      5   9999  3.19816E-02  2.26213E+02 -1.00000E+00  1.09735E-01
      21    -1     0     0   502   501  0.000000000E+00  0.000000000E+00  7.945261757E+02  7.945261757E+02  0.000000000E+00  0.00000E+00  9.000E+00
      21    -1     0     0   511   502  0.000000000E+00  0.000000000E+00 -6.491565843E+02  6.491565843E+02  0.000000000E+00  0.00000E+00  9.000E+00
      25     1     1     2     0     0  3.280280458E+02  1.483103263E+02  1.837346233E+02  4.230623636E+02  1.250000000E+02  0.00000E+00  9.000E+00
      25     1     1     2     0     0 -4.976024072E+02  1.412219288E+00  3.142698655E+02  6.016649386E+02  1.250000000E+02  0.00000E+00  9.000E+00
      21     1     1     2   511   501  1.695743613E+02 -1.497225456E+02 -3.526348974E+02  4.189554577E+02  9.344061824E-06  0.00000E+00  9.000E+00
#rwgt            1           1   1.9810009029271387E-002          10      329405           0
</event>
<event>
      5   9999  3.19816E-02  8.03318E+01 -1.00000E+00  1.28263E-01
      21    -1     0     0   512   501  0.000000000E+00  0.000000000E+00  2.347615937E+03  2.347615937E+03  0.000000000E+00  0.00000E+00  9.000E+00
      21    -1     0     0   501   502  0.000000000E+00  0.000000000E+00 -6.656220200E+02  6.656220200E+02  0.000000000E+00  0.00000E+00  9.000E+00
      25     1     1     2     0     0 -1.017341574E+02 -4.807607053E+02  1.277771018E+03  1.374701593E+03  1.250000000E+02  0.00000E+00  9.000E+00
      25     1     1     2     0     0  8.968139724E+01  4.013382271E+02 -5.404094844E+02  6.904944144E+02  1.250000000E+02  0.00000E+00  9.000E+00
      21     1     1     2   512   502  1.205276014E+01  7.942247824E+01  9.446323831E+02  9.480419497E+02  1.078959322E-05  0.00000E+00  9.000E+00
#rwgt            2          11   1.4929745860512793E-003          10      329639           0
</event>
<event>
      5   9999  3.19816E-02  3.67267E+01 -1.00000E+00  1.47178E-01
       2    -1     0     0   502     0  0.000000000E+00  0.000000000E+00  1.477224019E+03  1.477224019E+03  0.000000000E+00  0.00000E+00  9.000E+00
      21    -1     0     0   501   502  0.000000000E+00  0.000000000E+00 -2.033983064E+02  2.033983064E+02  0.000000000E+00  0.00000E+00  9.000E+00
      25     1     1     2     0     0 -3.334969690E+02 -6.936380184E+01  9.781025766E+01  3.757970354E+02  1.250000000E+02  0.00000E+00  9.000E+00
      25     1     1     2     0     0  2.967704091E+02  6.925388737E+01  3.598651688E+02  4.878490713E+02  1.250000000E+02  0.00000E+00  9.000E+00
       2     1     1     2   501     0  3.672655989E+01  1.099144714E-01  8.161502861E+02  8.169762186E+02  0.000000000E+00  0.00000E+00  9.000E+00
#rwgt            1           1   3.3303659392961385E-002          10      329659           0
</event>
<event>
      5   9999  3.19816E-02  6.75975E+01 -1.00000E+00  1.31993E-01
      21    -1     0     0   502   501  0.000000000E+00  0.000000000E+00  5.359956430E+02  5.359956430E+02  0.000000000E+00  0.00000E+00  9.000E+00
      21    -1     0     0   501   511  0.000000000E+00  0.000000000E+00 -3.969094851E+02  3.969094851E+02  0.000000000E+00  0.00000E+00  9.000E+00
      25     1     1     2     0     0  1.000101515E+02 -3.486051052E+02  2.676356685E+02  4.677407410E+02  1.250000000E+02  0.00000E+00  9.000E+00
      25     1     1     2     0     0 -1.594967763E+02  3.164996794E+02 -1.296754982E+02  3.975575475E+02  1.250000000E+02  0.00000E+00  9.000E+00
      21     1     1     2   502   511  5.948662489E+01  3.210542578E+01  1.125987559E+00  6.760683954E+01  1.420229978E-06  0.00000E+00  9.000E+00
#rwgt            1           1   2.9286279804347396E-002          10      329754           0
</event>
<event>
      5   9999  3.19816E-02  1.64940E+02 -1.00000E+00  1.14783E-01
      21    -1     0     0   512   501  0.000000000E+00  0.000000000E+00  4.895582336E+02  4.895582336E+02  0.000000000E+00  0.00000E+00  9.000E+00
      21    -1     0     0   501   502  0.000000000E+00  0.000000000E+00 -4.732228124E+02  4.732228124E+02  0.000000000E+00  0.00000E+00  9.000E+00
      25     1     1     2     0     0 -1.331519355E+02  2.042549228E+02 -2.589756872E+02  3.770184584E+02  1.250000000E+02  0.00000E+00  9.000E+00
      25     1     1     2     0     0  2.725851525E+02 -1.161443363E+02  8.244348396E+01  3.319850904E+02  1.250000000E+02  0.00000E+00  9.000E+00
      21     1     1     2   512   502 -1.394332170E+02 -8.811058647E+01  1.928676246E+02  2.537774972E+02  2.697398305E-06  0.00000E+00  9.000E+00
#rwgt            1           1   2.6780980265575158E-002          10      329850           0
</event>
<event>
      5   9999  3.19816E-02  1.05593E+02 -1.00000E+00  1.22774E-01
      21    -1     0     0   511   501  0.000000000E+00  0.000000000E+00  1.145096076E+02  1.145096076E+02  0.000000000E+00  0.00000E+00  9.000E+00
      21    -1     0     0   501   502  0.000000000E+00  0.000000000E+00 -2.438650681E+03  2.438650681E+03  0.000000000E+00  0.00000E+00  9.000E+00
      25     1     1     2     0     0 -1.049092981E+02  1.228752395E+02 -2.111072570E+03  2.120932975E+03  1.250000000E+02  0.00000E+00  9.000E+00
      25     1     1     2     0     0  2.096821097E+02 -1.097373268E+02 -1.282457409E+02  2.967841608E+02  1.250000000E+02  0.00000E+00  9.000E+00
      21     1     1     2   511   502 -1.047728116E+02 -1.313791268E+01 -8.482276248E+01  1.354431535E+02  2.132480600E-06  0.00000E+00  9.000E+00
#rwgt            1           1   2.9353926335324725E-002          10      329913           0
</event>
<event>
      5   9999  3.19816E-02  1.54126E+02 -1.00000E+00  1.15929E-01
      21    -1     0     0   502   501  0.000000000E+00  0.000000000E+00  5.007165837E+02  5.007165837E+02  0.000000000E+00  0.00000E+00  9.000E+00
       2    -1     0     0   501     0  0.000000000E+00  0.000000000E+00 -7.670453871E+02  7.670453871E+02  0.000000000E+00  0.00000E+00  9.000E+00
      25     1     1     2     0     0  3.221654284E+02 -2.677826778E+02  7.141854548E+01  4.429714827E+02  1.250000000E+02  0.00000E+00  9.000E+00
      25     1     1     2     0     0 -2.130766718E+02  1.589049810E+02  1.381217141E+02  3.245844559E+02  1.250000000E+02  0.00000E+00  9.000E+00
       2     1     1     2   502     0 -1.090887566E+02  1.088776968E+02 -4.758690629E+02  5.002060323E+02  5.394796609E-06  0.00000E+00  9.000E+00
#rwgt            2          13   8.1500917891169373E-004          10      330046           0
</event>
<event>
      5   9999  3.19816E-02  1.76563E+01 -1.00000E+00  1.70963E-01
       1    -1     0     0   502     0  0.000000000E+00  0.000000000E+00  2.145470094E+03  2.145470094E+03  0.000000000E+00  0.00000E+00  9.000E+00
      21    -1     0     0   501   502  0.000000000E+00  0.000000000E+00 -1.533581675E+02  1.533581675E+02  0.000000000E+00  0.00000E+00  9.000E+00
      25     1     1     2     0     0 -1.813763546E+02  7.491760701E+01  8.190196644E+01  2.466636616E+02  1.250000000E+02  0.00000E+00  9.000E+00
      25     1     1     2     0     0  1.955160047E+02 -8.549183429E+01  1.446230751E+02  2.864894338E+02  1.250000000E+02  0.00000E+00  9.000E+00
       1     1     1     2   501     0 -1.413965008E+01  1.057422728E+01  1.765586885E+03  1.765675166E+03  2.157918644E-05  0.00000E+00  9.000E+00
#rwgt            1           1   2.7774471816653757E-002          10      330080           0
</event>
<event>
      5   9999  3.19816E-02  3.97726E+01 -1.00000E+00  1.44994E-01
       1    -1     0     0   502     0  0.000000000E+00  0.000000000E+00  2.862611887E+03  2.862611887E+03  0.000000000E+00  0.00000E+00  9.000E+00
      21    -1     0     0   501   502  0.000000000E+00  0.000000000E+00 -4.113842302E+01  4.113842302E+01  0.000000000E+00  0.00000E+00  9.000E+00
      25     1     1     2     0     0 -1.195428537E+02  1.042768214E+02  1.043703792E+03  1.063064793E+03  1.250000000E+02  0.00000E+00  9.000E+00
      25     1     1     2     0     0  1.537895148E+02 -8.405238324E+01  3.403435723E+02  4.027092813E+02  1.250000000E+02  0.00000E+00  9.000E+00
       1     1     1     2   501     0 -3.424666114E+01 -2.022443811E+01  1.437426100E+03  1.437976236E+03  1.525878906E-05  0.00000E+00  9.000E+00
#rwgt            1           1   4.2466445105827096E-002          10      330287           0
</event>
<event>
      5   9999  3.19816E-02  2.72438E+02 -1.00000E+00  1.06970E-01
      21    -1     0     0   502   511  0.000000000E+00  0.000000000E+00  5.454303853E+02  5.454303853E+02  0.000000000E+00  0.00000E+00  9.000E+00
      21    -1     0     0   501   502  0.000000000E+00  0.000000000E+00 -1.071478177E+03  1.071478177E+03  0.000000000E+00  0.00000E+00  9.000E+00
      25     1     1     2     0     0 -2.716061723E+02  5.961285830E+01 -9.320200994E+02  9.806171890E+02  1.250000000E+02  0.00000E+00  9.000E+00
      25     1     1     2     0     0  7.755299002E+01  1.316093874E+02  2.623599781E+02  3.283188317E+02  1.250000000E+02  0.00000E+00  9.000E+00
      21     1     1     2   501   511  1.940531823E+02 -1.912222457E+02  1.436123301E+02  3.079725412E+02  2.697398305E-06  0.00000E+00  9.000E+00
#rwgt            2          11   3.9858864358554586E-003          10      330460           0
</event>
<event>
      5   9999  3.23213E-02  1.08172E+02 -1.00000E+00  1.22313E-01
      21    -1     0     0   502   501  0.000000000E+00  0.000000000E+00  2.885370761E+03  2.885370761E+03  0.000000000E+00  0.00000E+00  9.000E+00
      21    -1     0     0   512   502  0.000000000E+00  0.000000000E+00 -5.380321749E+02  5.380321749E+02  0.000000000E+00  0.00000E+00  9.000E+00
      25     1     1     2     0     0  3.583646061E+02  7.649066037E+02  7.116259969E+01  8.568526238E+02  1.250000000E+02  0.00000E+00  9.000E+00
      25     1     1     2     0     0 -4.662085355E+02 -7.733196927E+02  2.282893489E+03  2.458170341E+03  1.250000000E+02  0.00000E+00  9.000E+00
      21     1     1     2   512   501  1.078439293E+02  8.413089058E+00 -6.717502706E+00  1.083799705E+02  1.794089907E-06  0.00000E+00  9.000E+00
#rwgt            1           1   6.9579225233068767E-002          10      330480           0
</event>
<event>
      5   9999  3.19816E-02  4.89367E+01 -1.00000E+00  1.39610E-01
      21    -1     0     0   502   511  0.000000000E+00  0.000000000E+00  8.543711259E+01  8.543711259E+01  0.000000000E+00  0.00000E+00  9.000E+00
      21    -1     0     0   501   502  0.000000000E+00  0.000000000E+00 -3.761901170E+03  3.761901170E+03  0.000000000E+00  0.00000E+00  9.000E+00
      25     1     1     2     0     0  8.472127720E+01  2.329979421E+02 -2.116577167E+02  3.491270898E+02  1.250000000E+02  0.00000E+00  9.000E+00
      25     1     1     2     0     0 -1.281296099E+02 -2.555926044E+02 -3.411912088E+03  3.426151467E+03  1.250000000E+02  0.00000E+00  9.000E+00
      21     1     1     2   501   511  4.340833271E+01  2.259466238E+01 -5.289425182E+01  7.205972517E+01  6.743495762E-07  0.00000E+00  9.000E+00
#rwgt            1           1   1.9058153530333608E-002          10      330640           0
</event>
<event>
      5   9999  3.19816E-02  9.25569E+01 -1.00000E+00  1.25358E-01
      21    -1     0     0   502   512  0.000000000E+00  0.000000000E+00  3.192999677E+01  3.192999677E+01  0.000000000E+00  0.00000E+00  9.000E+00
      21    -1     0     0   501   502  0.000000000E+00  0.000000000E+00 -1.440488559E+03  1.440488559E+03  0.000000000E+00  0.00000E+00  9.000E+00
      25     1     1     2     0     0 -3.061731388E+01  2.895012326E+01 -6.902671477E+02  7.027583259E+02  1.250000000E+02  0.00000E+00  9.000E+00
      25     1     1     2     0     0  9.918542309E+01 -9.112081084E+01 -4.653442220E+02  5.003108986E+02  1.250000000E+02  0.00000E+00  9.000E+00
      21     1     1     2   501   512 -6.856810921E+01  6.217068758E+01 -2.529471925E+02  2.693493312E+02  3.814697266E-06  0.00000E+00  9.000E+00
#rwgt            2          11   6.4444926719676894E-003          10      330846           0
</event>
<event>
      5   9999  3.19816E-02  4.37464E+01 -1.00000E+00  1.42469E-01
      21    -1     0     0   502   511  0.000000000E+00  0.000000000E+00  4.005978113E+02  4.005978113E+02  0.000000000E+00  0.00000E+00  9.000E+00
      21    -1     0     0   501   502  0.000000000E+00  0.000000000E+00 -2.547986096E+02  2.547986096E+02  0.000000000E+00  0.00000E+00  9.000E+00
      25     1     1     2     0     0  1.783185720E+02 -1.663441857E+02  8.401771168E+01  2.866214875E+02  1.250000000E+02  0.00000E+00  9.000E+00
      25     1     1     2     0     0 -2.174635670E+02  1.858740777E+02  2.789062386E+01  3.134365369E+02  1.250000000E+02  0.00000E+00  9.000E+00
      21     1     1     2   501   511  3.914499495E+01 -1.952989207E+01  3.389086620E+01  5.533839649E+01  6.743495762E-07  0.00000E+00  9.000E+00
#rwgt            1           1   2.9910846737807355E-002          10      330866           0
</event>
<event>
      5   9999  3.19816E-02  1.14233E+01 -1.00000E+00  1.89305E-01
      21    -1     0     0   502   501  0.000000000E+00  0.000000000E+00  1.868793260E+02  1.868793260E+02  0.000000000E+00  0.00000E+00  9.000E+00
      21    -1     0     0   512   502  0.000000000E+00  0.000000000E+00 -1.266910377E+03  1.266910377E+03  0.000000000E+00  0.00000E+00  9.000E+00
      25     1     1     2     0     0 -1.814327199E+02 -2.821098280E+02 -4.948432817E+01  3.613550686E+02  1.250000000E+02  0.00000E+00  9.000E+00
      25     1     1     2     0     0  1.823740990E+02  2.707253690E+02 -1.011872710E+03  1.070543749E+03  1.250000000E+02  0.00000E+00  9.000E+00
      21     1     1     2   512   501 -9.413790898E-01  1.138445901E+01 -1.867401207E+01  2.189088459E+01  0.000000000E+00  0.00000E+00  9.000E+00
#rwgt            1           1   2.8647582088665479E-002          10      330974           0
</event>
<event>
      5   9999  3.19816E-02  1.62395E+01 -1.00000E+00  1.74196E-01
      21    -1     0     0   502   511  0.000000000E+00  0.000000000E+00  4.201880573E+02  4.201880573E+02  0.000000000E+00  0.00000E+00  9.000E+00
      21    -1     0     0   501   502  0.000000000E+00  0.000000000E+00 -3.322662210E+02  3.322662210E+02  0.000000000E+00  0.00000E+00  9.000E+00
      25     1     1     2     0     0  1.848703910E+02 -2.502704395E+02 -8.736202806E+01  3.465104303E+02  1.250000000E+02  0.00000E+00  9.000E+00
      25     1     1     2     0     0 -1.983508536E+02  2.593257180E+02  1.708422530E+02  3.891079086E+02  1.250000000E+02  0.00000E+00  9.000E+00
      21     1     1     2   501   511  1.348046263E+01 -9.055278486E+00  4.441611367E+00  1.683593932E+01  3.576278687E-07  0.00000E+00  9.000E+00
#rwgt            1           1   2.8107553085090105E-002          10      331173           0
</event>
<event>
      5   9999  3.19816E-02  1.42558E+01 -1.00000E+00  1.79491E-01
      21    -1     0     0   512   501  0.000000000E+00  0.000000000E+00  3.223352463E+03  3.223352463E+03  0.000000000E+00  0.00000E+00  9.000E+00
      21    -1     0     0   501   502  0.000000000E+00  0.000000000E+00 -4.176493090E+01  4.176493090E+01  0.000000000E+00  0.00000E+00  9.000E+00
      25     1     1     2     0     0 -2.432712231E+02  1.658291879E+02  8.459771930E+02  9.044239153E+02  1.250000000E+02  0.00000E+00  9.000E+00
      25     1     1     2     0     0  2.346562052E+02 -1.771874197E+02  2.052019585E+03  2.076744638E+03  1.250000000E+02  0.00000E+00  9.000E+00
      21     1     1     2   512   502  8.615017809E+00  1.135823183E+01  2.835907539E+02  2.839488399E+02  0.000000000E+00  0.00000E+00  9.000E+00
#rwgt            1           1   3.9756914944112674E-002          10      331347           0
</event>
<event>
      5   9999  3.19816E-02  1.92637E+02 -1.00000E+00  1.12244E-01
      21    -1     0     0   502   511  0.000000000E+00  0.000000000E+00  3.307046091E+02  3.307046091E+02  0.000000000E+00  0.00000E+00  9.000E+00
      21    -1     0     0   501   502  0.000000000E+00  0.000000000E+00 -3.799233435E+02  3.799233435E+02  0.000000000E+00  0.00000E+00  9.000E+00
      25     1     1     2     0     0 -2.696723021E+01 -1.356128885E+02  1.454111419E+02  2.364053452E+02  1.250000000E+02  0.00000E+00  9.000E+00
      25     1     1     2     0     0  1.569957132E+02 -6.519118091E+00 -1.973937249E+02  2.815660411E+02  1.250000000E+02  0.00000E+00  9.000E+00
      21     1     1     2   501   511 -1.300284830E+02  1.421320066E+02  2.763848462E+00  1.926565663E+02  1.088498972E-06  0.00000E+00  9.000E+00
#rwgt            1           1   2.6735601033309447E-002          10      331513           0
</event>
<event>
      5   9999  3.19816E-02  1.44442E+02 -1.00000E+00  1.17047E-01
      21    -1     0     0   502   501  0.000000000E+00  0.000000000E+00  5.683452682E+02  5.683452682E+02  0.000000000E+00  0.00000E+00  9.000E+00
      21    -1     0     0   512   502  0.000000000E+00  0.000000000E+00 -7.774149288E+02  7.774149288E+02  0.000000000E+00  0.00000E+00  9.000E+00
      25     1     1     2     0     0  6.582184662E+01 -2.680829368E+02  2.421156522E+02  3.878736464E+02  1.250000000E+02  0.00000E+00  9.000E+00
      25     1     1     2     0     0  4.213614730E+01  1.721214224E+02  1.975008619E+02  2.933135343E+02  1.250000000E+02  0.00000E+00  9.000E+00
      21     1     1     2   512   501 -1.079579939E+02  9.596151445E+01 -6.486861747E+02  6.645730163E+02  1.078959322E-05  0.00000E+00  9.000E+00
#rwgt            1           1   2.9691619203337637E-002          10      331575           0
</event>
<event>
      5   9999  3.19816E-02  2.81141E+02 -1.00000E+00  1.06516E-01
      21    -1     0     0   511   501  0.000000000E+00  0.000000000E+00  1.881956984E+03  1.881956984E+03  0.000000000E+00  0.00000E+00  9.000E+00
      21    -1     0     0   501   502  0.000000000E+00  0.000000000E+00 -1.174080292E+03  1.174080292E+03  0.000000000E+00  0.00000E+00  9.000E+00
      25     1     1     2     0     0  1.178959837E+03  6.613767747E+02  5.949168963E+02  1.482199935E+03  1.250000000E+02  0.00000E+00  9.000E+00
      25     1     1     2     0     0 -1.193539500E+03 -3.806136095E+02 -2.810000886E+01  1.259292607E+03  1.250000000E+02  0.00000E+00  9.000E+00
      21     1     1     2   511   502  1.457966360E+01 -2.807631652E+02  1.410598048E+02  3.145447346E+02  5.046370146E-06  0.00000E+00  9.000E+00
#rwgt            2          11   2.4343190903218983E-002          10      331702           0
</event>
<event>
      5   9999  3.19816E-02  3.56756E+02 -1.00000E+00  1.03203E-01
      21    -1     0     0   512   501  0.000000000E+00  0.000000000E+00  2.425314097E+02  2.425314097E+02  0.000000000E+00  0.00000E+00  9.000E+00
      21    -1     0     0   501   502  0.000000000E+00  0.000000000E+00 -9.410302770E+02  9.410302770E+02  0.000000000E+00  0.00000E+00  9.000E+00
      25     1     1     2     0     0  1.561678753E+02  3.587948064E+02 -4.628804252E+02  6.188743058E+02  1.250000000E+02  0.00000E+00  9.000E+00
      25     1     1     2     0     0  3.640032801E+01 -5.847407451E+01 -1.288949736E+02  1.923099464E+02  1.250000000E+02  0.00000E+00  9.000E+00
      21     1     1     2   512   502 -1.925682034E+02 -3.003207319E+02 -1.067234686E+02  3.723774345E+02  4.264961200E-06  0.00000E+00  9.000E+00
#rwgt            2          11   3.5471555350050448E-003          10      331767           0
</event>
<event>
      5   9999  3.19816E-02  2.08725E+01 -1.00000E+00  1.64853E-01
      21    -1     0     0   511   501  0.000000000E+00  0.000000000E+00  7.848569509E+01  7.848569509E+01  0.000000000E+00  0.00000E+00  9.000E+00
      21    -1     0     0   501   502  0.000000000E+00  0.000000000E+00 -7.619690824E+02  7.619690824E+02  0.000000000E+00  0.00000E+00  9.000E+00
      25     1     1     2     0     0 -1.161873716E+02 -9.193944712E+01 -2.654350846E+02  3.286839689E+02  1.250000000E+02  0.00000E+00  9.000E+00
      25     1     1     2     0     0  9.696597570E+01  8.380319563E+01 -4.438433209E+02  4.785888314E+02  1.250000000E+02  0.00000E+00  9.000E+00
      21     1     1     2   511   502  1.922139594E+01  8.136251486E+00  2.579501817E+01  3.318197722E+01  4.768371582E-07  0.00000E+00  9.000E+00
#rwgt            1           1   2.7359436082272797E-002          10      331787           0
</event>
<event>
      5   9999  3.19816E-02  7.10163E+01 -1.00000E+00  1.30904E-01
      21    -1     0     0   502   512  0.000000000E+00  0.000000000E+00  2.548326802E+02  2.548326802E+02  0.000000000E+00  0.00000E+00  9.000E+00
      21    -1     0     0   501   502  0.000000000E+00  0.000000000E+00 -7.945919360E+02  7.945919360E+02  0.000000000E+00  0.00000E+00  9.000E+00
      25     1     1     2     0     0  7.895102198E+01 -3.099339580E+02 -3.888908058E+02  5.187999431E+02  1.250000000E+02  0.00000E+00  9.000E+00
      25     1     1     2     0     0 -1.277764305E+01  3.357098775E+02 -2.287512165E+02  4.252252450E+02  1.250000000E+02  0.00000E+00  9.000E+00
      21     1     1     2   501   512 -6.617337892E+01 -2.577591949E+01  7.788276644E+01  1.053994280E+02  1.651812370E-06  0.00000E+00  9.000E+00
#rwgt            1           1   2.9653789758088221E-002          10      331933           0
</event>
<event>
      5   9999  3.19816E-02  1.15440E+02 -1.00000E+00  1.21087E-01
      21    -1     0     0   502   501  0.000000000E+00  0.000000000E+00  3.461985475E+02  3.461985475E+02  0.000000000E+00  0.00000E+00  9.000E+00
      21    -1     0     0   511   502  0.000000000E+00  0.000000000E+00 -3.257841402E+02  3.257841402E+02  0.000000000E+00  0.00000E+00  9.000E+00
      25     1     1     2     0     0 -4.182338175E+01 -6.007096976E+01  2.434360610E+02  2.832734235E+02  1.250000000E+02  0.00000E+00  9.000E+00
      25     1     1     2     0     0  1.450666474E+02  8.425976713E+00 -8.755655409E+01  2.107284495E+02  1.250000000E+02  0.00000E+00  9.000E+00
      21     1     1     2   511   501 -1.032432656E+02  5.164499305E+01 -1.354650996E+02  1.779808148E+02  3.303624740E-06  0.00000E+00  9.000E+00
#rwgt            1           1   3.0116431289914529E-002          10      332039           0
</event>
<event>
      5   9999  3.19816E-02  3.75038E+01 -1.00000E+00  1.46597E-01
      21    -1     0     0   502   512  0.000000000E+00  0.000000000E+00  2.815971375E+02  2.815971375E+02  0.000000000E+00  0.00000E+00  9.000E+00
      21    -1     0     0   501   502  0.000000000E+00  0.000000000E+00 -4.939567741E+02  4.939567741E+02  0.000000000E+00  0.00000E+00  9.000E+00
      25     1     1     2     0     0  1.796151429E+02 -2.623918836E+02 -2.405685801E+02  4.178628266E+02  1.250000000E+02  0.00000E+00  9.000E+00
      25     1     1     2     0     0 -1.427394208E+02  2.555568245E+02  3.248668699E+01  3.199440852E+02  1.250000000E+02  0.00000E+00  9.000E+00
      21     1     1     2   501   512 -3.687572207E+01  6.835059098E+00 -4.277743477E+00  3.774699989E+01  6.822063412E-07  0.00000E+00  9.000E+00
#rwgt            1           1   2.6095081834940199E-002          10      332103           0
</event>
<event>
      5   9999  3.19816E-02  1.17978E+01 -1.00000E+00  1.87807E-01
      21    -1     0     0   502   501  0.000000000E+00  0.000000000E+00  5.237478783E+02  5.237478783E+02  0.000000000E+00  0.00000E+00  9.000E+00
      21    -1     0     0   511   502  0.000000000E+00  0.000000000E+00 -1.034353582E+02  1.034353582E+02  0.000000000E+00  0.00000E+00  9.000E+00
      25     1     1     2     0     0  1.078105894E+02 -8.619934466E+01  3.905138492E+02  4.326424813E+02  1.250000000E+02  0.00000E+00  9.000E+00
      25     1     1     2     0     0 -1.036124955E+02  7.517371313E+01  2.169634422E+01  1.802286540E+02  1.250000000E+02  0.00000E+00  9.000E+00
      21     1     1     2   511   501 -4.198093955E+00  1.102563153E+01  8.102326668E+00  1.431210121E+01  2.384185791E-07  0.00000E+00  9.000E+00
#rwgt            1           1   2.7938001629638869E-002          10      332225           0
</event>
<event>
      5   9999  3.19816E-02  7.72403E+01 -1.00000E+00  1.29092E-01
      21    -1     0     0   502   501  0.000000000E+00  0.000000000E+00  5.640117583E+02  5.640117583E+02  0.000000000E+00  0.00000E+00  9.000E+00
      21    -1     0     0   501   512  0.000000000E+00  0.000000000E+00 -7.552968852E+01  7.552968852E+01  0.000000000E+00  0.00000E+00  9.000E+00
      25     1     1     2     0     0 -4.618725136E+01 -8.854405538E+01  3.036254294E+02  3.432006896E+02  1.250000000E+02  0.00000E+00  9.000E+00
      25     1     1     2     0     0 -3.096061684E+01  8.476722014E+01  1.289574665E+02  2.009951979E+02  1.250000000E+02  0.00000E+00  9.000E+00
      21     1     1     2   502   512  7.714786820E+01  3.776835244E+00  5.589917384E+01  9.534555936E+01  1.651812370E-06  0.00000E+00  9.000E+00
#rwgt            1           1   2.2935304701456733E-002          10      332402           0
</event>
<event>
      5   9999  3.19816E-02  1.11169E+01 -1.00000E+00  1.90588E-01
      21    -1     0     0   502   501  0.000000000E+00  0.000000000E+00  2.565857490E+02  2.565857490E+02  0.000000000E+00  0.00000E+00  9.000E+00
      21    -1     0     0   501   511  0.000000000E+00  0.000000000E+00 -2.756976575E+02  2.756976575E+02  0.000000000E+00  0.00000E+00  9.000E+00
      25     1     1     2     0     0 -2.147167095E+02  3.296325460E+01 -8.229794437E+01  2.637949832E+02  1.250000000E+02  0.00000E+00  9.000E+00
      25     1     1     2     0     0  2.115115309E+02 -2.231845131E+01  6.869075148E+01  2.560833074E+02  1.250000000E+02  0.00000E+00  9.000E+00
      21     1     1     2   502   511  3.205178595E+00 -1.064480329E+01 -5.504715612E+00  1.240511592E+01  2.795705652E-07  0.00000E+00  9.000E+00
#rwgt            1           1   2.6134546308602652E-002          10      332486           0
</event>
<event>
      5   9999  3.19816E-02  7.56824E+01 -1.00000E+00  1.29527E-01
      21    -1     0     0   502   501  0.000000000E+00  0.000000000E+00  8.280434439E+02  8.280434439E+02  0.000000000E+00  0.00000E+00  9.000E+00
      21    -1     0     0   501   512  0.000000000E+00  0.000000000E+00 -2.887926222E+02  2.887926222E+02  0.000000000E+00  0.00000E+00  9.000E+00
      25     1     1     2     0     0 -1.341176440E+01 -3.547792857E+02  3.006772764E+02  4.817468646E+02  1.250000000E+02  0.00000E+00  9.000E+00
      25     1     1     2     0     0  1.855895594E+01  2.792721276E+02  3.717987294E+02  4.818678774E+02  1.250000000E+02  0.00000E+00  9.000E+00
      21     1     1     2   502   512 -5.147191542E+00  7.550715805E+01 -1.332251840E+02  1.532213241E+02  3.303624740E-06  0.00000E+00  9.000E+00
#rwgt            2          11   2.5512827570259864E-003          10      332848           0
</event>
<event>
      5   9999  3.19816E-02  8.20355E+01 -1.00000E+00  1.27824E-01
      21    -1     0     0   511   501  0.000000000E+00  0.000000000E+00  8.605674469E+02  8.605674469E+02  0.000000000E+00  0.00000E+00  9.000E+00
      21    -1     0     0   501   502  0.000000000E+00  0.000000000E+00 -3.323601049E+02  3.323601049E+02  0.000000000E+00  0.00000E+00  9.000E+00
      25     1     1     2     0     0  1.866919635E+02 -2.256514820E+02 -1.623440755E+02  3.574256278E+02  1.250000000E+02  0.00000E+00  9.000E+00
      25     1     1     2     0     0 -2.685647066E+02  2.204866166E+02  6.407157164E+02  7.395153676E+02  1.250000000E+02  0.00000E+00  9.000E+00
      21     1     1     2   511   502  8.187274315E+01  5.164865371E+00  4.983570106E+01  9.598655638E+01  9.536743164E-07  0.00000E+00  9.000E+00
#rwgt            1           1   3.0807974479025543E-002          10      332883           0
</event>
<event>
      5   9999  3.19816E-02  1.90403E+02 -1.00000E+00  1.12431E-01
      21    -1     0     0   512   501  0.000000000E+00  0.000000000E+00  1.179144300E+03  1.179144300E+03  0.000000000E+00  0.00000E+00  9.000E+00
      21    -1     0     0   501   502  0.000000000E+00  0.000000000E+00 -2.454953112E+02  2.454953112E+02  0.000000000E+00  0.00000E+00  9.000E+00
      25     1     1     2     0     0 -2.176595550E+02 -1.060960358E+01  8.784620953E+02  9.136787720E+02  1.250000000E+02  0.00000E+00  9.000E+00
      25     1     1     2     0     0  2.736096536E+01  4.290563511E+00 -1.720741465E+02  2.144797036E+02  1.250000000E+02  0.00000E+00  9.000E+00
      21     1     1     2   512   502  1.902985897E+02  6.319040074E+00  2.272610404E+02  2.964811359E+02  0.000000000E+00  0.00000E+00  9.000E+00
#rwgt            1           1   3.5849197241084943E-002          10      333019           0
</event>
<event>
      5   9999  3.19816E-02  2.41814E+02 -1.00000E+00  1.08727E-01
       2    -1     0     0   502     0  0.000000000E+00  0.000000000E+00  3.928131906E+03  3.928131906E+03  0.000000000E+00  0.00000E+00  9.000E+00
      21    -1     0     0   501   502  0.000000000E+00  0.000000000E+00 -1.190525675E+02  1.190525675E+02  0.000000000E+00  0.00000E+00  9.000E+00
      25     1     1     2     0     0 -4.750024299E+02 -1.858434796E+02  9.086481752E+02  1.049491121E+03  1.250000000E+02  0.00000E+00  9.000E+00
      25     1     1     2     0     0  2.334203541E+02  1.752486417E+02  5.517183444E+02  6.365652203E+02  1.250000000E+02  0.00000E+00  9.000E+00
       2     1     1     2   501     0  2.415820758E+02  1.059483788E+01  2.348712819E+03  2.361128132E+03  3.051757812E-05  0.00000E+00  9.000E+00
#rwgt            2          18   9.2582312441147503E-004          10      333280           0
</event>
<event>
      5   9999  3.19816E-02  6.04432E+01 -1.00000E+00  1.34533E-01
      21    -1     0     0   502   501  0.000000000E+00  0.000000000E+00  1.846407627E+02  1.846407627E+02  0.000000000E+00  0.00000E+00  9.000E+00
      21    -1     0     0   501   511  0.000000000E+00  0.000000000E+00 -8.619692452E+02  8.619692452E+02  0.000000000E+00  0.00000E+00  9.000E+00
      25     1     1     2     0     0  7.688884017E+00 -3.030910976E+02 -4.912601091E+02  5.906647333E+02  1.250000000E+02  0.00000E+00  9.000E+00
      25     1     1     2     0     0 -3.384894787E+00  2.428013642E+02 -1.388664757E+01  2.734626098E+02  1.250000000E+02  0.00000E+00  9.000E+00
      21     1     1     2   502   511 -4.303989229E+00  6.028973336E+01 -1.721817258E+02  1.824826649E+02  3.814697266E-06  0.00000E+00  9.000E+00
#rwgt            1           1   2.8177387245101090E-002          10      333314           0
</event>
<event>
      5   9999  3.19816E-02  1.75616E+02 -1.00000E+00  1.13743E-01
      -3    -1     0     0     0   501  0.000000000E+00  0.000000000E+00  6.883204346E+02  6.883204346E+02  0.000000000E+00  0.00000E+00  9.000E+00
      21    -1     0     0   501   502  0.000000000E+00  0.000000000E+00 -2.412241809E+02  2.412241809E+02  0.000000000E+00  0.00000E+00  9.000E+00
      25     1     1     2     0     0 -6.595777164E+01  2.207135900E+02  5.483817655E+01  2.677632202E+02  1.250000000E+02  0.00000E+00  9.000E+00
      25     1     1     2     0     0 -8.766671400E+01 -3.058052128E+02  1.800254372E+02  3.863113239E+02  1.250000000E+02  0.00000E+00  9.000E+00
      -3     1     1     2     0   502  1.536244856E+02  8.509162275E+01  2.122326400E+02  2.754700715E+02  2.697398305E-06  0.00000E+00  9.000E+00
#rwgt            1           1   2.4221805025155706E-002          10      333414           0
</event>
<event>
      5   9999  3.19816E-02  9.06052E+01 -1.00000E+00  1.25786E-01
      21    -1     0     0   502   501  0.000000000E+00  0.000000000E+00  1.060793526E+03  1.060793526E+03  0.000000000E+00  0.00000E+00  9.000E+00
      21    -1     0     0   511   502  0.000000000E+00  0.000000000E+00 -3.813976252E+02  3.813976252E+02  0.000000000E+00  0.00000E+00  9.000E+00
      25     1     1     2     0     0  2.111591013E+02  1.095118203E+02  9.811980752E+02  1.017327709E+03  1.250000000E+02  0.00000E+00  9.000E+00
      25     1     1     2     0     0 -1.352835595E+02 -5.999217044E+01 -1.385835004E+02  2.381828889E+02  1.250000000E+02  0.00000E+00  9.000E+00
      21     1     1     2   511   501 -7.587554182E+01 -4.951964990E+01 -1.632186738E+02  1.866805535E+02  4.672030912E-06  0.00000E+00  9.000E+00
#rwgt            2          11   3.1477665575759405E-003          10      333528           0
</event>
<event>
      5   9999  3.19816E-02  8.03709E+02 -1.00000E+00  9.33287E-02
      21    -1     0     0   502   501  0.000000000E+00  0.000000000E+00  1.339915387E+03  1.339915387E+03  0.000000000E+00  0.00000E+00  9.000E+00
       2    -1     0     0   501     0  0.000000000E+00  0.000000000E+00 -1.516524130E+03  1.516524130E+03  0.000000000E+00  0.00000E+00  9.000E+00
      25     1     1     2     0     0 -8.321822480E+02  3.988372738E+02  2.148783217E+02  9.557176142E+02  1.250000000E+02  0.00000E+00  9.000E+00
      25     1     1     2     0     0  6.004809179E+02  3.707484379E+02  3.585671412E+02  8.013907484E+02  1.250000000E+02  0.00000E+00  9.000E+00
       2     1     1     2   502     0  2.317013302E+02 -7.695857117E+02 -7.500542056E+02  1.099331154E+03  1.525878906E-05  0.00000E+00  9.000E+00
#rwgt            2          13   9.9167511886460395E-004          10      333608           0
</event>
<event>
      5   9999  3.19816E-02  7.97145E+01 -1.00000E+00  1.28425E-01
      21    -1     0     0   502   501  0.000000000E+00  0.000000000E+00  4.124270399E+02  4.124270399E+02  0.000000000E+00  0.00000E+00  9.000E+00
      21    -1     0     0   511   502  0.000000000E+00  0.000000000E+00 -6.752876806E+02  6.752876806E+02  0.000000000E+00  0.00000E+00  9.000E+00
      25     1     1     2     0     0  4.046168478E+01  2.176398726E+02 -2.066572873E+01  2.550614326E+02  1.250000000E+02  0.00000E+00  9.000E+00
      25     1     1     2     0     0 -1.186777792E+02 -2.330231632E+02  2.198451643E+02  3.637871715E+02  1.250000000E+02  0.00000E+00  9.000E+00
      21     1     1     2   511   501  7.821609442E+01  1.538329064E+01 -4.620400762E+02  4.688661164E+02  5.394796609E-06  0.00000E+00  9.000E+00
#rwgt            1           1   2.7520649331946017E-002          10      333627           0
</event>
<event>
      5   9999  3.19816E-02  3.60892E+01 -1.00000E+00  1.47667E-01
      21    -1     0     0   502   501  0.000000000E+00  0.000000000E+00  2.710620508E+03  2.710620508E+03  0.000000000E+00  0.00000E+00  9.000E+00
      21    -1     0     0   501   512  0.000000000E+00  0.000000000E+00 -1.025387962E+02  1.025387962E+02  0.000000000E+00  0.00000E+00  9.000E+00
      25     1     1     2     0     0  2.185943283E+02  4.233842180E+02  1.793455312E+03  1.859877585E+03  1.250000000E+02  0.00000E+00  9.000E+00
      25     1     1     2     0     0 -2.075717380E+02 -3.890195178E+02  7.674724723E+02  8.939022359E+02  1.250000000E+02  0.00000E+00  9.000E+00
      21     1     1     2   502   512 -1.102259030E+01 -3.436470017E+01  4.715392746E+01  5.937948290E+01  6.743495762E-07  0.00000E+00  9.000E+00
#rwgt            1           1   8.5451861301239163E-002          10      333721           0
</event>
<event>
      5   9999  3.19816E-02  1.89714E+02 -1.00000E+00  1.12489E-01
       2    -1     0     0   502     0  0.000000000E+00  0.000000000E+00  2.157727474E+03  2.157727474E+03  0.000000000E+00  0.00000E+00  9.000E+00
      21    -1     0     0   501   502  0.000000000E+00  0.000000000E+00 -1.054318316E+02  1.054318316E+02  0.000000000E+00  0.00000E+00  9.000E+00
      25     1     1     2     0     0 -1.288545783E+02 -1.664771913E+02  4.163229740E+02  4.829782358E+02  1.250000000E+02  0.00000E+00  9.000E+00
      25     1     1     2     0     0 -5.076782461E+01  1.054270048E+02  4.378724337E+01  1.767329851E+02  1.250000000E+02  0.00000E+00  9.000E+00
       2     1     1     2   501     0  1.796224029E+02  6.105018651E+01  1.592185425E+03  1.603448084E+03  2.157918644E-05  0.00000E+00  9.000E+00
#rwgt            1           1   2.9368961006496771E-002          10      333820           0
</event>
<event>
      5   9999  3.19816E-02  2.25960E+01 -1.00000E+00  1.62112E-01
      21    -1     0     0   511   501  0.000000000E+00  0.000000000E+00  7.450655619E+02  7.450655619E+02  0.000000000E+00  0.00000E+00  9.000E+00
      21    -1     0     0   501   502  0.000000000E+00  0.000000000E+00 -1.301440541E+03  1.301440541E+03  0.000000000E+00  0.00000E+00  9.000E+00
      25     1     1     2     0     0 -3.565035700E+02  4.338041146E+02 -1.034060084E+03  1.183294580E+03  1.250000000E+02  0.00000E+00  9.000E+00
      25     1     1     2     0     0  3.786609189E+02 -4.293736338E+02  2.544559040E+02  6.388416204E+02  1.250000000E+02  0.00000E+00  9.000E+00
      21     1     1     2   511   502 -2.215734890E+01 -4.430480824E+00  2.232292007E+02  2.243699029E+02  3.814697266E-06  0.00000E+00  9.000E+00
#rwgt            1           1   2.8698078941576118E-002          10      333869           0
</event>
<event>
      5   9999  3.19816E-02  1.85806E+01 -1.00000E+00  1.69051E-01
      21    -1     0     0   512   501  0.000000000E+00  0.000000000E+00  6.901511434E+02  6.901511434E+02  0.000000000E+00  0.00000E+00  9.000E+00
      21    -1     0     0   501   502  0.000000000E+00  0.000000000E+00 -1.959532723E+02  1.959532723E+02  0.000000000E+00  0.00000E+00  9.000E+00
      25     1     1     2     0     0  1.003497373E+02 -1.314751423E+02  5.811209141E+02  6.169945702E+02  1.250000000E+02  0.00000E+00  9.000E+00
      25     1     1     2     0     0 -9.294082937E+01  1.485147147E+02 -1.081785628E+02  2.408780183E+02  1.250000000E+02  0.00000E+00  9.000E+00
      21     1     1     2   512   502 -7.408907967E+00 -1.703957241E+01  2.125551981E+01  2.823182721E+01  4.129530925E-07  0.00000E+00  9.000E+00
#rwgt            1           1   3.0355717492649623E-002          10      334095           0
</event>
<event>
      5   9999  3.19816E-02  3.53753E+01 -1.00000E+00  1.48229E-01
      21    -1     0     0   502   511  0.000000000E+00  0.000000000E+00  1.658766865E+02  1.658766865E+02  0.000000000E+00  0.00000E+00  9.000E+00
      21    -1     0     0   501   502  0.000000000E+00  0.000000000E+00 -2.102969723E+03  2.102969723E+03  0.000000000E+00  0.00000E+00  9.000E+00
      25     1     1     2     0     0  4.400072184E+02 -4.818151275E+01 -3.054343167E+02  5.521258301E+02  1.250000000E+02  0.00000E+00  9.000E+00
      25     1     1     2     0     0 -4.216362523E+02  1.795040910E+01 -1.621121460E+03  1.679809255E+03  1.250000000E+02  0.00000E+00  9.000E+00
      21     1     1     2   501   511 -1.837096612E+01  3.023110365E+01 -1.053726018E+01  3.691132449E+01  6.637292341E-07  0.00000E+00  9.000E+00
#rwgt            1           1   2.5226521992180933E-002          10      334346           0
</event>
<event>
      5   9999  3.19816E-02  5.05428E+01 -1.00000E+00  1.38809E-01
      21    -1     0     0   502   501  0.000000000E+00  0.000000000E+00  9.361173325E+02  9.361173325E+02  0.000000000E+00  0.00000E+00  9.000E+00
      21    -1     0     0   501   512  0.000000000E+00  0.000000000E+00 -5.732077089E+02  5.732077089E+02  0.000000000E+00  0.00000E+00  9.000E+00
      25     1     1     2     0     0  1.369127537E+02 -4.813593626E+02  5.778201620E+02  7.745663805E+02  1.250000000E+02  0.00000E+00  9.000E+00
      25     1     1     2     0     0 -1.708641732E+02  4.439177594E+02  2.220463016E+01  4.923165531E+02  1.250000000E+02  0.00000E+00  9.000E+00
      21     1     1     2   502   512  3.395141949E+01  3.744160316E+01 -2.371151685E+02  2.424421079E+02  2.697398305E-06  0.00000E+00  9.000E+00
#rwgt            1           1   2.4429393054721135E-002          10      334502           0
</event>
<event>
      5   9999  3.19816E-02  2.61098E+02 -1.00000E+00  1.07590E-01
      21    -1     0     0   502   501  0.000000000E+00  0.000000000E+00  4.116842276E+02  4.116842276E+02  0.000000000E+00  0.00000E+00  9.000E+00
      -2    -1     0     0     0   502  0.000000000E+00  0.000000000E+00 -6.348771186E+02  6.348771186E+02  0.000000000E+00  0.00000E+00  9.000E+00
      25     1     1     2     0     0 -2.147939597E+02 -1.661975845E+02  1.600596866E+02  3.391197214E+02  1.250000000E+02  0.00000E+00  9.000E+00
      25     1     1     2     0     0 -8.488750277E+00  3.085647675E+01  9.657829306E+01  1.611724162E+02  1.250000000E+02  0.00000E+00  9.000E+00
      -2     1     1     2     0   501  2.232827099E+02  1.353411077E+02 -4.798308705E+02  5.462692086E+02  0.000000000E+00  0.00000E+00  9.000E+00
#rwgt            2           9   2.6896843785942376E-004          10      334669           0
</event>
<event>
      5   9999  3.19816E-02  1.62366E+01 -1.00000E+00  1.74203E-01
       2    -1     0     0   502     0  0.000000000E+00  0.000000000E+00  2.052733988E+03  2.052733988E+03  0.000000000E+00  0.00000E+00  9.000E+00
      21    -1     0     0   501   502  0.000000000E+00  0.000000000E+00 -1.324877954E+03  1.324877954E+03  0.000000000E+00  0.00000E+00  9.000E+00
      25     1     1     2     0     0  2.085524675E+02 -5.127419345E+02 -9.563063540E+02  1.112000569E+03  1.250000000E+02  0.00000E+00  9.000E+00
      25     1     1     2     0     0 -2.154299387E+02  4.980338417E+02 -2.401253849E+01  5.573592809E+02  1.250000000E+02  0.00000E+00  9.000E+00
       2     1     1     2   501     0  6.877471244E+00  1.470809280E+01  1.708174927E+03  1.708252092E+03  2.157918644E-05  0.00000E+00  9.000E+00
#rwgt            1           1   3.0779043130911302E-002          10      334688           0
</event>
<event>
      5   9999  3.19816E-02  1.12401E+01 -1.00000E+00  1.90066E-01
      21    -1     0     0   511   501  0.000000000E+00  0.000000000E+00  8.592421462E+02  8.592421462E+02  0.000000000E+00  0.00000E+00  9.000E+00
      21    -1     0     0   501   502  0.000000000E+00  0.000000000E+00 -1.373557781E+02  1.373557781E+02  0.000000000E+00  0.00000E+00  9.000E+00
      25     1     1     2     0     0  2.456986640E+02  4.933904618E+01  9.687177955E+01  2.963297431E+02  1.250000000E+02  0.00000E+00  9.000E+00
      25     1     1     2     0     0 -2.563379263E+02 -4.571333421E+01  5.214794486E+02  5.961246990E+02  1.250000000E+02  0.00000E+00  9.000E+00
      21     1     1     2   511   502  1.063926234E+01 -3.625711963E+00  1.035351399E+02  1.041434822E+02  1.348699152E-06  0.00000E+00  9.000E+00
#rwgt            1           1   1.7598476822608219E-002          10      334881           0
</event>
<event>
      5   9999  3.19816E-02  1.64024E+02 -1.00000E+00  1.14876E-01
       1    -1     0     0   502     0  0.000000000E+00  0.000000000E+00  9.679648497E+02  9.679648497E+02  0.000000000E+00  0.00000E+00  9.000E+00
      21    -1     0     0   501   502  0.000000000E+00  0.000000000E+00 -3.079796197E+02  3.079796197E+02  0.000000000E+00  0.00000E+00  9.000E+00
      25     1     1     2     0     0  3.528617762E+02  2.667191677E+01 -1.223284721E+01  3.754962940E+02  1.250000000E+02  0.00000E+00  9.000E+00
      25     1     1     2     0     0 -3.567961574E+02  1.373050040E+02  5.973517105E+02  7.201459769E+02  1.250000000E+02  0.00000E+00  9.000E+00
       1     1     1     2   501     0  3.934381214E+00 -1.639769208E+02  7.486636670E+01  1.803021985E+02  1.348699152E-06  0.00000E+00  9.000E+00
#rwgt            1           1   3.0344446821954765E-002          10      335137           0
</event>
<event>
      5   9999  3.19816E-02  2.90493E+01 -1.00000E+00  1.54018E-01
      21    -1     0     0   511   501  0.000000000E+00  0.000000000E+00  1.121460966E+03  1.121460966E+03  0.000000000E+00  0.00000E+00  9.000E+00
      21    -1     0     0   501   502  0.000000000E+00  0.000000000E+00 -3.549511881E+02  3.549511881E+02  0.000000000E+00  0.00000E+00  9.000E+00
      25     1     1     2     0     0 -3.731712915E+02  2.975691476E+01  8.759160694E+02  9.607269369E+02  1.250000000E+02  0.00000E+00  9.000E+00
      25     1     1     2     0     0  3.991477322E+02 -1.675353994E+01 -1.673946026E+02  4.508276236E+02  1.250000000E+02  0.00000E+00  9.000E+00
      21     1     1     2   511   502 -2.597644070E+01 -1.300337482E+01  5.798831157E+01  6.485759405E+01  0.000000000E+00  0.00000E+00  9.000E+00
#rwgt            1           1   3.1454898688212302E-002          10      335277           0
</event>
<event>
      5   9999  3.19816E-02  1.60505E+01 -1.00000E+00  1.74658E-01
      21    -1     0     0   502   501  0.000000000E+00  0.000000000E+00  3.056624128E+02  3.056624128E+02  0.000000000E+00  0.00000E+00  9.000E+00
      21    -1     0     0   501   512  0.000000000E+00  0.000000000E+00 -5.713432067E+02  5.713432067E+02  0.000000000E+00  0.00000E+00  9.000E+00
      25     1     1     2     0     0 -3.838106728E+02 -8.985236834E+01 -1.030949813E+02  4.261896947E+02  1.250000000E+02  0.00000E+00  9.000E+00
      25     1     1     2     0     0  3.745638504E+02  7.673312312E+01 -1.465333949E+02  4.281157390E+02  1.250000000E+02  0.00000E+00  9.000E+00
      21     1     1     2   502   512  9.246822492E+00  1.311924522E+01 -1.605241762E+01  2.270018574E+01  0.000000000E+00  0.00000E+00  9.000E+00
#rwgt            1           1   2.8079321672202555E-002          10      335482           0
</event>
<event>
      5   9999  3.19816E-02  5.67343E+02 -1.00000E+00  9.73177E-02
       1    -1     0     0   502     0  0.000000000E+00  0.000000000E+00  1.228394051E+03  1.228394051E+03  0.000000000E+00  0.00000E+00  9.000E+00
      21    -1     0     0   501   502  0.000000000E+00  0.000000000E+00 -7.742739948E+02  7.742739948E+02  0.000000000E+00  0.00000E+00  9.000E+00
      25     1     1     2     0     0  3.512394398E+02  1.784687951E+02 -2.163783662E+02  4.665456594E+02  1.250000000E+02  0.00000E+00  9.000E+00
      25     1     1     2     0     0  2.079287550E+02 -2.744305310E+02  8.625913245E+02  9.371420792E+02  1.250000000E+02  0.00000E+00  9.000E+00
       1     1     1     2   501     0 -5.591681949E+02  9.596173590E+01 -1.920929025E+02  5.989803069E+02  1.206313194E-05  0.00000E+00  9.000E+00
#rwgt            2          17   1.2346745428042785E-004          10      335799           0
</event>
<event>
      5   9999  3.19816E-02  3.06609E+02 -1.00000E+00  1.05285E-01
      21    -1     0     0   502   501  0.000000000E+00  0.000000000E+00  5.545018088E+02  5.545018088E+02  0.000000000E+00  0.00000E+00  9.000E+00
      21    -1     0     0   501   511  0.000000000E+00  0.000000000E+00 -3.278825123E+02  3.278825123E+02  0.000000000E+00  0.00000E+00  9.000E+00
      25     1     1     2     0     0 -2.130542528E+01 -1.779006007E+01  2.153489184E+02  2.505405437E+02  1.250000000E+02  0.00000E+00  9.000E+00
      25     1     1     2     0     0 -2.770075636E+02  8.863093305E+01 -4.612798843E+01  3.199084618E+02  1.250000000E+02  0.00000E+00  9.000E+00
      21     1     1     2   502   511  2.983129889E+02 -7.084087298E+01  5.739836646E+01  3.119353156E+02  3.814697266E-06  0.00000E+00  9.000E+00
#rwgt            1           1   2.7425175479272638E-002          10      335818           0
</event>
<event>
      5   9999  3.19816E-02  2.27484E+01 -1.00000E+00  1.61884E-01
      21    -1     0     0   512   501  0.000000000E+00  0.000000000E+00  1.081055772E+02  1.081055772E+02  0.000000000E+00  0.00000E+00  9.000E+00
      21    -1     0     0   501   502  0.000000000E+00  0.000000000E+00 -1.873206318E+03  1.873206318E+03  0.000000000E+00  0.00000E+00  9.000E+00
      25     1     1     2     0     0  6.825995375E+01 -3.645719231E+02 -1.203032557E+03  1.265102542E+03  1.250000000E+02  0.00000E+00  9.000E+00
      25     1     1     2     0     0 -4.638269924E+01  3.708067675E+02 -5.692723837E+02  6.923474998E+02  1.250000000E+02  0.00000E+00  9.000E+00
      21     1     1     2   512   502 -2.187725450E+01 -6.234844373E+00  7.204200050E+00  2.386185339E+01  2.230201594E-07  0.00000E+00  9.000E+00
#rwgt            1           1   3.3322061246331698E-002          10      335854           0
</event>
<event>
      5   9999  3.19816E-02  5.19968E+01 -1.00000E+00  1.38112E-01
      21    -1     0     0   511   501  0.000000000E+00  0.000000000E+00  1.332756255E+02  1.332756255E+02  0.000000000E+00  0.00000E+00  9.000E+00
      21    -1     0     0   501   502  0.000000000E+00  0.000000000E+00 -9.193291242E+02  9.193291242E+02  0.000000000E+00  0.00000E+00  9.000E+00
      25     1     1     2     0     0  7.848720990E+01 -2.467416928E+02 -2.829402804E+02  4.033880357E+02  1.250000000E+02  0.00000E+00  9.000E+00
      25     1     1     2     0     0 -1.198006071E+02  2.783150166E+02 -4.990443945E+02  5.970609195E+02  1.250000000E+02  0.00000E+00  9.000E+00
      21     1     1     2   511   502  4.131339724E+01 -3.157332379E+01 -4.068823667E+00  5.215579442E+01  8.534086384E-07  0.00000E+00  9.000E+00
#rwgt            1           1   2.6635252185006470E-002          10      335975           0
</event>
<event>
      5   9999  3.19816E-02  8.42986E+01 -1.00000E+00  1.27259E-01
       5    -1     0     0   502     0  0.000000000E+00  0.000000000E+00  3.752615903E+02  3.752615903E+02  0.000000000E+00  0.00000E+00  9.000E+00
      21    -1     0     0   501   502  0.000000000E+00  0.000000000E+00 -4.720214730E+02  4.720214730E+02  0.000000000E+00  0.00000E+00  9.000E+00
      25     1     1     2     0     0 -5.013319072E+01  4.025769595E+00  2.405435770E+02  2.757095502E+02  1.250000000E+02  0.00000E+00  9.000E+00
      25     1     1     2     0     0  2.919002543E+01  7.762985327E+01 -4.245388315E+02  4.502628912E+02  1.250000000E+02  0.00000E+00  9.000E+00
       5     1     1     2   501     0  2.094316530E+01 -8.165562286E+01  8.723537175E+01  1.213106220E+02  1.348699152E-06  0.00000E+00  9.000E+00
#rwgt            1           1   2.7220917493394607E-002          10      336115           0
</event>
<event>
      5   9999  3.19816E-02  3.26799E+01 -1.00000E+00  1.50503E-01
      21    -1     0     0   502   501  0.000000000E+00  0.000000000E+00  2.995838496E+02  2.995838496E+02  0.000000000E+00  0.00000E+00  9.000E+00
      21    -1     0     0   511   502  0.000000000E+00  0.000000000E+00 -3.341134048E+02  3.341134048E+02  0.000000000E+00  0.00000E+00  9.000E+00
      25     1     1     2     0     0  1.807531841E+02 -5.077044462E+01 -1.172295529E+02  2.541989765E+02  1.250000000E+02  0.00000E+00  9.000E+00
      25     1     1     2     0     0 -2.128978165E+02  5.666099626E+01  1.572210659E+02  2.981265039E+02  1.250000000E+02  0.00000E+00  9.000E+00
      21     1     1     2   511   501  3.214463238E+01 -5.890551641E+00 -7.452106818E+01  8.137177393E+01  0.000000000E+00  0.00000E+00  9.000E+00
#rwgt            1           1   2.6465855463152624E-002          10      336208           0
</event>
<event>
      5   9999  3.19816E-02  6.09002E+01 -1.00000E+00  1.34359E-01
      21    -1     0     0   502   501  0.000000000E+00  0.000000000E+00  5.688615445E+02  5.688615445E+02  0.000000000E+00  0.00000E+00  9.000E+00
      21    -1     0     0   501   512  0.000000000E+00  0.000000000E+00 -3.922695757E+02  3.922695757E+02  0.000000000E+00  0.00000E+00  9.000E+00
      25     1     1     2     0     0 -1.740929114E+02 -2.268602845E+02  4.045353899E+02  5.109283826E+02  1.250000000E+02  0.00000E+00  9.000E+00
      25     1     1     2     0     0  2.226671580E+02  1.901264518E+02 -1.517967880E+02  3.526981653E+02  1.250000000E+02  0.00000E+00  9.000E+00
      21     1     1     2   502   512 -4.857424659E+01  3.673383262E+01 -7.614663312E+01  9.750457233E+01  1.651812370E-06  0.00000E+00  9.000E+00
#rwgt            1           1   2.8174419684275368E-002          10      336364           0
</event>
<event>
      5   9999  3.19816E-02  4.96123E+01 -1.00000E+00  1.39269E-01
      21    -1     0     0   502   501  0.000000000E+00  0.000000000E+00  7.346420830E+02  7.346420830E+02  0.000000000E+00  0.00000E+00  9.000E+00
      21    -1     0     0   501   511  0.000000000E+00  0.000000000E+00 -1.151091738E+02  1.151091738E+02  0.000000000E+00  0.00000E+00  9.000E+00
      25     1     1     2     0     0 -9.178141403E+01  2.175394342E+02  3.914613364E+02  4.739348175E+02  1.250000000E+02  0.00000E+00  9.000E+00
      25     1     1     2     0     0  4.286073658E+01 -2.092839865E+02  2.036284496E+02  3.205095556E+02  1.250000000E+02  0.00000E+00  9.000E+00
      21     1     1     2   502   511  4.892067745E+01 -8.255447704E+00  2.444312320E+01  5.530688357E+01  1.118282261E-06  0.00000E+00  9.000E+00
#rwgt            1           1   2.4390678184931281E-002          10      336473           0
</event>
<event>
      5   9999  3.19816E-02  3.80061E+01 -1.00000E+00  1.46231E-01
      21    -1     0     0   502   501  0.000000000E+00  0.000000000E+00  5.117277385E+02  5.117277385E+02  0.000000000E+00  0.00000E+00  9.000E+00
      21    -1     0     0   512   502  0.000000000E+00  0.000000000E+00 -2.523481390E+02  2.523481390E+02  0.000000000E+00  0.00000E+00  9.000E+00
      25     1     1     2     0     0  1.678188688E+01 -1.144427291E+02  9.594770056E+01  1.954730959E+02  1.250000000E+02  0.00000E+00  9.000E+00
      25     1     1     2     0     0 -3.465963147E+01  1.479814932E+02  3.373661449E+02  3.905646273E+02  1.250000000E+02  0.00000E+00  9.000E+00
      21     1     1     2   512   501  1.787774459E+01 -3.353876403E+01 -1.739342460E+02  1.780381543E+02  0.000000000E+00  0.00000E+00  9.000E+00
#rwgt            1           1   2.2979374065687865E-002          10      336673           0
</event>
<event>
      5   9999  3.19816E-02  2.20637E+02 -1.00000E+00  1.10117E-01
      21    -1     0     0   502   501  0.000000000E+00  0.000000000E+00  1.637154142E+02  1.637154142E+02  0.000000000E+00  0.00000E+00  9.000E+00
       1    -1     0     0   501     0  0.000000000E+00  0.000000000E+00 -2.552059678E+03  2.552059678E+03  0.000000000E+00  0.00000E+00  9.000E+00
      25     1     1     2     0     0 -1.699349113E+02  4.970204637E+01 -3.678780615E+01  2.198329142E+02  1.250000000E+02  0.00000E+00  9.000E+00
      25     1     1     2     0     0  2.745324637E+02  1.445657448E+02 -3.570218670E+02  4.892411897E+02  1.250000000E+02  0.00000E+00  9.000E+00
       1     1     1     2   502     0 -1.045975524E+02 -1.942677912E+02 -1.994534591E+03  2.006700988E+03  2.157918644E-05  0.00000E+00  9.000E+00
#rwgt            1           1   3.0573141507975871E-002          10      336780           0
</event>
<event>
      5   9999  3.19816E-02  1.68330E+01 -1.00000E+00  1.72793E-01
      21    -1     0     0   511   501  0.000000000E+00  0.000000000E+00  1.738912221E+03  1.738912221E+03  0.000000000E+00  0.00000E+00  9.000E+00
      21    -1     0     0   501   502  0.000000000E+00  0.000000000E+00 -5.192299910E+02  5.192299910E+02  0.000000000E+00  0.00000E+00  9.000E+00
      25     1     1     2     0     0  1.315147229E+02 -6.941434943E+02 -9.757217365E+01  7.240695009E+02  1.250000000E+02  0.00000E+00  9.000E+00
      25     1     1     2     0     0 -1.291849373E+02  7.108145359E+02  1.136141185E+03  1.352178925E+03  1.250000000E+02  0.00000E+00  9.000E+00
      21     1     1     2   511   502 -2.329785617E+00 -1.667104163E+01  1.811132184E+02  1.818937861E+02  0.000000000E+00  0.00000E+00  9.000E+00
#rwgt            1           1   2.6479783888040034E-002          10      336842           0
</event>
<event>
      5   9999  3.19816E-02  8.83131E+01 -1.00000E+00  1.26305E-01
      21    -1     0     0   502   501  0.000000000E+00  0.000000000E+00  8.969652610E+02  8.969652610E+02  0.000000000E+00  0.00000E+00  9.000E+00
      -4    -1     0     0     0   502  0.000000000E+00  0.000000000E+00 -8.657087222E+02  8.657087222E+02  0.000000000E+00  0.00000E+00  9.000E+00
      25     1     1     2     0     0  3.071931796E+02  1.330064859E+02  2.205654454E+02  4.199196240E+02  1.250000000E+02  0.00000E+00  9.000E+00
      25     1     1     2     0     0 -2.394286485E+02 -1.896383412E+02  5.265738412E+02  6.214449199E+02  1.250000000E+02  0.00000E+00  9.000E+00
      -4     1     1     2     0   501 -6.776453104E+01  5.663185534E+01 -7.158827478E+02  7.213094394E+02  7.629394531E-06  0.00000E+00  9.000E+00
#rwgt            1           1   2.8162395603895010E-002          10      337161           0
</event>
<event>
      5   9999  3.19816E-02  9.13531E+01 -1.00000E+00  1.25621E-01
      21    -1     0     0   502   501  0.000000000E+00  0.000000000E+00  3.882751962E+02  3.882751962E+02  0.000000000E+00  0.00000E+00  9.000E+00
       2    -1     0     0   501     0  0.000000000E+00  0.000000000E+00 -3.163757083E+02  3.163757083E+02  0.000000000E+00  0.00000E+00  9.000E+00
      25     1     1     2     0     0 -2.054649192E+02 -1.248594885E+02  1.189237339E+01  2.712418726E+02  1.250000000E+02  0.00000E+00  9.000E+00
      25     1     1     2     0     0  2.717874600E+02  6.203661491E+01 -2.769458616E+01  3.067718291E+02  1.250000000E+02  0.00000E+00  9.000E+00
       2     1     1     2   502     0 -6.632254082E+01  6.282287358E+01  8.770170066E+01  1.266372029E+02  2.336015456E-06  0.00000E+00  9.000E+00
#rwgt            1           1   3.4195609335794332E-002          10      337231           0
</event>
<event>
      5   9999  3.19816E-02  3.95488E+01 -1.00000E+00  1.45146E-01
      21    -1     0     0   502   511  0.000000000E+00  0.000000000E+00  6.110202836E+02  6.110202836E+02  0.000000000E+00  0.00000E+00  9.000E+00
      21    -1     0     0   501   502  0.000000000E+00  0.000000000E+00 -5.183643368E+02  5.183643368E+02  0.000000000E+00  0.00000E+00  9.000E+00
      25     1     1     2     0     0  1.459629449E+02  3.985006751E+02 -2.024735042E+02  4.865475200E+02  1.250000000E+02  0.00000E+00  9.000E+00
      25     1     1     2     0     0 -1.657410580E+02 -4.327488030E+02  1.661173124E+02  5.078991891E+02  1.250000000E+02  0.00000E+00  9.000E+00
      21     1     1     2   501   511  1.977811310E+01  3.424812787E+01  1.290121385E+02  1.349379113E+02  1.907348633E-06  0.00000E+00  9.000E+00
#rwgt            1           1   2.5854613262404708E-002          10      337323           0
</event>
<event>
      5   9999  3.19816E-02  7.37591E+01 -1.00000E+00  1.30080E-01
      21    -1     0     0   512   501  0.000000000E+00  0.000000000E+00  1.014799605E+03  1.014799605E+03  0.000000000E+00  0.00000E+00  9.000E+00
      21    -1     0     0   501   502  0.000000000E+00  0.000000000E+00 -3.989713817E+02  3.989713817E+02  0.000000000E+00  0.00000E+00  9.000E+00
      25     1     1     2     0     0 -1.798519418E+01  1.364763237E+02  8.378816252E+02  8.582656186E+02  1.250000000E+02  0.00000E+00  9.000E+00
      25     1     1     2     0     0 -3.241597694E+01 -1.903292166E+02 -3.435133891E+02  4.134035011E+02  1.250000000E+02  0.00000E+00  9.000E+00
      21     1     1     2   512   502  5.040117112E+01  5.385289297E+01  1.214599875E+02  1.421018673E+02  2.336015456E-06  0.00000E+00  9.000E+00
#rwgt            1           1   2.8646204510581051E-002          10      337480           0
</event>
<event>
      5   9999  3.19816E-02  3.04270E+01 -1.00000E+00  1.52615E-01
      21    -1     0     0   502   501  0.000000000E+00  0.000000000E+00  1.044332840E+03  1.044332840E+03  0.000000000E+00  0.00000E+00  9.000E+00
      21    -1     0     0   501   511  0.000000000E+00  0.000000000E+00 -4.269544218E+01  4.269544218E+01  0.000000000E+00  0.00000E+00  9.000E+00
      25     1     1     2     0     0 -1.673847917E+01  8.805826118E+01  1.633542736E+02  2.243748042E+02  1.250000000E+02  0.00000E+00  9.000E+00
      25     1     1     2     0     0  3.689422225E+01 -6.526471146E+01  8.027382599E+02  8.158641922E+02  1.250000000E+02  0.00000E+00  9.000E+00
      21     1     1     2   502   511 -2.015574309E+01 -2.279354972E+01  3.554486441E+01  4.678928589E+01  8.259061849E-07  0.00000E+00  9.000E+00
#rwgt            1           1   3.4936971854927876E-002          10      337562           0
</event>
<event>
      5   9999  3.19816E-02  5.36539E+01 -1.00000E+00  1.37350E-01
      21    -1     0     0   502   501  0.000000000E+00  0.000000000E+00  5.669775661E+02  5.669775661E+02  0.000000000E+00  0.00000E+00  9.000E+00
      21    -1     0     0   501   512  0.000000000E+00  0.000000000E+00 -2.569477724E+02  2.569477724E+02  0.000000000E+00  0.00000E+00  9.000E+00
      25     1     1     2     0     0 -1.026218309E+02  2.224589947E+02  1.256586846E+01  2.753218945E+02  1.250000000E+02  0.00000E+00  9.000E+00
      25     1     1     2     0     0  5.034319836E+01 -2.103887474E+02  3.772333333E+02  4.524686182E+02  1.250000000E+02  0.00000E+00  9.000E+00
      21     1     1     2   502   512  5.227863256E+01 -1.207024731E+01 -7.976940801E+01  9.613482588E+01  9.536743164E-07  0.00000E+00  9.000E+00
#rwgt            1           1   2.9144518479089030E-002          10      337649           0
</event>
<event>
      5   9999  3.19816E-02  1.24017E+02 -1.00000E+00  1.19764E-01
      21    -1     0     0   502   511  0.000000000E+00  0.000000000E+00  8.064725937E+02  8.064725937E+02  0.000000000E+00  0.00000E+00  9.000E+00
      21    -1     0     0   501   502  0.000000000E+00  0.000000000E+00 -9.967687954E+02  9.967687954E+02  0.000000000E+00  0.00000E+00  9.000E+00
      25     1     1     2     0     0 -2.175556894E+02 -4.930631096E+01 -8.056452362E+02  8.452519370E+02  1.250000000E+02  0.00000E+00  9.000E+00
      25     1     1     2     0     0  2.305422159E+02  1.726411680E+02 -1.618779666E+01  3.143910478E+02  1.250000000E+02  0.00000E+00  9.000E+00
      21     1     1     2   501   511 -1.298652645E+01 -1.233348570E+02  6.315368312E+02  6.435984043E+02  7.629394531E-06  0.00000E+00  9.000E+00
#rwgt            1           1   3.2120457919537583E-002          10      337763           0
</event>
<event>
      5   9999  3.19816E-02  5.06651E+01 -1.00000E+00  1.38749E-01
      21    -1     0     0   512   501  0.000000000E+00  0.000000000E+00  5.612675534E+02  5.612675534E+02  0.000000000E+00  0.00000E+00  9.000E+00
      21    -1     0     0   501   502  0.000000000E+00  0.000000000E+00 -1.777299182E+02  1.777299182E+02  0.000000000E+00  0.00000E+00  9.000E+00
      25     1     1     2     0     0  1.528274072E+02  4.937832168E+00 -8.495356849E+01  2.149946682E+02  1.250000000E+02  0.00000E+00  9.000E+00
      25     1     1     2     0     0 -1.238709567E+02  3.663714217E+01  4.024235635E+02  4.407448452E+02  1.250000000E+02  0.00000E+00  9.000E+00
      21     1     1     2   512   502 -2.895645048E+01 -4.157497434E+01  6.606764023E+01  8.325795819E+01  9.536743164E-07  0.00000E+00  9.000E+00
#rwgt            1           1   2.6111254482579185E-002          10      337825           0
</event>
<event>
      5   9999  3.19816E-02  5.21962E+01 -1.00000E+00  1.38019E-01
      21    -1     0     0   502   501  0.000000000E+00  0.000000000E+00  2.305910760E+02  2.305910760E+02  0.000000000E+00  0.00000E+00  9.000E+00
      21    -1     0     0   511   502  0.000000000E+00  0.000000000E+00 -2.485762825E+02  2.485762825E+02  0.000000000E+00  0.00000E+00  9.000E+00
      25     1     1     2     0     0 -1.520630664E+01  1.555504029E+02 -3.946278820E+01  2.039839976E+02  1.250000000E+02  0.00000E+00  9.000E+00
      25     1     1     2     0     0 -3.247538069E+01 -1.767848683E+02  3.386159694E+01  2.215381406E+02  1.250000000E+02  0.00000E+00  9.000E+00
      21     1     1     2   511   501  4.768168732E+01  2.123446534E+01 -1.238401528E+01  5.364522028E+01  3.371747881E-07  0.00000E+00  9.000E+00
#rwgt            1           1   2.6644739806890833E-002          10      337903           0
</event>
<event>
      5   9999  3.19816E-02  3.59107E+01 -1.00000E+00  1.47806E-01
      21    -1     0     0   502   501  0.000000000E+00  0.000000000E+00  7.765658869E+02  7.765658869E+02  0.000000000E+00  0.00000E+00  9.000E+00
      21    -1     0     0   512   502  0.000000000E+00  0.000000000E+00 -3.384471240E+02  3.384471240E+02  0.000000000E+00  0.00000E+00  9.000E+00
      25     1     1     2     0     0  2.812322220E+02  2.719562589E+02  5.351783228E+02  6.746055193E+02  1.250000000E+02  0.00000E+00  9.000E+00
      25     1     1     2     0     0 -2.453342972E+02 -2.709995577E+02 -1.108761007E+02  4.019305753E+02  1.250000000E+02  0.00000E+00  9.000E+00
      21     1     1     2   512   501 -3.589792480E+01 -9.567012950E-01  1.381654078E+01  3.847691621E+01  4.768371582E-07  0.00000E+00  9.000E+00
#rwgt            1           1   2.8470400954157336E-002          10      338008           0
</event>
<event>
      5   9999  3.19816E-02  4.32916E+01 -1.00000E+00  1.42742E-01
      21    -1     0     0   502   511  0.000000000E+00  0.000000000E+00  1.842339419E+03  1.842339419E+03  0.000000000E+00  0.00000E+00  9.000E+00
      21    -1     0     0   501   502  0.000000000E+00  0.000000000E+00 -1.163174540E+03  1.163174540E+03  0.000000000E+00  0.00000E+00  9.000E+00
      25     1     1     2     0     0  4.440954638E+02 -2.884579748E+02 -1.053822936E+03  1.186000238E+03  1.250000000E+02  0.00000E+00  9.000E+00
      25     1     1     2     0     0 -4.008047513E+02  2.881886538E+02  1.632934141E+03  1.710495851E+03  1.250000000E+02  0.00000E+00  9.000E+00
      21     1     1     2   501   511 -4.329071249E+01  2.693210591E-01  1.000536744E+02  1.090178705E+02  1.348699152E-06  0.00000E+00  9.000E+00
#rwgt            1           1   4.5778109831645764E-002          10      338144           0
</event>
<event>
      5   9999  3.19816E-02  1.87394E+01 -1.00000E+00  1.68736E-01
      21    -1     0     0   512   501  0.000000000E+00  0.000000000E+00  6.367505142E+02  6.367505142E+02  0.000000000E+00  0.00000E+00  9.000E+00
      21    -1     0     0   501   502  0.000000000E+00  0.000000000E+00 -1.729592172E+03  1.729592172E+03  0.000000000E+00  0.00000E+00  9.000E+00
      25     1     1     2     0     0  9.652537350E+02  8.994113011E+01 -7.661687283E+02  1.241951569E+03  1.250000000E+02  0.00000E+00  9.000E+00
      25     1     1     2     0     0 -9.470755787E+02 -9.449317324E+01 -4.064426162E+02  1.042449861E+03  1.250000000E+02  0.00000E+00  9.000E+00
      21     1     1     2   512   502 -1.817815632E+01  4.552043130E+00  7.976968713E+01  8.194125609E+01  0.000000000E+00  0.00000E+00  9.000E+00
#rwgt            1           1   3.6485221135076580E-002          10      338392           0
</event>
<event>
      5   9999  3.19816E-02  2.60598E+01 -1.00000E+00  1.57412E-01
      21    -1     0     0   502   501  0.000000000E+00  0.000000000E+00  3.264968172E+02  3.264968172E+02  0.000000000E+00  0.00000E+00  9.000E+00
      21    -1     0     0   501   511  0.000000000E+00  0.000000000E+00 -6.654542345E+02  6.654542345E+02  0.000000000E+00  0.00000E+00  9.000E+00
      25     1     1     2     0     0  1.590195781E+02  1.264084513E+02  2.446351369E+02  3.416689523E+02  1.250000000E+02  0.00000E+00  9.000E+00
      25     1     1     2     0     0 -1.526278491E+02 -1.516722072E+02 -5.674794900E+02  6.196431960E+02  1.250000000E+02  0.00000E+00  9.000E+00
      21     1     1     2   502   511 -6.391728942E+00  2.526375590E+01 -1.611306416E+01  3.063890333E+01  2.384185791E-07  0.00000E+00  9.000E+00
#rwgt            1           1   2.7122139019641597E-002          10      338586           0
</event>
<event>
      5   9999  3.19816E-02  1.73662E+02 -1.00000E+00  1.13927E-01
      21    -1     0     0   502   512  0.000000000E+00  0.000000000E+00  3.575797070E+02  3.575797070E+02  0.000000000E+00  0.00000E+00  9.000E+00
      21    -1     0     0   501   502  0.000000000E+00  0.000000000E+00 -5.200244169E+02  5.200244169E+02  0.000000000E+00  0.00000E+00  9.000E+00
      25     1     1     2     0     0  3.164269635E+00 -2.832006300E+02  8.375314790E+01  3.207057829E+02  1.250000000E+02  0.00000E+00  9.000E+00
      25     1     1     2     0     0  1.621364674E+02  2.299628072E+02 -2.262793539E+02  3.820974650E+02  1.250000000E+02  0.00000E+00  9.000E+00
      21     1     1     2   501   512 -1.653007370E+02  5.323782280E+01 -1.991850387E+01  1.748008760E+02  2.780414531E-06  0.00000E+00  9.000E+00
#rwgt            1           1   2.9817844543309262E-002          10      338720           0
</event>
<event>
      5   9999  3.19816E-02  2.11335E+02 -1.00000E+00  1.10783E-01
      21    -1     0     0   511   501  0.000000000E+00  0.000000000E+00  1.555016541E+03  1.555016541E+03  0.000000000E+00  0.00000E+00  9.000E+00
      21    -1     0     0   501   502  0.000000000E+00  0.000000000E+00 -7.359851708E+02  7.359851708E+02  0.000000000E+00  0.00000E+00  9.000E+00
      25     1     1     2     0     0 -9.398392512E+00 -3.379067159E+02  1.214712432E+00  3.604105353E+02  1.250000000E+02  0.00000E+00  9.000E+00
      25     1     1     2     0     0  1.675918642E+01  5.491133456E+02 -4.023058569E+02  6.923014800E+02  1.250000000E+02  0.00000E+00  9.000E+00
      21     1     1     2   511   502 -7.360793905E+00 -2.112066297E+02  1.220122514E+03  1.238289696E+03  0.000000000E+00  0.00000E+00  9.000E+00
#rwgt            2          11   3.4023196704229919E-003          10      338784           0
</event>
<event>
      5   9999  3.19816E-02  2.29693E+01 -1.00000E+00  1.61557E-01
      21    -1     0     0   502   501  0.000000000E+00  0.000000000E+00  1.340629252E+02  1.340629252E+02  0.000000000E+00  0.00000E+00  9.000E+00
      21    -1     0     0   512   502  0.000000000E+00  0.000000000E+00 -7.859831648E+02  7.859831648E+02  0.000000000E+00  0.00000E+00  9.000E+00
      25     1     1     2     0     0  2.258186922E+02 -1.296849057E+02 -1.437175392E+02  3.226328991E+02  1.250000000E+02  0.00000E+00  9.000E+00
      25     1     1     2     0     0 -2.385093667E+02  1.105397873E+02 -4.717510072E+02  5.543282199E+02  1.250000000E+02  0.00000E+00  9.000E+00
      21     1     1     2   512   501  1.269067448E+01  1.914511844E+01 -3.645169324E+01  4.308497092E+01  4.768371582E-07  0.00000E+00  9.000E+00
#rwgt            1           1   2.8887753027647813E-002          10      338804           0
</event>
<event>
      5   9999  3.19816E-02  9.03050E+01 -1.00000E+00  1.25853E-01
      21    -1     0     0   502   501  0.000000000E+00  0.000000000E+00  5.122478755E+02  5.122478755E+02  0.000000000E+00  0.00000E+00  9.000E+00
      21    -1     0     0   501   511  0.000000000E+00  0.000000000E+00 -6.456138772E+02  6.456138772E+02  0.000000000E+00  0.00000E+00  9.000E+00
      25     1     1     2     0     0  4.614720773E+02 -2.209051014E+02  4.548712138E+01  5.286299464E+02  1.250000000E+02  0.00000E+00  9.000E+00
      25     1     1     2     0     0 -4.739786759E+02  1.314703325E+02 -1.201937531E+02  5.215474780E+02  1.250000000E+02  0.00000E+00  9.000E+00
      21     1     1     2   502   511  1.250659854E+01  8.943476886E+01 -5.865937000E+01  1.076843284E+02  1.651812370E-06  0.00000E+00  9.000E+00
#rwgt            1           1   2.5568931572713911E-002          10      338938           0
</event>
<event>
      5   9999  3.19816E-02  3.31201E+01 -1.00000E+00  1.50114E-01
      21    -1     0     0   502   501  0.000000000E+00  0.000000000E+00  5.316004897E+02  5.316004897E+02  0.000000000E+00  0.00000E+00  9.000E+00
      21    -1     0     0   501   512  0.000000000E+00  0.000000000E+00 -1.037711977E+02  1.037711977E+02  0.000000000E+00  0.00000E+00  9.000E+00
      25     1     1     2     0     0 -6.297484393E+01  2.398532968E+01  8.372642429E+00  1.422540971E+02  1.250000000E+02  0.00000E+00  9.000E+00
      25     1     1     2     0     0  5.117316311E+01 -5.493140324E+01  4.333334890E+02  4.572079006E+02  1.250000000E+02  0.00000E+00  9.000E+00
      21     1     1     2   502   512  1.180168082E+01  3.094607356E+01 -1.387683948E+01  3.590968968E+01  6.307962682E-07  0.00000E+00  9.000E+00
#rwgt            1           1   2.8042076556765990E-002          10      339081           0
</event>
<event>
      5   9999  3.19816E-02  1.13090E+02 -1.00000E+00  1.21472E-01
      21    -1     0     0   502   501  0.000000000E+00  0.000000000E+00  1.999666501E+02  1.999666501E+02  0.000000000E+00  0.00000E+00  9.000E+00
      21    -1     0     0   511   502  0.000000000E+00  0.000000000E+00 -1.634473794E+03  1.634473794E+03  0.000000000E+00  0.00000E+00  9.000E+00
      25     1     1     2     0     0  9.771924529E+01 -2.866314560E+02 -1.463837155E+02  3.588312063E+02  1.250000000E+02  0.00000E+00  9.000E+00
      25     1     1     2     0     0 -2.051210141E+02  3.220473456E+02 -3.564423588E+02  5.370896372E+02  1.250000000E+02  0.00000E+00  9.000E+00
      21     1     1     2   511   501  1.074017688E+02 -3.541588965E+01 -9.316810700E+02  9.385196010E+02  1.078959322E-05  0.00000E+00  9.000E+00
#rwgt            2          11   1.4397600058757632E-003          10      339275           0
</event>
<event>
      5   9999  3.19816E-02  6.24620E+01 -1.00000E+00  1.33777E-01
      21    -1     0     0   502   512  0.000000000E+00  0.000000000E+00  2.567872032E+02  2.567872032E+02  0.000000000E+00  0.00000E+00  9.000E+00
      21    -1     0     0   501   502  0.000000000E+00  0.000000000E+00 -5.403675526E+02  5.403675526E+02  0.000000000E+00  0.00000E+00  9.000E+00
      25     1     1     2     0     0 -1.560570172E+02  1.956214453E+02 -3.048957335E+02  4.137728251E+02  1.250000000E+02  0.00000E+00  9.000E+00
      25     1     1     2     0     0  1.388562406E+02 -2.556683403E+02 -2.128547093E+00  3.166652594E+02  1.250000000E+02  0.00000E+00  9.000E+00
      21     1     1     2   501   512  1.720077662E+01  6.004689502E+01  2.344393131E+01  6.671667133E+01  4.768371582E-07  0.00000E+00  9.000E+00
#rwgt            1           1   2.7117269320144754E-002          10      339295           0
</event>
<event>
      5   9999  3.19816E-02  1.41156E+02 -1.00000E+00  1.17449E-01
      21    -1     0     0   502   501  0.000000000E+00  0.000000000E+00  9.796062378E+01  9.796062378E+01  0.000000000E+00  0.00000E+00  9.000E+00
       1    -1     0     0   501     0  0.000000000E+00  0.000000000E+00 -1.104566651E+03  1.104566651E+03  0.000000000E+00  0.00000E+00  9.000E+00
      25     1     1     2     0     0  1.343431917E+02 -5.369303074E+01 -4.865135574E+02  5.227346136E+02  1.250000000E+02  0.00000E+00  9.000E+00
      25     1     1     2     0     0 -1.340079203E+02  1.948490991E+02 -2.134249096E+02  3.421980218E+02  1.250000000E+02  0.00000E+00  9.000E+00
       1     1     1     2   502     0 -3.352714713E-01 -1.411560683E+02 -3.066675601E+02  3.375946393E+02  6.607249480E-06  0.00000E+00  9.000E+00
#rwgt            1           1   3.0280827384717591E-002          10      339389           0
</event>
<event>
      5   9999  3.19816E-02  7.41945E+01 -1.00000E+00  1.29953E-01
      21    -1     0     0   502   501  0.000000000E+00  0.000000000E+00  1.851217563E+03  1.851217563E+03  0.000000000E+00  0.00000E+00  9.000E+00
      21    -1     0     0   501   511  0.000000000E+00  0.000000000E+00 -1.359865012E+02  1.359865012E+02  0.000000000E+00  0.00000E+00  9.000E+00
      25     1     1     2     0     0  1.791489906E+02  3.895563969E+02  5.125202031E+02  6.798165236E+02  1.250000000E+02  0.00000E+00  9.000E+00
      25     1     1     2     0     0 -2.260843266E+02 -3.320942620E+02  1.119228759E+03  1.195700104E+03  1.250000000E+02  0.00000E+00  9.000E+00
      21     1     1     2   502   511  4.693533597E+01 -5.746213494E+01  8.348209946E+01  1.116874373E+02  9.536743164E-07  0.00000E+00  9.000E+00
#rwgt            1           1   2.7689571292446580E-002          10      339484           0
</event>
<event>
      5   9999  3.19816E-02  5.12656E+01 -1.00000E+00  1.38459E-01
      21    -1     0     0   502   512  0.000000000E+00  0.000000000E+00  4.156855187E+02  4.156855187E+02  0.000000000E+00  0.00000E+00  9.000E+00
      21    -1     0     0   501   502  0.000000000E+00  0.000000000E+00 -1.422425363E+02  1.422425363E+02  0.000000000E+00  0.00000E+00  9.000E+00
      25     1     1     2     0     0  6.285301277E+01 -1.176371211E+02  1.733884654E+02  2.519475212E+02  1.250000000E+02  0.00000E+00  9.000E+00
      25     1     1     2     0     0 -1.007436006E+02  1.521692270E+02  3.628122906E+01  2.241563612E+02  1.250000000E+02  0.00000E+00  9.000E+00
      21     1     1     2   501   512  3.789058782E+01 -3.453210584E+01  6.377328788E+01  8.182417263E+01  6.743495762E-07  0.00000E+00  9.000E+00
#rwgt            1           1   2.7221281645882247E-002          10      339602           0
</event>
<event>
      5   9999  3.19816E-02  7.12181E+01 -1.00000E+00  1.30842E-01
      21    -1     0     0   502   501  0.000000000E+00  0.000000000E+00  1.203549038E+03  1.203549038E+03  0.000000000E+00  0.00000E+00  9.000E+00
      21    -1     0     0   501   511  0.000000000E+00  0.000000000E+00 -2.401905401E+02  2.401905401E+02  0.000000000E+00  0.00000E+00  9.000E+00
      25     1     1     2     0     0 -2.075602256E+02  1.098078559E+02  7.412303712E+02  7.875191907E+02  1.250000000E+02  0.00000E+00  9.000E+00
      25     1     1     2     0     0  2.451094778E+02 -1.703228962E+02  3.703325547E+02  4.917923812E+02  1.250000000E+02  0.00000E+00  9.000E+00
      21     1     1     2   502   511 -3.754925227E+01  6.051504037E+01 -1.482044285E+02  1.644280058E+02  3.303624740E-06  0.00000E+00  9.000E+00
#rwgt            2          11   4.3029759582440775E-003          10      339754           0
</event>
<event>
      5   9999  3.19816E-02  2.26053E+01 -1.00000E+00  1.62098E-01
      21    -1     0     0   502   501  0.000000000E+00  0.000000000E+00  6.267391737E+02  6.267391737E+02  0.000000000E+00  0.00000E+00  9.000E+00
       1    -1     0     0   501     0  0.000000000E+00  0.000000000E+00 -2.929502546E+03  2.929502546E+03  0.000000000E+00  0.00000E+00  9.000E+00
      25     1     1     2     0     0 -9.678793428E+01  2.349200894E+01  5.674655758E+02  5.895438562E+02  1.250000000E+02  0.00000E+00  9.000E+00
      25     1     1     2     0     0  9.209149245E+01 -1.379979786E+00 -7.688071498E+01  1.732581648E+02  1.250000000E+02  0.00000E+00  9.000E+00
       1     1     1     2   502     0  4.696441828E+00 -2.211202916E+01 -2.793348233E+03  2.793439699E+03  0.000000000E+00  0.00000E+00  9.000E+00
#rwgt            1           1   2.8040654465334543E-002          10      339819           0
</event>
<event>
      5   9999  3.19816E-02  2.88593E+02 -1.00000E+00  1.06142E-01
      21    -1     0     0   511   501  0.000000000E+00  0.000000000E+00  5.104364796E+02  5.104364796E+02  0.000000000E+00  0.00000E+00  9.000E+00
      21    -1     0     0   501   502  0.000000000E+00  0.000000000E+00 -2.516011240E+03  2.516011240E+03  0.000000000E+00  0.00000E+00  9.000E+00
      25     1     1     2     0     0  6.071366841E+02 -5.815833525E+02 -1.968179902E+03  2.143877626E+03  1.250000000E+02  0.00000E+00  9.000E+00
      25     1     1     2     0     0 -3.468943453E+02  4.568434763E+02 -7.374425515E+01  5.916965978E+02  1.250000000E+02  0.00000E+00  9.000E+00
      21     1     1     2   511   502 -2.602423388E+02  1.247398762E+02  3.634939725E+01  2.908734953E+02  3.303624740E-06  0.00000E+00  9.000E+00
#rwgt            1           1   2.4912837965561586E-002          10      339993           0
</event>
<event>
      5   9999  3.19816E-02  3.88802E+02 -1.00000E+00  1.02058E-01
       2    -1     0     0   502     0  0.000000000E+00  0.000000000E+00  2.797927097E+03  2.797927097E+03  0.000000000E+00  0.00000E+00  9.000E+00
      21    -1     0     0   501   502  0.000000000E+00  0.000000000E+00 -6.501500175E+02  6.501500175E+02  0.000000000E+00  0.00000E+00  9.000E+00
      25     1     1     2     0     0 -9.288214670E+02 -2.815040874E+02 -1.061920373E+02  9.843046366E+02  1.250000000E+02  0.00000E+00  9.000E+00
      25     1     1     2     0     0  5.619903645E+02  1.526565414E+02  1.533112665E+03  1.644748197E+03  1.250000000E+02  0.00000E+00  9.000E+00
       2     1     1     2   501     0  3.668311025E+02  1.288475460E+02  7.208564517E+02  8.190242804E+02  0.000000000E+00  0.00000E+00  9.000E+00
#rwgt            2          18   1.7935428758180266E-003          10      340134           0
</event>
<event>
      5   9999  3.19816E-02  8.40875E+01 -1.00000E+00  1.27311E-01
       2    -1     0     0   502     0  0.000000000E+00  0.000000000E+00  1.752997832E+03  1.752997832E+03  0.000000000E+00  0.00000E+00  9.000E+00
      21    -1     0     0   501   502  0.000000000E+00  0.000000000E+00 -6.276178794E+02  6.276178794E+02  0.000000000E+00  0.00000E+00  9.000E+00
      25     1     1     2     0     0 -2.944862453E+02 -8.817182935E+01 -3.406069853E+02  4.755360540E+02  1.250000000E+02  0.00000E+00  9.000E+00
      25     1     1     2     0     0  3.515747487E+02  1.499101248E+02 -3.324187917E+01  4.034945749E+02  1.250000000E+02  0.00000E+00  9.000E+00
       2     1     1     2   501     0 -5.708850339E+01 -6.173829550E+01  1.499228817E+03  1.501585083E+03  0.000000000E+00  0.00000E+00  9.000E+00
#rwgt            1           1   3.0246757138043499E-002          10      340153           0
</event>
<event>
      5   9999  3.19816E-02  4.77940E+01 -1.00000E+00  1.40203E-01
      21    -1     0     0   502   511  0.000000000E+00  0.000000000E+00  1.111477613E+03  1.111477613E+03  0.000000000E+00  0.00000E+00  9.000E+00
      21    -1     0     0   501   502  0.000000000E+00  0.000000000E+00 -6.505114964E+01  6.505114964E+01  0.000000000E+00  0.00000E+00  9.000E+00
      25     1     1     2     0     0  1.058432768E+02 -2.046206484E+01  8.700711337E+02  8.855903528E+02  1.250000000E+02  0.00000E+00  9.000E+00
      25     1     1     2     0     0 -8.773478757E+01 -2.376852403E+01  6.115018085E+01  1.662127561E+02  1.250000000E+02  0.00000E+00  9.000E+00
      21     1     1     2   501   511 -1.810848921E+01  4.423058887E+01  1.152051490E+02  1.247256539E+02  0.000000000E+00  0.00000E+00  9.000E+00
#rwgt            1           1   3.3054533274434229E-002          10      340318           0
</event>
<event>
      5   9999  3.19816E-02  1.50344E+02 -1.00000E+00  1.16354E-01
      21    -1     0     0   502   501  0.000000000E+00  0.000000000E+00  9.069094877E+01  9.069094877E+01  0.000000000E+00  0.00000E+00  9.000E+00
       1    -1     0     0   501     0  0.000000000E+00  0.000000000E+00 -1.818296245E+03  1.818296245E+03  0.000000000E+00  0.00000E+00  9.000E+00
      25     1     1     2     0     0  1.795518780E+02  6.063406986E+01 -1.340346208E+02  2.636392363E+02  1.250000000E+02  0.00000E+00  9.000E+00
      25     1     1     2     0     0 -2.008435990E+02  8.819513096E+01 -8.487233635E+02  8.854788988E+02  1.250000000E+02  0.00000E+00  9.000E+00
       1     1     1     2   502     0  2.129172103E+01 -1.488292008E+02 -7.448473118E+02  7.598690586E+02  1.078959322E-05  0.00000E+00  9.000E+00
#rwgt            2          12   4.2658609805527138E-004          10      340575           0
</event>
<event>
      5   9999  3.19816E-02  3.38269E+01 -1.00000E+00  1.49504E-01
      21    -1     0     0   502   501  0.000000000E+00  0.000000000E+00  1.558745469E+02  1.558745469E+02  0.000000000E+00  0.00000E+00  9.000E+00
      21    -1     0     0   511   502  0.000000000E+00  0.000000000E+00 -1.773434378E+03  1.773434378E+03  0.000000000E+00  0.00000E+00  9.000E+00
      25     1     1     2     0     0  4.726316170E+01 -4.045536233E+02 -2.735340466E+02  5.063035801E+02  1.250000000E+02  0.00000E+00  9.000E+00
      25     1     1     2     0     0 -1.500276319E+01  4.147284910E+02 -1.257921268E+03  1.330494540E+03  1.250000000E+02  0.00000E+00  9.000E+00
      21     1     1     2   511   501 -3.226039851E+01 -1.017486770E+01 -8.610451617E+01  9.251080450E+01  9.536743164E-07  0.00000E+00  9.000E+00
#rwgt            1           1   3.1834041443767752E-002          10      340594           0
</event>
<event>
      5   9999  3.19816E-02  1.17138E+02 -1.00000E+00  1.20815E-01
      21    -1     0     0   502   501  0.000000000E+00  0.000000000E+00  8.881434275E+02  8.881434275E+02  0.000000000E+00  0.00000E+00  9.000E+00
      21    -1     0     0   501   512  0.000000000E+00  0.000000000E+00 -3.277136201E+02  3.277136201E+02  0.000000000E+00  0.00000E+00  9.000E+00
      25     1     1     2     0     0  2.085365457E+02  8.332127124E+01  1.697469211E+02  3.080080232E+02  1.250000000E+02  0.00000E+00  9.000E+00
      25     1     1     2     0     0 -2.852779279E+02  5.177642313E+00  5.954133583E+02  6.719764664E+02  1.250000000E+02  0.00000E+00  9.000E+00
      21     1     1     2   502   512  7.674138225E+01 -8.849891355E+01 -2.047304720E+02  2.358725580E+02  4.672030912E-06  0.00000E+00  9.000E+00
#rwgt            1           1   1.7628585867841849E-002          10      340796           0
</event>
<event>
      5   9999  3.19816E-02  2.73942E+01 -1.00000E+00  1.55832E-01
      21    -1     0     0   502   501  0.000000000E+00  0.000000000E+00  1.279158189E+03  1.279158189E+03  0.000000000E+00  0.00000E+00  9.000E+00
       1    -1     0     0   501     0  0.000000000E+00  0.000000000E+00 -3.198153844E+02  3.198153844E+02  0.000000000E+00  0.00000E+00  9.000E+00
      25     1     1     2     0     0 -2.775731327E+01 -4.822915598E+02  9.319596756E+02  1.057142116E+03  1.250000000E+02  0.00000E+00  9.000E+00
      25     1     1     2     0     0  2.227748686E+01  4.554510418E+02  8.280008848E+01  4.800133254E+02  1.250000000E+02  0.00000E+00  9.000E+00
       1     1     1     2   502     0  5.479826411E+00  2.684051806E+01 -5.541695994E+01  6.181813129E+01  6.743495762E-07  0.00000E+00  9.000E+00
#rwgt            1           1   2.8357892653396513E-002          10      340842           0
</event>
<event>
      5   9999  3.19816E-02  3.81799E+01 -1.00000E+00  1.46106E-01
      21    -1     0     0   502   511  0.000000000E+00  0.000000000E+00  1.156931162E+03  1.156931162E+03  0.000000000E+00  0.00000E+00  9.000E+00
      21    -1     0     0   501   502  0.000000000E+00  0.000000000E+00 -2.167714924E+02  2.167714924E+02  0.000000000E+00  0.00000E+00  9.000E+00
      25     1     1     2     0     0  3.017348610E+02 -1.358055649E+02  2.593678095E+02  4.386157070E+02  1.250000000E+02  0.00000E+00  9.000E+00
      25     1     1     2     0     0 -2.663653685E+02  1.214283618E+02  7.361406587E+01  3.267099437E+02  1.250000000E+02  0.00000E+00  9.000E+00
      21     1     1     2   501   511 -3.536949246E+01  1.437720310E+01  6.071777937E+02  6.083770033E+02  0.000000000E+00  0.00000E+00  9.000E+00
#rwgt            2          11   1.6828498075372627E-003          10      341033           0
</event>
<event>
      5   9999  3.19816E-02  1.45923E+02 -1.00000E+00  1.16870E-01
      -1    -1     0     0     0   501  0.000000000E+00  0.000000000E+00  7.961337690E+02  7.961337690E+02  0.000000000E+00  0.00000E+00  9.000E+00
      21    -1     0     0   501   502  0.000000000E+00  0.000000000E+00 -2.326898957E+02  2.326898957E+02  0.000000000E+00  0.00000E+00  9.000E+00
      25     1     1     2     0     0 -6.675875495E+00  1.134939811E+02 -1.015037883E+02  1.971128359E+02  1.250000000E+02  0.00000E+00  9.000E+00
      25     1     1     2     0     0  1.287777325E+02 -3.358903551E+01  3.605407696E+01  1.861097100E+02  1.250000000E+02  0.00000E+00  9.000E+00
      -1     1     1     2     0   502 -1.221018570E+02 -7.990494555E+01  6.288935847E+02  6.456011188E+02  0.000000000E+00  0.00000E+00  9.000E+00
#rwgt            1           1   3.4010367906333064E-002          10      341053           0
</event>
<event>
      5   9999  3.19816E-02  1.68488E+01 -1.00000E+00  1.72757E-01
      21    -1     0     0   502   511  0.000000000E+00  0.000000000E+00  8.494194076E+02  8.494194076E+02  0.000000000E+00  0.00000E+00  9.000E+00
      21    -1     0     0   501   502  0.000000000E+00  0.000000000E+00 -8.964874881E+01  8.964874881E+01  0.000000000E+00  0.00000E+00  9.000E+00
      25     1     1     2     0     0  2.885016644E+01  1.830572728E+01 -2.494738363E+01  1.319651610E+02  1.250000000E+02  0.00000E+00  9.000E+00
      25     1     1     2     0     0 -3.370694268E+01 -2.172125118E+00  3.692700788E+02  3.913135153E+02  1.250000000E+02  0.00000E+00  9.000E+00
      21     1     1     2   501   511  4.856776238E+00 -1.613360216E+01  4.154479636E+02  4.157894802E+02  0.000000000E+00  0.00000E+00  9.000E+00
#rwgt            1           1   2.8299949075671231E-002          10      341112           0
</event>
<event>
      5   9999  3.19816E-02  1.79310E+02 -1.00000E+00  1.13402E-01
      21    -1     0     0   502   501  0.000000000E+00  0.000000000E+00  4.312442985E+02  4.312442985E+02  0.000000000E+00  0.00000E+00  9.000E+00
       2    -1     0     0   501     0  0.000000000E+00  0.000000000E+00 -2.314656222E+03  2.314656222E+03  0.000000000E+00  0.00000E+00  9.000E+00
      25     1     1     2     0     0 -2.274502206E+02  5.320546733E+02  1.568393266E+02  6.124045661E+02  1.250000000E+02  0.00000E+00  9.000E+00
      25     1     1     2     0     0  9.035175935E+01 -4.164861090E+02 -1.487696343E+03  1.552575128E+03  1.250000000E+02  0.00000E+00  9.000E+00
       2     1     1     2   502     0  1.370984613E+02 -1.155685643E+02 -5.525549078E+02  5.809208270E+02  7.629394531E-06  0.00000E+00  9.000E+00
#rwgt            2          13   1.4183044828382345E-003          10      341290           0
</event>
<event>
      5   9999  3.19816E-02  5.81120E+01 -1.00000E+00  1.35450E-01
      21    -1     0     0   502   501  0.000000000E+00  0.000000000E+00  1.647424487E+02  1.647424487E+02  0.000000000E+00  0.00000E+00  9.000E+00
      21    -1     0     0   501   511  0.000000000E+00  0.000000000E+00 -5.830496286E+02  5.830496286E+02  0.000000000E+00  0.00000E+00  9.000E+00
      25     1     1     2     0     0  7.540458884E+01 -1.321219888E+01 -4.537721127E+02  4.768590405E+02  1.250000000E+02  0.00000E+00  9.000E+00
      25     1     1     2     0     0 -5.287650381E+01 -4.035543127E+01  1.079333294E+02  1.780423800E+02  1.250000000E+02  0.00000E+00  9.000E+00
      21     1     1     2   502   511 -2.252808503E+01  5.356763015E+01 -7.246839665E+01  9.289065684E+01  0.000000000E+00  0.00000E+00  9.000E+00
#rwgt            1           1   2.7244105682918390E-002          10      341309           0
</event>
<event>
      5   9999  3.19816E-02  9.48334E+01 -1.00000E+00  1.24873E-01
      21    -1     0     0   502   512  0.000000000E+00  0.000000000E+00  7.313788087E+02  7.313788087E+02  0.000000000E+00  0.00000E+00  9.000E+00
      21    -1     0     0   501   502  0.000000000E+00  0.000000000E+00 -6.357954174E+02  6.357954174E+02  0.000000000E+00  0.00000E+00  9.000E+00
      25     1     1     2     0     0  1.409005042E+02 -5.840539410E+02 -7.783536189E+01  6.185913850E+02  1.250000000E+02  0.00000E+00  9.000E+00
      25     1     1     2     0     0 -2.323953391E+02  5.591127069E+02  9.496912825E+01  6.255067929E+02  1.250000000E+02  0.00000E+00  9.000E+00
      21     1     1     2   501   512  9.149483489E+01  2.494123405E+01  7.844962500E+01  1.230760482E+02  9.536743164E-07  0.00000E+00  9.000E+00
#rwgt            1           1   3.1034633872347041E-002          10      341399           0
</event>
<event>
      5   9999  3.19816E-02  3.30523E+01 -1.00000E+00  1.50173E-01
       1    -1     0     0   502     0  0.000000000E+00  0.000000000E+00  2.247803718E+03  2.247803718E+03  0.000000000E+00  0.00000E+00  9.000E+00
      21    -1     0     0   501   502  0.000000000E+00  0.000000000E+00 -1.159337117E+02  1.159337117E+02  0.000000000E+00  0.00000E+00  9.000E+00
      25     1     1     2     0     0  7.974426282E+00 -2.386880225E+02  3.505815842E+02  4.422307212E+02  1.250000000E+02  0.00000E+00  9.000E+00
      25     1     1     2     0     0 -2.971527750E+01  2.635835447E+02  2.374519340E+02  3.773164504E+02  1.250000000E+02  0.00000E+00  9.000E+00
       1     1     1     2   501     0  2.174085122E+01 -2.489552222E+01  1.543836488E+03  1.544190258E+03  2.157918644E-05  0.00000E+00  9.000E+00
#rwgt            1           1   3.2531075067101831E-002          10      341498           0
</event>
<event>
      5   9999  3.19816E-02  5.13803E+01 -1.00000E+00  1.38404E-01
       2    -1     0     0   502     0  0.000000000E+00  0.000000000E+00  1.909625352E+03  1.909625352E+03  0.000000000E+00  0.00000E+00  9.000E+00
      21    -1     0     0   501   502  0.000000000E+00  0.000000000E+00 -1.186470358E+02  1.186470358E+02  0.000000000E+00  0.00000E+00  9.000E+00
      25     1     1     2     0     0 -1.281773249E+02  3.023440486E+02  2.471183368E+02  4.295740015E+02  1.250000000E+02  0.00000E+00  9.000E+00
      25     1     1     2     0     0  1.157247470E+02 -2.524956360E+02  8.497329992E+02  9.026723842E+02  1.250000000E+02  0.00000E+00  9.000E+00
       2     1     1     2   501     0  1.245257797E+01 -4.984841270E+01  6.941269802E+02  6.960260020E+02  7.629394531E-06  0.00000E+00  9.000E+00
#rwgt            1           1   2.9258575820712309E-002          10      341622           0
</event>
<event>
      5   9999  3.19816E-02  9.38900E+01 -1.00000E+00  1.25072E-01
      21    -1     0     0   511   501  0.000000000E+00  0.000000000E+00  3.025025957E+02  3.025025957E+02  0.000000000E+00  0.00000E+00  9.000E+00
      21    -1     0     0   501   502  0.000000000E+00  0.000000000E+00 -2.577895833E+02  2.577895833E+02  0.000000000E+00  0.00000E+00  9.000E+00
      25     1     1     2     0     0  2.274795980E+01  1.299929420E+02 -1.166727183E+02  2.159934209E+02  1.250000000E+02  0.00000E+00  9.000E+00
      25     1     1     2     0     0 -1.162471457E+02 -1.214347436E+02  1.224997428E+02  2.426746440E+02  1.250000000E+02  0.00000E+00  9.000E+00
      21     1     1     2   511   502  9.349918593E+01 -8.558198395E+00  3.888598798E+01  1.016241142E+02  1.066240300E-06  0.00000E+00  9.000E+00
#rwgt            1           1   2.8201366041316012E-002          10      341696           0
</event>
<event>
      5   9999  3.19816E-02  4.91967E+01 -1.00000E+00  1.39478E-01
      21    -1     0     0   502   512  0.000000000E+00  0.000000000E+00  5.489035989E+02  5.489035989E+02  0.000000000E+00  0.00000E+00  9.000E+00
      21    -1     0     0   501   502  0.000000000E+00  0.000000000E+00 -9.797843792E+01  9.797843792E+01  0.000000000E+00  0.00000E+00  9.000E+00
      25     1     1     2     0     0  8.056275485E+01  5.923209778E+01  3.220959043E+02  3.596798166E+02  1.250000000E+02  0.00000E+00  9.000E+00
      25     1     1     2     0     0 -4.747208243E+01 -9.563707499E+01  1.729555649E+01  1.653002874E+02  1.250000000E+02  0.00000E+00  9.000E+00
      21     1     1     2   501   512 -3.309067242E+01  3.640497721E+01  1.115337002E+02  1.219019329E+02  1.907348633E-06  0.00000E+00  9.000E+00
#rwgt            1           1   2.8169960391289068E-002          10      341799           0
</event>
<event>
      5   9999  3.19816E-02  3.64130E+02 -1.00000E+00  1.02929E-01
      21    -1     0     0   502   501  0.000000000E+00  0.000000000E+00  2.722237017E+02  2.722237017E+02  0.000000000E+00  0.00000E+00  9.000E+00
      21    -1     0     0   501   511  0.000000000E+00  0.000000000E+00 -1.120108224E+03  1.120108224E+03  0.000000000E+00  0.00000E+00  9.000E+00
      25     1     1     2     0     0  1.482793226E+02  4.016024918E+02 -8.655950817E+01  4.543004153E+02  1.250000000E+02  0.00000E+00  9.000E+00
      25     1     1     2     0     0 -3.217746268E+01 -5.647772215E+01 -4.040029721E+02  4.278650765E+02  1.250000000E+02  0.00000E+00  9.000E+00
      21     1     1     2   502   511 -1.161018599E+02 -3.451247696E+02 -3.573220415E+02  5.101664334E+02  0.000000000E+00  0.00000E+00  9.000E+00
#rwgt            1           1   3.2368770649144570E-002          10      341866           0
</event>
</LesHouchesEvents>
 #Random number generator exit values:           10        341897             0
