<LesHouchesEvents version="3.0">
<!--
file generated with POWHEG-BOX-V2
Input file powheg.input contained:
! ggHH production parameters:
mtdep 0              ! 0: Higgs effective field theory (HEFT)

hmass 125            ! Higgs boson mass
topmass 173          ! top quark mass (THIS VALUE IS HARD CODED IN THE VIRTUAL
hdecaymode -1        ! PDG code for Higgs boson decay products (it affects only the SMC)
!                      allowed values are:
!                      0 all decay channels open
!                      1-6 d dbar, u ubar,..., t tbar (as in HERWIG)
!                      7-9 e+ e-, mu+ mu-, tau+ tau-
!                      10  W+W-
!                      11  ZZ
!                      12  gamma gamma
!                      -1  all decay channels closed

! general parameters:
numevts  3000        ! number of events to be generated
ih1         1        ! hadron 1 (1 for protons, -1 for antiprotons)
ih2         1        ! hadron 2 (1 for protons, -1 for antiprotons)
ebeam1 7000d0        ! energy of beam 1
ebeam2 7000d0        ! energy of beam 2
! To be set only if using LHA pdfs
lhans1 90200         ! pdf set for hadron 1 (LHA numbering)
lhans2 90200 	     ! pdf set for hadron 2 (LHA numbering)
! To be set only if using internal mlm pdf
# ndns1 131          ! pdf set for hadron 1 (mlm numbering)
# ndns2 131          ! pdf set for hadron 2 (mlm numbering)
! To be set only if using different pdf sets for the two incoming hadrons
! QCDLambda5 0.25    ! for not equal pdf sets

! Parameters to allow or not the use of stored data
use-old-grid    1    ! if 1 use old grid if file pwggrids.dat is present (<> 1 regenerate)
use-old-ubound  1    ! if 1 use norm of upper bounding function stored in pwgubound.dat, if present;
!
ncall1  10000        ! number of calls for initializing the integration grid
itmx1       3        ! number of iterations for initializing the integration grid
ncall2  10000        ! number of calls for computing the integral and finding upper bound
itmx2       3        ! number of iterations for computing the integral and finding upper bound
foldcsi     1        ! number of folds on csi integration
foldy       1        ! number of folds on  y  integration
foldphi     1        ! number of folds on phi integration
nubound 10000        ! number of bbarra calls to setup norm of upper bounding function
# icsimax   1        ! <= 100, number of csi subdivision when computing the upper bounds
# iymax     1        ! <= 100, number of y subdivision when computing the upper bounds
# xupbound 2d0       ! increase upper bound for radiation generation

! OPTIONAL PARAMETERS

! scale settings:
#fixedscale   1      ! (dafault 0) Use muren = mufac = 2*m_H
facscfact   1d0      ! (default 1d0) fac scale factor: mufact = muref * facscfact
renscfact   1d0      ! (default 1d0) ren scale factor: muren  = muref * renscfact

! Born, plots and powheg strategy:
#bornonly         1  ! (default 0) if 1 do Born only
# testplots 1
fastbtlbound      1  ! fast evaluation of Btilde upper bounds
storemintupb      1  ! store function calls in binary file for more precise generation
ubexcess_correct  1  ! corrects for error in upper bound estimate
storeinfo_rwgt    1  ! store info to allow for reweighting
softtest          0  ! no check of the soft limit in the real
colltest          0  ! no check of the collinear limit in the real

! PARAMETERS needed for ggHH
hdamp           250

! PARAMETERS for parallel runnning
! -- non parallel (for testing purposes only)
#iseed    547        !  Start the random number generator with seed iseed
#rand1     0         !  skipping  rand2*100000000+rand1 numbers.
#rand2     0         !  (see RM48 short writeup in CERNLIB)

! -- parallel
manyseeds 1          ! Used to perform multiple runs with different random
                     ! seeds in the same directory.
                     ! If set to 1, the program asks for an integer j;
                     ! The file pwgseeds.dat at line j is read, and the
                     ! integer at line j is used to initialize the random
                     ! sequence for the generation of the event.
                     ! The event file is called pwgevents-'j'.lhe
parallelstage 4
xgriditeration 1
maxseeds    1000

! PARAMETERS for reweighting
#rwl_file 'reweight_setup.xml'


! PARAMETERS for Pythia8
#py8tune  xxx
#py8hepmc 1
#py8nohad 1
#py8nompi 1
End of powheg.input content
PDF package: lha
 Random number generator initialized with:            2             0             0
-->
<init>
     2212     2212  7.00000E+03  7.00000E+03     -1     -1     -1     -1     -4      1
  3.19670E-02  5.76697E-06  1.00000E+00   9999
</init>
<event>
      5   9999  3.19816E-02  2.92875E+01 -1.00000E+00  1.53768E-01
      21    -1     0     0   502   501  0.000000000E+00  0.000000000E+00  3.532593268E+02  3.532593268E+02  0.000000000E+00  0.00000E+00  9.000E+00
      21    -1     0     0   511   502  0.000000000E+00  0.000000000E+00 -4.722992052E+02  4.722992052E+02  0.000000000E+00  0.00000E+00  9.000E+00
      25     1     1     2     0     0 -3.134743055E+01  3.592427780E+02 -1.300471541E+02  4.032062713E+02  1.250000000E+02  0.00000E+00  9.000E+00
      25     1     1     2     0     0  2.338841086E+00 -3.632747612E+02  3.318287311E+01  3.856165523E+02  1.250000000E+02  0.00000E+00  9.000E+00
      21     1     1     2   511   501  2.900858946E+01  4.031983241E+00 -2.217559739E+01  3.673570839E+01  7.152557373E-07  0.00000E+00  9.000E+00
#rwgt            1           1   2.8702703224791556E-002           2          16           0
</event>
<event>
      5   9999  3.19816E-02  4.13922E+02 -1.00000E+00  1.01240E-01
      21    -1     0     0   502   501  0.000000000E+00  0.000000000E+00  2.113059859E+03  2.113059859E+03  0.000000000E+00  0.00000E+00  9.000E+00
      21    -1     0     0   501   512  0.000000000E+00  0.000000000E+00 -8.468980115E+02  8.468980115E+02  0.000000000E+00  0.00000E+00  9.000E+00
      25     1     1     2     0     0 -4.337247537E+01  3.978001504E+02  4.535206473E+02  6.176019015E+02  1.250000000E+02  0.00000E+00  9.000E+00
      25     1     1     2     0     0  2.377008321E+02 -3.233093186E+01  1.508572551E+03  1.532632741E+03  1.250000000E+02  0.00000E+00  9.000E+00
      21     1     1     2   502   512 -1.943283567E+02 -3.654692185E+02 -6.959313515E+02  8.097232280E+02  1.078959322E-05  0.00000E+00  9.000E+00
#rwgt            2          11   1.1576108089968699E-002           2         242           0
</event>
<event>
      5   9999  5.44809E-02  1.87453E+02 -1.00000E+00  1.12682E-01
       1    -1     0     0   502     0  0.000000000E+00  0.000000000E+00  1.345958875E+03  1.345958875E+03  0.000000000E+00  0.00000E+00  9.000E+00
      21    -1     0     0   501   502  0.000000000E+00  0.000000000E+00 -2.933564661E+03  2.933564661E+03  0.000000000E+00  0.00000E+00  9.000E+00
      25     1     1     2     0     0  3.114149999E+02  1.590281684E+02 -8.953885527E+02  9.693373617E+02  1.250000000E+02  0.00000E+00  9.000E+00
      25     1     1     2     0     0 -2.524409889E+02 -3.369629709E+02 -1.970184263E+03  2.018544408E+03  1.250000000E+02  0.00000E+00  9.000E+00
       1     1     1     2   501     0 -5.897401103E+01  1.779348024E+02  1.277967028E+03  1.291641767E+03  0.000000000E+00  0.00000E+00  9.000E+00
#rwgt            2          17  0.10913267633523890                2         442           0
</event>
<event>
      5   9999  3.19816E-02  1.04300E+02 -1.00000E+00  1.23011E-01
      21    -1     0     0   502   511  0.000000000E+00  0.000000000E+00  1.291307665E+03  1.291307665E+03  0.000000000E+00  0.00000E+00  9.000E+00
      21    -1     0     0   501   502  0.000000000E+00  0.000000000E+00 -1.861908198E+02  1.861908198E+02  0.000000000E+00  0.00000E+00  9.000E+00
      25     1     1     2     0     0 -3.799068205E+01 -3.630335708E+02  1.172869926E+02  4.032591029E+02  1.250000000E+02  0.00000E+00  9.000E+00
      25     1     1     2     0     0  4.155772459E+01  2.587949491E+02  5.265675214E+02  6.013320420E+02  1.250000000E+02  0.00000E+00  9.000E+00
      21     1     1     2   501   511 -3.567042547E+00  1.042386216E+02  4.612623312E+02  4.729073400E+02  5.394796609E-06  0.00000E+00  9.000E+00
#rwgt            2          11   1.9578664943986574E-003           2         491           0
</event>
<event>
      5   9999  3.19816E-02  4.08718E+01 -1.00000E+00  1.44262E-01
      21    -1     0     0   502   501  0.000000000E+00  0.000000000E+00  4.380527524E+02  4.380527524E+02  0.000000000E+00  0.00000E+00  9.000E+00
      21    -1     0     0   501   512  0.000000000E+00  0.000000000E+00 -2.099153990E+03  2.099153990E+03  0.000000000E+00  0.00000E+00  9.000E+00
      25     1     1     2     0     0 -2.382642790E+02  9.671776078E+01  3.749303973E+02  4.715103336E+02  1.250000000E+02  0.00000E+00  9.000E+00
      25     1     1     2     0     0  2.085431981E+02 -1.247741505E+02 -1.294147111E+03  1.322686886E+03  1.250000000E+02  0.00000E+00  9.000E+00
      21     1     1     2   502   512  2.972108081E+01  2.805638976E+01 -7.418845241E+02  7.430095227E+02  0.000000000E+00  0.00000E+00  9.000E+00
#rwgt            1           1   3.1098419960114101E-002           2         511           0
</event>
<event>
      5   9999  3.19816E-02  6.19532E+01 -1.00000E+00  1.33964E-01
      21    -1     0     0   511   501  0.000000000E+00  0.000000000E+00  2.079491080E+02  2.079491080E+02  0.000000000E+00  0.00000E+00  9.000E+00
      21    -1     0     0   501   502  0.000000000E+00  0.000000000E+00 -1.071487630E+03  1.071487630E+03  0.000000000E+00  0.00000E+00  9.000E+00
      25     1     1     2     0     0  4.328786711E+02  2.550746172E+01 -5.322480998E+02  6.978163184E+02  1.250000000E+02  0.00000E+00  9.000E+00
      25     1     1     2     0     0 -3.873815175E+02 -6.755753601E+01 -3.100600721E+02  5.161305155E+02  1.250000000E+02  0.00000E+00  9.000E+00
      21     1     1     2   511   502 -4.549715359E+01  4.205007428E+01 -2.123034955E+01  6.548990360E+01  1.390207266E-06  0.00000E+00  9.000E+00
#rwgt            1           1   2.9494111570423674E-002           2         673           0
</event>
<event>
      5   9999  3.19816E-02  3.28996E+01 -1.00000E+00  1.50308E-01
      21    -1     0     0   512   501  0.000000000E+00  0.000000000E+00  1.714680961E+02  1.714680961E+02  0.000000000E+00  0.00000E+00  9.000E+00
      21    -1     0     0   501   502  0.000000000E+00  0.000000000E+00 -4.159831455E+02  4.159831455E+02  0.000000000E+00  0.00000E+00  9.000E+00
      25     1     1     2     0     0  1.302905031E+02  1.482482366E+01 -3.087017499E+02  3.579345764E+02  1.250000000E+02  0.00000E+00  9.000E+00
      25     1     1     2     0     0 -1.085166552E+02 -3.948815692E+01  1.566960699E+01  1.708967980E+02  1.250000000E+02  0.00000E+00  9.000E+00
      21     1     1     2   512   502 -2.177384785E+01  2.466333326E+01  4.851709349E+01  5.861986709E+01  1.348699152E-06  0.00000E+00  9.000E+00
#rwgt            1           1   3.1036631843835580E-002           2         795           0
</event>
<event>
      5   9999  3.19816E-02  1.56900E+01 -1.00000E+00  1.75563E-01
      21    -1     0     0   502   501  0.000000000E+00  0.000000000E+00  7.484195827E+02  7.484195827E+02  0.000000000E+00  0.00000E+00  9.000E+00
      21    -1     0     0   501   511  0.000000000E+00  0.000000000E+00 -3.038228085E+02  3.038228085E+02  0.000000000E+00  0.00000E+00  9.000E+00
      25     1     1     2     0     0  3.975254921E+02 -2.900935345E+01  1.804354254E+02  4.550274742E+02  1.250000000E+02  0.00000E+00  9.000E+00
      25     1     1     2     0     0 -3.823830800E+02  2.490040504E+01  3.353426877E+02  5.243248689E+02  1.250000000E+02  0.00000E+00  9.000E+00
      21     1     1     2   502   511 -1.514241218E+01  4.108948403E+00 -7.118133891E+01  7.289004811E+01  1.348699152E-06  0.00000E+00  9.000E+00
#rwgt            1           1   2.8717836751768519E-002           2         895           0
</event>
<event>
      5   9999  3.19816E-02  2.03188E+01 -1.00000E+00  1.65804E-01
      21    -1     0     0   502   501  0.000000000E+00  0.000000000E+00  3.121844869E+02  3.121844869E+02  0.000000000E+00  0.00000E+00  9.000E+00
      21    -1     0     0   512   502  0.000000000E+00  0.000000000E+00 -1.293423235E+02  1.293423235E+02  0.000000000E+00  0.00000E+00  9.000E+00
      25     1     1     2     0     0 -5.912637062E+01 -1.323835751E+02  1.094743537E+02  2.205243134E+02  1.250000000E+02  0.00000E+00  9.000E+00
      25     1     1     2     0     0  3.905118587E+01  1.292467599E+02  7.850496907E+01  2.000443706E+02  1.250000000E+02  0.00000E+00  9.000E+00
      21     1     1     2   512   501  2.007518475E+01  3.136815286E+00 -5.137159391E+00  2.095812633E+01  4.256623047E-07  0.00000E+00  9.000E+00
#rwgt            1           1   2.7842481228738367E-002           2        1093           0
</event>
<event>
      5   9999  3.19816E-02  2.42887E+01 -1.00000E+00  1.59696E-01
      21    -1     0     0   502   511  0.000000000E+00  0.000000000E+00  8.433574456E+01  8.433574456E+01  0.000000000E+00  0.00000E+00  9.000E+00
      21    -1     0     0   501   502  0.000000000E+00  0.000000000E+00 -1.496978850E+03  1.496978850E+03  0.000000000E+00  0.00000E+00  9.000E+00
      25     1     1     2     0     0 -4.557099666E+01 -2.506014357E+02 -2.599427922E+02  3.848026124E+02  1.250000000E+02  0.00000E+00  9.000E+00
      25     1     1     2     0     0  2.379616982E+01  2.613623762E+02 -1.109530582E+03  1.146978492E+03  1.250000000E+02  0.00000E+00  9.000E+00
      21     1     1     2   501   511  2.177482684E+01 -1.076094044E+01 -4.316973153E+01  4.953349012E+01  6.743495762E-07  0.00000E+00  9.000E+00
#rwgt            1           1   3.2569416771087087E-002           2        1176           0
</event>
<event>
      5   9999  3.19816E-02  1.41653E+02 -1.00000E+00  1.17388E-01
      21    -1     0     0   502   501  0.000000000E+00  0.000000000E+00  2.828094305E+02  2.828094305E+02  0.000000000E+00  0.00000E+00  9.000E+00
      21    -1     0     0   512   502  0.000000000E+00  0.000000000E+00 -6.497356959E+02  6.497356959E+02  0.000000000E+00  0.00000E+00  9.000E+00
      25     1     1     2     0     0  9.078445309E+01  2.363648348E+01  1.673500880E+02  2.289793707E+02  1.250000000E+02  0.00000E+00  9.000E+00
      25     1     1     2     0     0 -2.316249003E+02 -3.878532023E+01 -1.778310958E+02  3.200051470E+02  1.250000000E+02  0.00000E+00  9.000E+00
      21     1     1     2   512   501  1.408404472E+02  1.514883675E+01 -3.564452576E+02  3.835606086E+02  5.394796609E-06  0.00000E+00  9.000E+00
#rwgt            2          11   2.5934460182465693E-003           2        1267           0
</event>
<event>
      5   9999  3.19816E-02  2.51909E+02 -1.00000E+00  1.08118E-01
      21    -1     0     0   502   511  0.000000000E+00  0.000000000E+00  4.912095416E+02  4.912095416E+02  0.000000000E+00  0.00000E+00  9.000E+00
      21    -1     0     0   501   502  0.000000000E+00  0.000000000E+00 -7.661773447E+02  7.661773447E+02  0.000000000E+00  0.00000E+00  9.000E+00
      25     1     1     2     0     0 -2.899245473E+02  4.849190733E+00 -3.560318698E+02  4.758817607E+02  1.250000000E+02  0.00000E+00  9.000E+00
      25     1     1     2     0     0  4.622069783E+02  1.789351337E+02 -1.635571608E+01  5.114152738E+02  1.250000000E+02  0.00000E+00  9.000E+00
      21     1     1     2   501   511 -1.722824310E+02 -1.837843244E+02  9.741978280E+01  2.700898517E+02  4.264961200E-06  0.00000E+00  9.000E+00
#rwgt            1           1   2.9786577486317883E-002           2        1317           0
</event>
<event>
      5   9999  3.19816E-02  1.23044E+01 -1.00000E+00  1.85891E-01
      21    -1     0     0   502   512  0.000000000E+00  0.000000000E+00  2.367390756E+02  2.367390756E+02  0.000000000E+00  0.00000E+00  9.000E+00
      21    -1     0     0   501   502  0.000000000E+00  0.000000000E+00 -7.273778618E+02  7.273778618E+02  0.000000000E+00  0.00000E+00  9.000E+00
      25     1     1     2     0     0 -1.318463101E+01 -2.665300449E+02 -5.653360657E+02  6.375280124E+02  1.250000000E+02  0.00000E+00  9.000E+00
      25     1     1     2     0     0  6.335238235E+00  2.767518200E+02  7.848591357E+01  3.137144302E+02  1.250000000E+02  0.00000E+00  9.000E+00
      21     1     1     2   501   512  6.849392776E+00 -1.022177507E+01 -3.788634112E+00  1.287449476E+01  2.190014490E-07  0.00000E+00  9.000E+00
#rwgt            1           1   2.8689135351450831E-002           2        1349           0
</event>
<event>
      5   9999  3.19816E-02  1.17513E+02 -1.00000E+00  1.20756E-01
      21    -1     0     0   511   501  0.000000000E+00  0.000000000E+00  1.560792367E+02  1.560792367E+02  0.000000000E+00  0.00000E+00  9.000E+00
      21    -1     0     0   501   502  0.000000000E+00  0.000000000E+00 -1.903705074E+03  1.903705074E+03  0.000000000E+00  0.00000E+00  9.000E+00
      25     1     1     2     0     0 -3.710372613E+02 -2.690281518E+01 -1.028371861E+03  1.100711631E+03  1.250000000E+02  0.00000E+00  9.000E+00
      25     1     1     2     0     0  3.782219094E+02 -9.038993385E+01 -7.346359645E+02  8.405576442E+02  1.250000000E+02  0.00000E+00  9.000E+00
      21     1     1     2   511   502 -7.184648059E+00  1.172927490E+02  1.538198776E+01  1.185150357E+02  1.066240300E-06  0.00000E+00  9.000E+00
#rwgt            1           1   1.8757060214221837E-002           2        1588           0
</event>
<event>
      5   9999  3.19816E-02  2.83210E+02 -1.00000E+00  1.06411E-01
      -3    -1     0     0     0   501  0.000000000E+00  0.000000000E+00  5.743372051E+02  5.743372051E+02  0.000000000E+00  0.00000E+00  9.000E+00
      21    -1     0     0   501   502  0.000000000E+00  0.000000000E+00 -9.149306967E+02  9.149306967E+02  0.000000000E+00  0.00000E+00  9.000E+00
      25     1     1     2     0     0 -2.373625573E+02  1.347971190E+01  1.530096185E+02  3.091272061E+02  1.250000000E+02  0.00000E+00  9.000E+00
      25     1     1     2     0     0  2.330094717E+02 -2.966561007E+02 -7.167750574E+02  8.195667995E+02  1.250000000E+02  0.00000E+00  9.000E+00
      -3     1     1     2     0   502  4.353085540E+00  2.831763888E+02  2.231719473E+02  3.605738961E+02  3.814697266E-06  0.00000E+00  9.000E+00
#rwgt            1           1   3.1542690468083862E-002           2        1676           0
</event>
<event>
      5   9999  3.19816E-02  9.23481E+01 -1.00000E+00  1.25403E-01
      21    -1     0     0   502   501  0.000000000E+00  0.000000000E+00  1.194864819E+02  1.194864819E+02  0.000000000E+00  0.00000E+00  9.000E+00
       2    -1     0     0   501     0  0.000000000E+00  0.000000000E+00 -1.751117972E+03  1.751117972E+03  0.000000000E+00  0.00000E+00  9.000E+00
      25     1     1     2     0     0  2.445475452E+02 -9.912170503E+01 -1.267399772E+02  3.183027428E+02  1.250000000E+02  0.00000E+00  9.000E+00
      25     1     1     2     0     0 -2.586871190E+02  7.862494053E+00 -1.089896051E+03  1.127155378E+03  1.250000000E+02  0.00000E+00  9.000E+00
       2     1     1     2   502     0  1.413957383E+01  9.125921098E+01 -4.149954614E+02  4.251463326E+02  5.394796609E-06  0.00000E+00  9.000E+00
#rwgt            2          13   5.6376176053270493E-004           2        1955           0
</event>
<event>
      5   9999  3.19816E-02  3.60006E+01 -1.00000E+00  1.47736E-01
      21    -1     0     0   502   501  0.000000000E+00  0.000000000E+00  6.919896213E+02  6.919896213E+02  0.000000000E+00  0.00000E+00  9.000E+00
      21    -1     0     0   511   502  0.000000000E+00  0.000000000E+00 -2.305592912E+02  2.305592912E+02  0.000000000E+00  0.00000E+00  9.000E+00
      25     1     1     2     0     0 -1.520814076E+02  1.829763552E+02 -1.228517216E+01  2.690446553E+02  1.250000000E+02  0.00000E+00  9.000E+00
      25     1     1     2     0     0  1.642292270E+02 -2.168655254E+02  5.168657848E+02  5.973082409E+02  1.250000000E+02  0.00000E+00  9.000E+00
      21     1     1     2   511   501 -1.214781943E+01  3.388917023E+01 -4.315028243E+01  5.619601631E+01  4.768371582E-07  0.00000E+00  9.000E+00
#rwgt            1           1   2.2141951028361039E-002           2        1974           0
</event>
<event>
      5   9999  3.19816E-02  2.76354E+01 -1.00000E+00  1.55558E-01
       2    -1     0     0   502     0  0.000000000E+00  0.000000000E+00  3.246677526E+02  3.246677526E+02  0.000000000E+00  0.00000E+00  9.000E+00
      21    -1     0     0   501   502  0.000000000E+00  0.000000000E+00 -5.653303818E+02  5.653303818E+02  0.000000000E+00  0.00000E+00  9.000E+00
      25     1     1     2     0     0  1.798734501E+02 -2.273471259E+02  1.403401195E+02  3.454873700E+02  1.250000000E+02  0.00000E+00  9.000E+00
      25     1     1     2     0     0 -1.689303738E+02  2.019707261E+02 -4.109119159E+02  5.037888923E+02  1.250000000E+02  0.00000E+00  9.000E+00
       2     1     1     2   501     0 -1.094307624E+01  2.537639974E+01  2.990916720E+01  4.072187206E+01  4.768371582E-07  0.00000E+00  9.000E+00
#rwgt            1           1   2.1667587058031578E-002           2        2122           0
</event>
<event>
      5   9999  3.19816E-02  6.92914E+01 -1.00000E+00  1.31445E-01
      21    -1     0     0   511   501  0.000000000E+00  0.000000000E+00  1.232208653E+02  1.232208653E+02  0.000000000E+00  0.00000E+00  9.000E+00
      21    -1     0     0   501   502  0.000000000E+00  0.000000000E+00 -2.134377473E+03  2.134377473E+03  0.000000000E+00  0.00000E+00  9.000E+00
      25     1     1     2     0     0 -5.648463050E+00  9.544325850E+00 -9.320054990E+01  1.563148803E+02  1.250000000E+02  0.00000E+00  9.000E+00
      25     1     1     2     0     0  7.192147467E+01  1.068401972E+01 -1.993520694E+03  1.998758766E+03  1.250000000E+02  0.00000E+00  9.000E+00
      21     1     1     2   511   502 -6.627301162E+01 -2.022834557E+01  7.556463681E+01  1.025246915E+02  1.651812370E-06  0.00000E+00  9.000E+00
#rwgt            2          11   1.7861314130385431E-002           2        2460           0
</event>
<event>
      5   9999  3.19816E-02  3.50127E+01 -1.00000E+00  1.48521E-01
      21    -1     0     0   502   501  0.000000000E+00  0.000000000E+00  1.525689894E+03  1.525689894E+03  0.000000000E+00  0.00000E+00  9.000E+00
      21    -1     0     0   512   502  0.000000000E+00  0.000000000E+00 -5.795077119E+02  5.795077119E+02  0.000000000E+00  0.00000E+00  9.000E+00
      25     1     1     2     0     0 -6.798871362E+02  4.599485394E+02  9.067094267E+02  1.229449536E+03  1.250000000E+02  0.00000E+00  9.000E+00
      25     1     1     2     0     0  6.624022407E+02 -4.902827515E+02  5.906931725E+01  8.356243708E+02  1.250000000E+02  0.00000E+00  9.000E+00
      21     1     1     2   512   501  1.748489552E+01  3.033421211E+01 -1.959656183E+01  4.012369912E+01  7.152557373E-07  0.00000E+00  9.000E+00
#rwgt            1           1   3.5651186572294637E-002           2        2480           0
</event>
<event>
      5   9999  3.19816E-02  8.11712E+01 -1.00000E+00  1.28045E-01
      21    -1     0     0   502   501  0.000000000E+00  0.000000000E+00  1.015132945E+02  1.015132945E+02  0.000000000E+00  0.00000E+00  9.000E+00
       2    -1     0     0   501     0  0.000000000E+00  0.000000000E+00 -1.061583084E+03  1.061583084E+03  0.000000000E+00  0.00000E+00  9.000E+00
      25     1     1     2     0     0 -5.792085202E+01  2.232598485E+02 -3.562904786E+02  4.424564275E+02  1.250000000E+02  0.00000E+00  9.000E+00
      25     1     1     2     0     0  2.024094254E+01 -1.513641433E+02 -1.218739589E+02  2.319462470E+02  1.250000000E+02  0.00000E+00  9.000E+00
       2     1     1     2   502     0  3.767990947E+01 -7.189570516E+01 -4.819053522E+02  4.886937042E+02  5.394796609E-06  0.00000E+00  9.000E+00
#rwgt            1           1   2.9231310076068936E-002           2        2622           0
</event>
<event>
      5   9999  3.19816E-02  8.57844E+01 -1.00000E+00  1.26899E-01
      21    -1     0     0   502   511  0.000000000E+00  0.000000000E+00  1.420472789E+03  1.420472789E+03  0.000000000E+00  0.00000E+00  9.000E+00
      21    -1     0     0   501   502  0.000000000E+00  0.000000000E+00 -1.499080310E+02  1.499080310E+02  0.000000000E+00  0.00000E+00  9.000E+00
      25     1     1     2     0     0 -2.958736341E+02  1.763167303E+02  3.488891757E+02  5.059421446E+02  1.250000000E+02  0.00000E+00  9.000E+00
      25     1     1     2     0     0  3.562476282E+02 -2.372588906E+02  7.505306765E+02  8.729979669E+02  1.250000000E+02  0.00000E+00  9.000E+00
      21     1     1     2   501   511 -6.037399416E+01  6.094216028E+01  1.711449054E+02  1.914407081E+02  1.907348633E-06  0.00000E+00  9.000E+00
#rwgt            1           1   2.8679045363107378E-002           2        2690           0
</event>
<event>
      5   9999  3.19816E-02  4.38981E+01 -1.00000E+00  1.42379E-01
      21    -1     0     0   502   501  0.000000000E+00  0.000000000E+00  3.240109289E+02  3.240109289E+02  0.000000000E+00  0.00000E+00  9.000E+00
      21    -1     0     0   512   502  0.000000000E+00  0.000000000E+00 -3.861112496E+02  3.861112496E+02  0.000000000E+00  0.00000E+00  9.000E+00
      25     1     1     2     0     0 -1.629745124E+02  5.029045337E+01 -4.294377174E+01  2.157753204E+02  1.250000000E+02  0.00000E+00  9.000E+00
      25     1     1     2     0     0  1.924814210E+02 -8.279247193E+01  1.718046557E+02  2.984049774E+02  1.250000000E+02  0.00000E+00  9.000E+00
      21     1     1     2   512   501 -2.950690862E+01  3.250201856E+01 -1.909612047E+02  1.959418806E+02  3.814697266E-06  0.00000E+00  9.000E+00
#rwgt            1           1   3.0551055393575076E-002           2        2774           0
</event>
<event>
      5   9999  3.19816E-02  6.21329E+01 -1.00000E+00  1.33898E-01
      21    -1     0     0   511   501  0.000000000E+00  0.000000000E+00  3.588280269E+02  3.588280269E+02  0.000000000E+00  0.00000E+00  9.000E+00
      21    -1     0     0   501   502  0.000000000E+00  0.000000000E+00 -9.094905481E+02  9.094905481E+02  0.000000000E+00  0.00000E+00  9.000E+00
      25     1     1     2     0     0  4.282412024E+02  2.516323998E+02 -2.167400557E+02  5.561570316E+02  1.250000000E+02  0.00000E+00  9.000E+00
      25     1     1     2     0     0 -3.717843619E+02 -2.775769421E+02 -3.972362323E+02  6.234534423E+02  1.250000000E+02  0.00000E+00  9.000E+00
      21     1     1     2   511   502 -5.645684053E+01  2.594454223E+01  6.331376679E+01  8.870810098E+01  1.507891493E-06  0.00000E+00  9.000E+00
#rwgt            1           1   3.0856970665521705E-002           2        2838           0
</event>
<event>
      5   9999  3.19816E-02  3.04196E+02 -1.00000E+00  1.05396E-01
      21    -1     0     0   502   501  0.000000000E+00  0.000000000E+00  7.670053192E+02  7.670053192E+02  0.000000000E+00  0.00000E+00  9.000E+00
       2    -1     0     0   501     0  0.000000000E+00  0.000000000E+00 -6.587469666E+02  6.587469666E+02  0.000000000E+00  0.00000E+00  9.000E+00
      25     1     1     2     0     0  4.976435299E+02  1.241171907E+02 -7.157836086E+01  5.327312846E+02  1.250000000E+02  0.00000E+00  9.000E+00
      25     1     1     2     0     0 -3.215340683E+02 -3.721505968E+02  2.712364408E+02  5.753906765E+02  1.250000000E+02  0.00000E+00  9.000E+00
       2     1     1     2   502     0 -1.761094616E+02  2.480334061E+02 -9.139972729E+01  3.176303247E+02  2.336015456E-06  0.00000E+00  9.000E+00
#rwgt            2          13   3.6960382748300641E-004           2        2986           0
</event>
<event>
      5   9999  3.19816E-02  2.59042E+01 -1.00000E+00  1.57604E-01
      21    -1     0     0   502   501  0.000000000E+00  0.000000000E+00  2.996507591E+02  2.996507591E+02  0.000000000E+00  0.00000E+00  9.000E+00
      21    -1     0     0   511   502  0.000000000E+00  0.000000000E+00 -2.321345906E+03  2.321345906E+03  0.000000000E+00  0.00000E+00  9.000E+00
      25     1     1     2     0     0  7.550725488E+01  7.379977221E+02 -4.608689004E+02  8.822511699E+02  1.250000000E+02  0.00000E+00  9.000E+00
      25     1     1     2     0     0 -9.677838879E+01 -7.232137549E+02 -1.508860702E+03  1.680681353E+03  1.250000000E+02  0.00000E+00  9.000E+00
      21     1     1     2   511   501  2.127113392E+01 -1.478396726E+01 -5.196554444E+01  5.806414242E+01  0.000000000E+00  0.00000E+00  9.000E+00
#rwgt            1           1   2.3274189987719872E-002           2        3005           0
</event>
<event>
      5   9999  3.19816E-02  1.53576E+02 -1.00000E+00  1.15990E-01
      21    -1     0     0   502   501  0.000000000E+00  0.000000000E+00  7.076524657E+01  7.076524657E+01  0.000000000E+00  0.00000E+00  9.000E+00
      21    -1     0     0   501   512  0.000000000E+00  0.000000000E+00 -2.002250083E+03  2.002250083E+03  0.000000000E+00  0.00000E+00  9.000E+00
      25     1     1     2     0     0  1.265011741E+02  1.149921513E+02 -4.721651246E+02  5.174849242E+02  1.250000000E+02  0.00000E+00  9.000E+00
      25     1     1     2     0     0 -9.051880460E+01  3.430920531E+01 -9.893509712E+01  1.865045013E+02  1.250000000E+02  0.00000E+00  9.000E+00
      21     1     1     2   502   512 -3.598236955E+01 -1.493013566E+02 -1.360384615E+03  1.369025905E+03  3.051757812E-05  0.00000E+00  9.000E+00
#rwgt            1           1   2.5037030799599704E-002           2        3268           0
</event>
<event>
      5   9999  3.19816E-02  2.27259E+01 -1.00000E+00  1.61917E-01
      21    -1     0     0   511   501  0.000000000E+00  0.000000000E+00  2.137114172E+02  2.137114172E+02  0.000000000E+00  0.00000E+00  9.000E+00
      21    -1     0     0   501   502  0.000000000E+00  0.000000000E+00 -4.415150345E+02  4.415150345E+02  0.000000000E+00  0.00000E+00  9.000E+00
      25     1     1     2     0     0 -1.286634768E+01  2.531467708E+02 -2.168570627E+01  2.834503490E+02  1.250000000E+02  0.00000E+00  9.000E+00
      25     1     1     2     0     0  3.554812353E+01 -2.545619982E+02 -1.977592213E+02  3.475617781E+02  1.250000000E+02  0.00000E+00  9.000E+00
      21     1     1     2   511   502 -2.268177584E+01  1.415227379E+00 -8.358689746E+00  2.421432465E+01  5.057621821E-07  0.00000E+00  9.000E+00
#rwgt            1           1   3.0371809979811454E-002           2        3326           0
</event>
<event>
      5   9999  3.19816E-02  1.14045E+02 -1.00000E+00  1.21314E-01
       1    -1     0     0   502     0  0.000000000E+00  0.000000000E+00  1.065591468E+03  1.065591468E+03  0.000000000E+00  0.00000E+00  9.000E+00
      21    -1     0     0   501   502  0.000000000E+00  0.000000000E+00 -5.611423821E+01  5.611423821E+01  0.000000000E+00  0.00000E+00  9.000E+00
      25     1     1     2     0     0 -1.580399686E+02 -5.980892535E+01  3.699368955E+02  4.254786080E+02  1.250000000E+02  0.00000E+00  9.000E+00
      25     1     1     2     0     0  9.525695212E+01 -3.539932001E+01  3.796542211E+02  4.124188725E+02  1.250000000E+02  0.00000E+00  9.000E+00
       1     1     1     2   501     0  6.278301646E+01  9.520824537E+01  2.598861130E+02  2.838082255E+02  0.000000000E+00  0.00000E+00  9.000E+00
#rwgt            1           1   2.7842131447292286E-002           2        3475           0
</event>
<event>
      5   9999  3.19816E-02  1.82560E+02 -1.00000E+00  1.13110E-01
      21    -1     0     0   511   501  0.000000000E+00  0.000000000E+00  7.521115873E+02  7.521115873E+02  0.000000000E+00  0.00000E+00  9.000E+00
      21    -1     0     0   501   502  0.000000000E+00  0.000000000E+00 -1.993001360E+02  1.993001360E+02  0.000000000E+00  0.00000E+00  9.000E+00
      25     1     1     2     0     0  1.227897027E+02  1.159608902E+02  1.617507022E+02  2.651650973E+02  1.250000000E+02  0.00000E+00  9.000E+00
      25     1     1     2     0     0 -2.195955904E+02 -2.707406173E+02  1.956996547E+02  4.188628177E+02  1.250000000E+02  0.00000E+00  9.000E+00
      21     1     1     2   511   502  9.680588770E+01  1.547797270E+02  1.953610944E+02  2.673838084E+02  3.814697266E-06  0.00000E+00  9.000E+00
#rwgt            1           1   3.4360545726612922E-002           2        3560           0
</event>
<event>
      5   9999  3.19816E-02  4.95492E+01 -1.00000E+00  1.39300E-01
      21    -1     0     0   502   501  0.000000000E+00  0.000000000E+00  9.796237811E+02  9.796237811E+02  0.000000000E+00  0.00000E+00  9.000E+00
      21    -1     0     0   512   502  0.000000000E+00  0.000000000E+00 -3.400304606E+02  3.400304606E+02  0.000000000E+00  0.00000E+00  9.000E+00
      25     1     1     2     0     0 -1.115911814E+02  4.957359791E+02  3.971094012E+02  6.569076262E+02  1.250000000E+02  0.00000E+00  9.000E+00
      25     1     1     2     0     0  1.607899128E+02 -4.898529271E+02  2.806841933E+02  6.001815581E+02  1.250000000E+02  0.00000E+00  9.000E+00
      21     1     1     2   512   501 -4.919873145E+01 -5.883051984E+00 -3.820027403E+01  6.256505744E+01  1.261592536E-06  0.00000E+00  9.000E+00
#rwgt            1           1   2.4356534066149512E-002           2        3608           0
</event>
<event>
      5   9999  3.19816E-02  7.75871E+01 -1.00000E+00  1.28997E-01
      -4    -1     0     0     0   501  0.000000000E+00  0.000000000E+00  4.674395917E+02  4.674395917E+02  0.000000000E+00  0.00000E+00  9.000E+00
      21    -1     0     0   501   502  0.000000000E+00  0.000000000E+00 -8.107574572E+02  8.107574572E+02  0.000000000E+00  0.00000E+00  9.000E+00
      25     1     1     2     0     0 -1.488891152E+02 -1.722076987E+02 -4.723703050E+02  5.390567365E+02  1.250000000E+02  0.00000E+00  9.000E+00
      25     1     1     2     0     0  2.015144918E+02  1.151960446E+02 -2.433272494E+02  3.587636679E+02  1.250000000E+02  0.00000E+00  9.000E+00
      -4     1     1     2     0   502 -5.262537656E+01  5.701165414E+01  3.723796889E+02  3.803766445E+02  7.629394531E-06  0.00000E+00  9.000E+00
#rwgt            1           1   3.0412837457487879E-002           2        3772           0
</event>
<event>
      5   9999  3.19816E-02  4.24352E+02 -1.00000E+00  1.00919E-01
      21    -1     0     0   502   501  0.000000000E+00  0.000000000E+00  1.991624850E+02  1.991624850E+02  0.000000000E+00  0.00000E+00  9.000E+00
       1    -1     0     0   501     0  0.000000000E+00  0.000000000E+00 -2.422765956E+03  2.422765956E+03  0.000000000E+00  0.00000E+00  9.000E+00
      25     1     1     2     0     0  3.277224899E+02 -3.586099759E+02 -2.929497756E+02  5.809025015E+02  1.250000000E+02  0.00000E+00  9.000E+00
      25     1     1     2     0     0 -1.493247624E+02 -2.642078427E+01 -9.866239456E+02  1.006005841E+03  1.250000000E+02  0.00000E+00  9.000E+00
       1     1     1     2   502     0 -1.783977274E+02  3.850307602E+02 -9.440297497E+02  1.035020098E+03  2.412626389E-05  0.00000E+00  9.000E+00
#rwgt            1           1   2.7154979856477274E-002           2        3819           0
</event>
<event>
      5   9999  3.19816E-02  3.03976E+01 -1.00000E+00  1.52644E-01
      21    -1     0     0   502   501  0.000000000E+00  0.000000000E+00  8.794214699E+02  8.794214699E+02  0.000000000E+00  0.00000E+00  9.000E+00
      21    -1     0     0   511   502  0.000000000E+00  0.000000000E+00 -4.974873501E+02  4.974873501E+02  0.000000000E+00  0.00000E+00  9.000E+00
      25     1     1     2     0     0  4.778326649E+02  3.029790511E+02  5.141735237E+02  7.746739789E+02  1.250000000E+02  0.00000E+00  9.000E+00
      25     1     1     2     0     0 -4.554623471E+02 -2.823979294E+02 -1.025894124E+02  5.597714959E+02  1.250000000E+02  0.00000E+00  9.000E+00
      21     1     1     2   511   501 -2.237031782E+01 -2.058112170E+01 -2.964999153E+01  4.246334522E+01  3.371747881E-07  0.00000E+00  9.000E+00
#rwgt            1           1   3.1346748353597721E-002           2        3850           0
</event>
<event>
      5   9999  3.19816E-02  1.57361E+01 -1.00000E+00  1.75446E-01
      21    -1     0     0   502   501  0.000000000E+00  0.000000000E+00  5.296254386E+02  5.296254386E+02  0.000000000E+00  0.00000E+00  9.000E+00
      21    -1     0     0   501   512  0.000000000E+00  0.000000000E+00 -2.452022545E+02  2.452022545E+02  0.000000000E+00  0.00000E+00  9.000E+00
      25     1     1     2     0     0 -2.750937492E+02 -1.052877573E+02  2.068118205E+02  3.809963409E+02  1.250000000E+02  0.00000E+00  9.000E+00
      25     1     1     2     0     0  2.711047320E+02  9.006561136E+01  1.309611925E+02  3.382091424E+02  1.250000000E+02  0.00000E+00  9.000E+00
      21     1     1     2   502   512  3.989017143E+00  1.522214593E+01 -5.334982883E+01  5.562220978E+01  0.000000000E+00  0.00000E+00  9.000E+00
#rwgt            1           1   2.8242933647393068E-002           2        4100           0
</event>
<event>
      5   9999  3.19816E-02  1.62303E+02 -1.00000E+00  1.15053E-01
      21    -1     0     0   502   501  0.000000000E+00  0.000000000E+00  4.628784811E+02  4.628784811E+02  0.000000000E+00  0.00000E+00  9.000E+00
      21    -1     0     0   501   511  0.000000000E+00  0.000000000E+00 -1.183231264E+03  1.183231264E+03  0.000000000E+00  0.00000E+00  9.000E+00
      25     1     1     2     0     0 -1.598530778E+02  5.726515979E+01  1.855269692E+02  2.808514933E+02  1.250000000E+02  0.00000E+00  9.000E+00
      25     1     1     2     0     0  1.842401441E+02 -2.177256968E+02  1.146963360E+02  3.318571368E+02  1.250000000E+02  0.00000E+00  9.000E+00
      21     1     1     2   502   511 -2.438706628E+01  1.604605370E+02 -1.020576088E+03  1.033401115E+03  1.868812365E-05  0.00000E+00  9.000E+00
#rwgt            1           1   2.2433609283148363E-002           2        4296           0
</event>
<event>
      5   9999  3.19816E-02  9.50246E+01 -1.00000E+00  1.24833E-01
      21    -1     0     0   512   501  0.000000000E+00  0.000000000E+00  8.560913965E+02  8.560913965E+02  0.000000000E+00  0.00000E+00  9.000E+00
      21    -1     0     0   501   502  0.000000000E+00  0.000000000E+00 -8.350130466E+01  8.350130466E+01  0.000000000E+00  0.00000E+00  9.000E+00
      25     1     1     2     0     0 -8.651890713E+01  1.067184218E+02  5.845433847E+02  6.133435509E+02  1.250000000E+02  0.00000E+00  9.000E+00
      25     1     1     2     0     0  5.330147920E+01 -1.768880632E+01  2.762053818E+01  1.397921160E+02  1.250000000E+02  0.00000E+00  9.000E+00
      21     1     1     2   512   502  3.321742792E+01 -8.902961549E+01  1.604261690E+02  1.864570343E+02  2.697398305E-06  0.00000E+00  9.000E+00
#rwgt            1           1   2.5651984716900885E-002           2        4356           0
</event>
<event>
      5   9999  3.19816E-02  3.05763E+01 -1.00000E+00  1.52468E-01
      21    -1     0     0   511   501  0.000000000E+00  0.000000000E+00  3.620623313E+02  3.620623313E+02  0.000000000E+00  0.00000E+00  9.000E+00
      21    -1     0     0   501   502  0.000000000E+00  0.000000000E+00 -1.189588921E+03  1.189588921E+03  0.000000000E+00  0.00000E+00  9.000E+00
      25     1     1     2     0     0  2.350708714E+02  3.046115149E+01 -1.493314361E+02  3.067752828E+02  1.250000000E+02  0.00000E+00  9.000E+00
      25     1     1     2     0     0 -2.456351554E+02 -5.915444469E+01 -9.399666916E+02  9.813247471E+02  1.250000000E+02  0.00000E+00  9.000E+00
      21     1     1     2   511   502  1.056428397E+01  2.869329321E+01  2.617715376E+02  2.635512228E+02  3.814697266E-06  0.00000E+00  9.000E+00
#rwgt            1           1   2.9452777721040106E-002           2        4432           0
</event>
<event>
      5   9999  3.19816E-02  8.09916E+01 -1.00000E+00  1.28091E-01
      21    -1     0     0   502   501  0.000000000E+00  0.000000000E+00  5.699764784E+02  5.699764784E+02  0.000000000E+00  0.00000E+00  9.000E+00
      -4    -1     0     0     0   502  0.000000000E+00  0.000000000E+00 -7.845549724E+02  7.845549724E+02  0.000000000E+00  0.00000E+00  9.000E+00
      25     1     1     2     0     0 -1.429150958E+02  1.249163582E+02 -3.307062932E+02  4.012735644E+02  1.250000000E+02  0.00000E+00  9.000E+00
      25     1     1     2     0     0  1.038100503E+02 -5.399075764E+01  5.168293688E+02  5.444530511E+02  1.250000000E+02  0.00000E+00  9.000E+00
      -4     1     1     2     0   501  3.910504552E+01 -7.092560057E+01 -4.007015697E+02  4.088048353E+02  5.394796609E-06  0.00000E+00  9.000E+00
#rwgt            1           1   3.3376979165693377E-002           2        4580           0
</event>
<event>
      5   9999  3.19816E-02  5.03542E+01 -1.00000E+00  1.38901E-01
      21    -1     0     0   502   501  0.000000000E+00  0.000000000E+00  1.251098001E+03  1.251098001E+03  0.000000000E+00  0.00000E+00  9.000E+00
      21    -1     0     0   511   502  0.000000000E+00  0.000000000E+00 -3.945233717E+02  3.945233717E+02  0.000000000E+00  0.00000E+00  9.000E+00
      25     1     1     2     0     0 -1.713643961E+01  4.014665543E+02 -2.858295288E+01  4.217950177E+02  1.250000000E+02  0.00000E+00  9.000E+00
      25     1     1     2     0     0  3.510070874E+01 -3.544257716E+02  1.015881909E+03  1.083739240E+03  1.250000000E+02  0.00000E+00  9.000E+00
      21     1     1     2   511   501 -1.796426913E+01 -4.704078265E+01 -1.307243267E+02  1.400871150E+02  1.907348633E-06  0.00000E+00  9.000E+00
#rwgt            1           1   2.4864558909947640E-002           2        4649           0
</event>
<event>
      5   9999  3.19816E-02  6.15901E+00 -1.00000E+00  2.23722E-01
      21    -1     0     0   502   501  0.000000000E+00  0.000000000E+00  1.593645516E+03  1.593645516E+03  0.000000000E+00  0.00000E+00  9.000E+00
      21    -1     0     0   501   512  0.000000000E+00  0.000000000E+00 -7.549952771E+01  7.549952771E+01  0.000000000E+00  0.00000E+00  9.000E+00
      25     1     1     2     0     0  9.221653632E+01  2.649927677E+02  5.358530602E+02  6.176476007E+02  1.250000000E+02  0.00000E+00  9.000E+00
      25     1     1     2     0     0 -9.752637585E+01 -2.681135027E+02  9.921382308E+02  1.039884375E+03  1.250000000E+02  0.00000E+00  9.000E+00
      21     1     1     2   502   512  5.309839532E+00  3.120734986E+00 -9.845302272E+00  1.161306848E+01  2.064765462E-07  0.00000E+00  9.000E+00
#rwgt            1           1   2.6127663031530506E-002           2        4798           0
</event>
<event>
      5   9999  3.19816E-02  2.68964E+01 -1.00000E+00  1.56409E-01
      21    -1     0     0   502   501  0.000000000E+00  0.000000000E+00  1.470688610E+02  1.470688610E+02  0.000000000E+00  0.00000E+00  9.000E+00
       2    -1     0     0   501     0  0.000000000E+00  0.000000000E+00 -9.572498866E+02  9.572498866E+02  0.000000000E+00  0.00000E+00  9.000E+00
      25     1     1     2     0     0 -6.029754232E+01 -1.246829621E+02 -2.729923536E+02  3.306530807E+02  1.250000000E+02  0.00000E+00  9.000E+00
      25     1     1     2     0     0  8.050237938E+01  1.424363388E+02  2.803954105E+01  2.077978815E+02  1.250000000E+02  0.00000E+00  9.000E+00
       2     1     1     2   502     0 -2.020483707E+01 -1.775337670E+01 -5.652282130E+02  5.658677854E+02  0.000000000E+00  0.00000E+00  9.000E+00
#rwgt            1           1   2.7114201235828903E-002           2        5059           0
</event>
<event>
      5   9999  3.19816E-02  4.70578E+01 -1.00000E+00  1.40595E-01
      21    -1     0     0   511   501  0.000000000E+00  0.000000000E+00  1.089594359E+03  1.089594359E+03  0.000000000E+00  0.00000E+00  9.000E+00
      21    -1     0     0   501   502  0.000000000E+00  0.000000000E+00 -2.118922082E+03  2.118922082E+03  0.000000000E+00  0.00000E+00  9.000E+00
      25     1     1     2     0     0 -3.769023523E+02  4.945745136E+02 -8.946034254E+02  1.096631032E+03  1.250000000E+02  0.00000E+00  9.000E+00
      25     1     1     2     0     0  3.702380980E+02 -4.479910048E+02 -1.044002572E+03  1.201390261E+03  1.250000000E+02  0.00000E+00  9.000E+00
      21     1     1     2   511   502  6.664254296E+00 -4.658350879E+01  9.092782733E+02  9.104951476E+02  1.525878906E-05  0.00000E+00  9.000E+00
#rwgt            1           1   2.8181965318286099E-002           2        5160           0
</event>
<event>
      5   9999  3.19816E-02  3.03919E+02 -1.00000E+00  1.05409E-01
      21    -1     0     0   502   501  0.000000000E+00  0.000000000E+00  1.238252062E+03  1.238252062E+03  0.000000000E+00  0.00000E+00  9.000E+00
      21    -1     0     0   512   502  0.000000000E+00  0.000000000E+00 -5.174134322E+02  5.174134322E+02  0.000000000E+00  0.00000E+00  9.000E+00
      25     1     1     2     0     0  4.262565142E+02 -5.097595384E+02  7.976759637E+02  1.045687021E+03  1.250000000E+02  0.00000E+00  9.000E+00
      25     1     1     2     0     0 -1.934868660E+02  3.143494128E+02 -1.081704091E+02  4.044484616E+02  1.250000000E+02  0.00000E+00  9.000E+00
      21     1     1     2   512   501 -2.327696482E+02  1.954101255E+02  3.133307495E+01  3.055300114E+02  1.815741803E-06  0.00000E+00  9.000E+00
#rwgt            1           1   2.9934207920804423E-002           2        5275           0
</event>
<event>
      5   9999  3.19816E-02  3.28204E+01 -1.00000E+00  1.50378E-01
      21    -1     0     0   502   501  0.000000000E+00  0.000000000E+00  6.211680395E+02  6.211680395E+02  0.000000000E+00  0.00000E+00  9.000E+00
      21    -1     0     0   511   502  0.000000000E+00  0.000000000E+00 -3.355597579E+02  3.355597579E+02  0.000000000E+00  0.00000E+00  9.000E+00
      25     1     1     2     0     0 -1.037268161E+01  1.489297743E+02  5.629672785E+02  5.956885318E+02  1.250000000E+02  0.00000E+00  9.000E+00
      25     1     1     2     0     0 -2.189004752E+01 -1.429053879E+02 -1.981457482E+02  2.752959528E+02  1.250000000E+02  0.00000E+00  9.000E+00
      21     1     1     2   511   501  3.226272913E+01 -6.024386377E+00 -7.921324877E+01  8.574331288E+01  9.536743164E-07  0.00000E+00  9.000E+00
#rwgt            1           1   2.3002007895910427E-002           2        5336           0
</event>
<event>
      5   9999  3.19816E-02  1.32839E+01 -1.00000E+00  1.82503E-01
      21    -1     0     0   512   501  0.000000000E+00  0.000000000E+00  2.498044622E+03  2.498044622E+03  0.000000000E+00  0.00000E+00  9.000E+00
      21    -1     0     0   501   502  0.000000000E+00  0.000000000E+00 -1.856742709E+01  1.856742709E+01  0.000000000E+00  0.00000E+00  9.000E+00
      25     1     1     2     0     0  1.200740950E+02 -3.080111403E+01  5.512767469E+02  5.787033338E+02  1.250000000E+02  0.00000E+00  9.000E+00
      25     1     1     2     0     0 -1.276318736E+02  1.987673143E+01  1.831636842E+03  1.840435682E+03  1.250000000E+02  0.00000E+00  9.000E+00
      21     1     1     2   512   502  7.557778639E+00  1.092438260E+01  9.656360579E+01  9.747303277E+01  1.348699152E-06  0.00000E+00  9.000E+00
#rwgt            1           1   5.8619883497611228E-002           2        5484           0
</event>
<event>
      5   9999  3.19816E-02  9.70211E+01 -1.00000E+00  1.24422E-01
      21    -1     0     0   511   501  0.000000000E+00  0.000000000E+00  9.428309494E+02  9.428309494E+02  0.000000000E+00  0.00000E+00  9.000E+00
      21    -1     0     0   501   502  0.000000000E+00  0.000000000E+00 -2.680977908E+02  2.680977908E+02  0.000000000E+00  0.00000E+00  9.000E+00
      25     1     1     2     0     0  1.992485158E+02  3.616949326E+02  2.233158834E+02  4.858170222E+02  1.250000000E+02  0.00000E+00  9.000E+00
      25     1     1     2     0     0 -2.212779236E+02 -2.672078598E+02  1.326380934E+02  3.918951691E+02  1.250000000E+02  0.00000E+00  9.000E+00
      21     1     1     2   511   502  2.202940783E+01 -9.448707281E+01  3.187791818E+02  3.332165489E+02  5.394796609E-06  0.00000E+00  9.000E+00
#rwgt            1           1   2.9870003072769335E-002           2        5644           0
</event>
<event>
      5   9999  3.19816E-02  7.84815E+01 -1.00000E+00  1.28754E-01
      21    -1     0     0   502   501  0.000000000E+00  0.000000000E+00  4.756381215E+02  4.756381215E+02  0.000000000E+00  0.00000E+00  9.000E+00
      21    -1     0     0   512   502  0.000000000E+00  0.000000000E+00 -1.495776320E+03  1.495776320E+03  0.000000000E+00  0.00000E+00  9.000E+00
      25     1     1     2     0     0  1.554077716E+02  1.578094407E+02 -8.685280239E+01  2.687448685E+02  1.250000000E+02  0.00000E+00  9.000E+00
      25     1     1     2     0     0 -2.275669302E+02 -1.269483951E+02  3.290187771E+02  4.379280288E+02  1.250000000E+02  0.00000E+00  9.000E+00
      21     1     1     2   512   501  7.215915857E+01 -3.086104569E+01 -1.262304174E+03  1.264741545E+03  0.000000000E+00  0.00000E+00  9.000E+00
#rwgt            1           1   3.0182769430801011E-002           2        5730           0
</event>
<event>
      5   9999  3.19816E-02  1.68655E+02 -1.00000E+00  1.14411E-01
       1    -1     0     0   502     0  0.000000000E+00  0.000000000E+00  1.303150534E+03  1.303150534E+03  0.000000000E+00  0.00000E+00  9.000E+00
      21    -1     0     0   501   502  0.000000000E+00  0.000000000E+00 -3.882627568E+02  3.882627568E+02  0.000000000E+00  0.00000E+00  9.000E+00
      25     1     1     2     0     0 -5.593103949E+02 -4.124241810E+02  4.700611682E+02  8.482360077E+02  1.250000000E+02  0.00000E+00  9.000E+00
      25     1     1     2     0     0  4.030597592E+02  3.489395467E+02  3.447512559E+02  6.470659976E+02  1.250000000E+02  0.00000E+00  9.000E+00
       1     1     1     2   501     0  1.562506356E+02  6.348463428E+01  1.000753528E+02  1.961112852E+02  2.697398305E-06  0.00000E+00  9.000E+00
#rwgt            1           1   2.5965883588682293E-002           2        5833           0
</event>
<event>
      5   9999  3.19816E-02  3.61791E+01 -1.00000E+00  1.47597E-01
      21    -1     0     0   502   501  0.000000000E+00  0.000000000E+00  7.297927106E+02  7.297927106E+02  0.000000000E+00  0.00000E+00  9.000E+00
      21    -1     0     0   501   511  0.000000000E+00  0.000000000E+00 -1.550909174E+02  1.550909174E+02  0.000000000E+00  0.00000E+00  9.000E+00
      25     1     1     2     0     0  2.877306957E+01  9.458834630E+01 -7.329792572E+01  1.754207248E+02  1.250000000E+02  0.00000E+00  9.000E+00
      25     1     1     2     0     0 -4.732107960E+01 -1.256511093E+02  6.478101477E+02  6.732833529E+02  1.250000000E+02  0.00000E+00  9.000E+00
      21     1     1     2   502   511  1.854801003E+01  3.106276301E+01  1.895713152E-01  3.617955029E+01  2.409229078E-07  0.00000E+00  9.000E+00
#rwgt            1           1   2.7446832048472914E-002           2        5872           0
</event>
<event>
      5   9999  3.19816E-02  6.82427E+01 -1.00000E+00  1.31782E-01
      21    -1     0     0   502   501  0.000000000E+00  0.000000000E+00  1.141082137E+03  1.141082137E+03  0.000000000E+00  0.00000E+00  9.000E+00
      21    -1     0     0   512   502  0.000000000E+00  0.000000000E+00 -4.225063692E+02  4.225063692E+02  0.000000000E+00  0.00000E+00  9.000E+00
      25     1     1     2     0     0  8.528008576E+01 -2.853439616E+02  4.215035196E+02  5.310217383E+02  1.250000000E+02  0.00000E+00  9.000E+00
      25     1     1     2     0     0 -1.857012266E+01  2.709616378E+02  6.275416031E+02  6.951248250E+02  1.250000000E+02  0.00000E+00  9.000E+00
      21     1     1     2   512   501 -6.670996310E+01  1.438232389E+01 -3.304693549E+02  3.374419430E+02  8.529922400E-06  0.00000E+00  9.000E+00
#rwgt            1           1   2.8090692626633971E-002           2        6004           0
</event>
<event>
      5   9999  3.19816E-02  1.26226E+02 -1.00000E+00  1.19443E-01
      21    -1     0     0   511   501  0.000000000E+00  0.000000000E+00  4.191317378E+02  4.191317378E+02  0.000000000E+00  0.00000E+00  9.000E+00
      21    -1     0     0   501   502  0.000000000E+00  0.000000000E+00 -2.249630610E+02  2.249630610E+02  0.000000000E+00  0.00000E+00  9.000E+00
      25     1     1     2     0     0  8.350666618E+01  1.251981716E+02  6.231948026E+01  2.053208783E+02  1.250000000E+02  0.00000E+00  9.000E+00
      25     1     1     2     0     0 -2.021709151E+02 -1.682293214E+02  7.745983776E+01  3.013290726E+02  1.250000000E+02  0.00000E+00  9.000E+00
      21     1     1     2   511   502  1.186642490E+02  4.303114986E+01  5.438935878E+01  1.374448478E+02  2.431401974E-06  0.00000E+00  9.000E+00
#rwgt            1           1   2.7843056072939385E-002           2        6087           0
</event>
<event>
      5   9999  3.19816E-02  2.01214E+01 -1.00000E+00  1.66152E-01
      21    -1     0     0   502   501  0.000000000E+00  0.000000000E+00  5.017173569E+02  5.017173569E+02  0.000000000E+00  0.00000E+00  9.000E+00
      21    -1     0     0   501   512  0.000000000E+00  0.000000000E+00 -1.927284130E+02  1.927284130E+02  0.000000000E+00  0.00000E+00  9.000E+00
      25     1     1     2     0     0  2.109970233E+02  7.215925205E+01  1.047629078E+02  2.762733580E+02  1.250000000E+02  0.00000E+00  9.000E+00
      25     1     1     2     0     0 -2.303020659E+02 -6.648581950E+01  2.499706780E+02  3.681979707E+02  1.250000000E+02  0.00000E+00  9.000E+00
      21     1     1     2   502   512  1.930504260E+01 -5.673432549E+00 -4.574464190E+01  4.997444116E+01  9.536743164E-07  0.00000E+00  9.000E+00
#rwgt            1           1   2.9965314846533572E-002           2        6233           0
</event>
<event>
      5   9999  3.19816E-02  2.67959E+01 -1.00000E+00  1.56527E-01
      21    -1     0     0   502   511  0.000000000E+00  0.000000000E+00  2.554563025E+03  2.554563025E+03  0.000000000E+00  0.00000E+00  9.000E+00
      21    -1     0     0   501   502  0.000000000E+00  0.000000000E+00 -1.094142172E+02  1.094142172E+02  0.000000000E+00  0.00000E+00  9.000E+00
      25     1     1     2     0     0  3.827856768E+02 -2.111236019E+02  9.224025421E+02  1.028372257E+03  1.250000000E+02  0.00000E+00  9.000E+00
      25     1     1     2     0     0 -3.930007142E+02  1.863512197E+02  8.555193313E+02  9.678402062E+02  1.250000000E+02  0.00000E+00  9.000E+00
      21     1     1     2   501   511  1.021503742E+01  2.477238221E+01  6.672269340E+02  6.677647785E+02  1.525878906E-05  0.00000E+00  9.000E+00
#rwgt            1           1   2.5558927752003670E-002           2        6432           0
</event>
<event>
      5   9999  3.19816E-02  3.80726E+01 -1.00000E+00  1.46183E-01
      21    -1     0     0   502   501  0.000000000E+00  0.000000000E+00  4.372831823E+02  4.372831823E+02  0.000000000E+00  0.00000E+00  9.000E+00
      21    -1     0     0   512   502  0.000000000E+00  0.000000000E+00 -3.085249699E+02  3.085249699E+02  0.000000000E+00  0.00000E+00  9.000E+00
      25     1     1     2     0     0  1.210179569E+02  1.859042957E+02 -7.496191464E+01  2.654242674E+02  1.250000000E+02  0.00000E+00  9.000E+00
      25     1     1     2     0     0 -9.704341016E+01 -1.563281886E+02  3.019466615E+02  3.750369481E+02  1.250000000E+02  0.00000E+00  9.000E+00
      21     1     1     2   512   501 -2.397454675E+01 -2.957610705E+01 -9.822653453E+01  1.053469368E+02  1.348699152E-06  0.00000E+00  9.000E+00
#rwgt            1           1   2.8007925010002811E-002           2        6620           0
</event>
<event>
      5   9999  3.19816E-02  9.17594E+01 -1.00000E+00  1.25531E-01
      21    -1     0     0   502   501  0.000000000E+00  0.000000000E+00  3.288422744E+02  3.288422744E+02  0.000000000E+00  0.00000E+00  9.000E+00
      21    -1     0     0   501   511  0.000000000E+00  0.000000000E+00 -6.562346860E+02  6.562346860E+02  0.000000000E+00  0.00000E+00  9.000E+00
      25     1     1     2     0     0 -1.581039436E+02 -2.652347572E+02  1.020723867E+02  3.484108286E+02  1.250000000E+02  0.00000E+00  9.000E+00
      25     1     1     2     0     0  1.048637071E+02  3.399693932E+02 -3.624577240E+02  5.230451100E+02  1.250000000E+02  0.00000E+00  9.000E+00
      21     1     1     2   502   511  5.324023645E+01 -7.473463606E+01 -6.700707428E+01  1.136210219E+02  0.000000000E+00  0.00000E+00  9.000E+00
#rwgt            1           1   2.8393455136902813E-002           2        6791           0
</event>
<event>
      5   9999  3.19816E-02  6.95346E+01 -1.00000E+00  1.31368E-01
       3    -1     0     0   502     0  0.000000000E+00  0.000000000E+00  1.031191591E+02  1.031191591E+02  0.000000000E+00  0.00000E+00  9.000E+00
      21    -1     0     0   501   502  0.000000000E+00  0.000000000E+00 -3.953056169E+02  3.953056169E+02  0.000000000E+00  0.00000E+00  9.000E+00
      25     1     1     2     0     0 -1.530402882E+00  4.702468991E+01 -2.396050013E+02  2.743159133E+02  1.250000000E+02  0.00000E+00  9.000E+00
      25     1     1     2     0     0  7.041491994E+01 -3.753843395E+01 -3.721538984E+01  1.528966324E+02  1.250000000E+02  0.00000E+00  9.000E+00
       3     1     1     2   501     0 -6.888451706E+01 -9.486255958E+00 -1.536606661E+01  7.121223031E+01  1.719260824E-06  0.00000E+00  9.000E+00
#rwgt            1           1   7.9897358615540717E-002           2        6911           0
</event>
<event>
      5   9999  3.19816E-02  1.17028E+02 -1.00000E+00  1.20832E-01
      21    -1     0     0   502   511  0.000000000E+00  0.000000000E+00  8.104651787E+02  8.104651787E+02  0.000000000E+00  0.00000E+00  9.000E+00
      21    -1     0     0   501   502  0.000000000E+00  0.000000000E+00 -7.881596232E+02  7.881596232E+02  0.000000000E+00  0.00000E+00  9.000E+00
      25     1     1     2     0     0  2.175716505E+02 -6.899068574E+02 -2.319203892E+01  7.344874170E+02  1.250000000E+02  0.00000E+00  9.000E+00
      25     1     1     2     0     0 -3.191452316E+02  6.317831847E+02 -3.894765313E+01  7.198233054E+02  1.250000000E+02  0.00000E+00  9.000E+00
      21     1     1     2   501   511  1.015735811E+02  5.812367270E+01  8.444524755E+01  1.443140795E+02  2.132480600E-06  0.00000E+00  9.000E+00
#rwgt            1           1   3.1387693176241814E-002           2        6980           0
</event>
<event>
      5   9999  3.19816E-02  3.67176E+01 -1.00000E+00  1.47185E-01
      21    -1     0     0   502   512  0.000000000E+00  0.000000000E+00  2.035329793E+02  2.035329793E+02  0.000000000E+00  0.00000E+00  9.000E+00
      21    -1     0     0   501   502  0.000000000E+00  0.000000000E+00 -5.762075537E+02  5.762075537E+02  0.000000000E+00  0.00000E+00  9.000E+00
      25     1     1     2     0     0 -1.378707895E+02  7.281987751E+01 -2.373978279E+01  2.012452892E+02  1.250000000E+02  0.00000E+00  9.000E+00
      25     1     1     2     0     0  1.254479822E+02 -3.826768374E+01 -4.424071907E+02  4.780698006E+02  1.250000000E+02  0.00000E+00  9.000E+00
      21     1     1     2   501   512  1.242280725E+01 -3.455219377E+01  9.347239911E+01  1.004254431E+02  1.907348633E-06  0.00000E+00  9.000E+00
#rwgt            1           1   2.8164748600826021E-002           2        7091           0
</event>
<event>
      5   9999  3.19816E-02  6.41947E+01 -1.00000E+00  1.33154E-01
      21    -1     0     0   502   501  0.000000000E+00  0.000000000E+00  4.440948805E+02  4.440948805E+02  0.000000000E+00  0.00000E+00  9.000E+00
      21    -1     0     0   501   511  0.000000000E+00  0.000000000E+00 -5.193768211E+02  5.193768211E+02  0.000000000E+00  0.00000E+00  9.000E+00
      25     1     1     2     0     0  8.394389180E+01  1.557304486E+02 -6.760313668E+01  2.269223076E+02  1.250000000E+02  0.00000E+00  9.000E+00
      25     1     1     2     0     0 -1.332201096E+02 -1.145865956E+02  3.292366810E+02  3.935727094E+02  1.250000000E+02  0.00000E+00  9.000E+00
      21     1     1     2   502   511  4.927621781E+01 -4.114385302E+01 -3.369154848E+02  3.429766846E+02  7.629394531E-06  0.00000E+00  9.000E+00
#rwgt            1           1   3.3029494907028244E-002           2        7181           0
</event>
<event>
      5   9999  3.19816E-02  2.34620E+01 -1.00000E+00  1.60844E-01
      21    -1     0     0   502   501  0.000000000E+00  0.000000000E+00  5.857821290E+02  5.857821290E+02  0.000000000E+00  0.00000E+00  9.000E+00
      -2    -1     0     0     0   502  0.000000000E+00  0.000000000E+00 -2.698576542E+02  2.698576542E+02  0.000000000E+00  0.00000E+00  9.000E+00
      25     1     1     2     0     0 -1.859946395E-01  6.809950306E+01  4.830030975E+02  5.035420232E+02  1.250000000E+02  0.00000E+00  9.000E+00
      25     1     1     2     0     0  1.161209020E+01 -8.859118560E+01  2.751578536E+01  1.560940654E+02  1.250000000E+02  0.00000E+00  9.000E+00
      -2     1     1     2     0   501 -1.142609556E+01  2.049168254E+01 -1.945944080E+02  1.960036947E+02  2.697398305E-06  0.00000E+00  9.000E+00
#rwgt            1           1   2.7128051569851905E-002           2        7255           0
</event>
<event>
      5   9999  3.19816E-02  6.89590E+01 -1.00000E+00  1.31551E-01
      21    -1     0     0   502   501  0.000000000E+00  0.000000000E+00  2.671182385E+02  2.671182385E+02  0.000000000E+00  0.00000E+00  9.000E+00
       2    -1     0     0   501     0  0.000000000E+00  0.000000000E+00 -1.717730365E+03  1.717730365E+03  0.000000000E+00  0.00000E+00  9.000E+00
      25     1     1     2     0     0 -4.001538789E+02  2.774072141E+02 -2.601167953E+02  5.660067459E+02  1.250000000E+02  0.00000E+00  9.000E+00
      25     1     1     2     0     0  4.614645923E+02 -3.089719840E+02 -6.103210568E+02  8.345837581E+02  1.250000000E+02  0.00000E+00  9.000E+00
       2     1     1     2   502     0 -6.131071340E+01  3.156476987E+01 -5.801742739E+02  5.842580991E+02  0.000000000E+00  0.00000E+00  9.000E+00
#rwgt            1           1   2.6290272511881117E-002           2        7372           0
</event>
<event>
      5   9999  3.19816E-02  4.72000E+01 -1.00000E+00  1.40519E-01
      21    -1     0     0   502   511  0.000000000E+00  0.000000000E+00  3.195385837E+02  3.195385837E+02  0.000000000E+00  0.00000E+00  9.000E+00
      21    -1     0     0   501   502  0.000000000E+00  0.000000000E+00 -1.044614655E+03  1.044614655E+03  0.000000000E+00  0.00000E+00  9.000E+00
      25     1     1     2     0     0  1.493443745E+02 -6.844871413E+01 -8.881483254E+01  2.247265964E+02  1.250000000E+02  0.00000E+00  9.000E+00
      25     1     1     2     0     0 -1.157462074E+02  3.529752219E+01 -8.770073037E+02  8.940972600E+02  1.250000000E+02  0.00000E+00  9.000E+00
      21     1     1     2   501   511 -3.359816713E+01  3.315119193E+01  2.407460646E+02  2.453293826E+02  4.672030912E-06  0.00000E+00  9.000E+00
#rwgt            1           1   3.4481880756829703E-002           2        7516           0
</event>
<event>
      5   9999  3.19816E-02  5.15280E+01 -1.00000E+00  1.38334E-01
      21    -1     0     0   502   501  0.000000000E+00  0.000000000E+00  4.978413772E+02  4.978413772E+02  0.000000000E+00  0.00000E+00  9.000E+00
      21    -1     0     0   512   502  0.000000000E+00  0.000000000E+00 -1.358651751E+03  1.358651751E+03  0.000000000E+00  0.00000E+00  9.000E+00
      25     1     1     2     0     0  5.420375917E+02 -9.512816788E+01 -1.007124074E+03  1.154460055E+03  1.250000000E+02  0.00000E+00  9.000E+00
      25     1     1     2     0     0 -5.915734465E+02  8.093882663E+01  1.851513763E+02  6.375078575E+02  1.250000000E+02  0.00000E+00  9.000E+00
      21     1     1     2   512   501  4.953585484E+01  1.418934125E+01 -3.883767638E+01  6.452521543E+01  6.743495762E-07  0.00000E+00  9.000E+00
#rwgt            1           1   2.8487114580619765E-002           2        7638           0
</event>
<event>
      5   9999  3.19816E-02  6.47062E+01 -1.00000E+00  1.32974E-01
      21    -1     0     0   511   501  0.000000000E+00  0.000000000E+00  6.133973866E+02  6.133973866E+02  0.000000000E+00  0.00000E+00  9.000E+00
      21    -1     0     0   501   502  0.000000000E+00  0.000000000E+00 -1.719465445E+02  1.719465445E+02  0.000000000E+00  0.00000E+00  9.000E+00
      25     1     1     2     0     0  8.268194349E+01  1.185969426E+01  4.267035631E+02  4.524134026E+02  1.250000000E+02  0.00000E+00  9.000E+00
      25     1     1     2     0     0 -1.233844026E+02  3.844137262E+01 -9.663320049E+01  2.041186551E+02  1.250000000E+02  0.00000E+00  9.000E+00
      21     1     1     2   511   502  4.070245912E+01 -5.030106688E+01  1.113804795E+02  1.288118734E+02  1.907348633E-06  0.00000E+00  9.000E+00
#rwgt            1           1   2.6911254194525749E-002           2        7807           0
</event>
<event>
      5   9999  3.19816E-02  3.00393E+01 -1.00000E+00  1.53000E-01
      21    -1     0     0   512   501  0.000000000E+00  0.000000000E+00  1.064453526E+02  1.064453526E+02  0.000000000E+00  0.00000E+00  9.000E+00
      21    -1     0     0   501   502  0.000000000E+00  0.000000000E+00 -1.138757432E+03  1.138757432E+03  0.000000000E+00  0.00000E+00  9.000E+00
      25     1     1     2     0     0  2.659468251E+01  4.821975781E+01 -1.052289796E+03  1.061117919E+03  1.250000000E+02  0.00000E+00  9.000E+00
      25     1     1     2     0     0  2.462497734E+00 -5.583827338E+01 -1.526719940E+01  1.377754116E+02  1.250000000E+02  0.00000E+00  9.000E+00
      21     1     1     2   512   502 -2.905718025E+01  7.618515568E+00  3.524491577E+01  4.630945466E+01  1.168007728E-06  0.00000E+00  9.000E+00
#rwgt            1           1   2.6416481368453575E-002           2        7913           0
</event>
<event>
      5   9999  3.19816E-02  1.43493E+01 -1.00000E+00  1.79218E-01
       2    -1     0     0   502     0  0.000000000E+00  0.000000000E+00  1.267546517E+03  1.267546517E+03  0.000000000E+00  0.00000E+00  9.000E+00
      21    -1     0     0   501   502  0.000000000E+00  0.000000000E+00 -1.190468362E+02  1.190468362E+02  0.000000000E+00  0.00000E+00  9.000E+00
      25     1     1     2     0     0  3.025770329E+01 -3.055002995E+01  1.234720527E+02  1.808844403E+02  1.250000000E+02  0.00000E+00  9.000E+00
      25     1     1     2     0     0 -2.368873940E+01  1.779265225E+01 -4.460010016E+01  1.359849395E+02  1.250000000E+02  0.00000E+00  9.000E+00
       2     1     1     2   501     0 -6.568963893E+00  1.275737770E+01  1.069627728E+03  1.069723973E+03  1.525878906E-05  0.00000E+00  9.000E+00
#rwgt            1           1   5.3616506820837941E-002           2        8000           0
</event>
<event>
      5   9999  3.19816E-02  1.57178E+02 -1.00000E+00  1.15595E-01
      21    -1     0     0   502   501  0.000000000E+00  0.000000000E+00  4.073920462E+02  4.073920462E+02  0.000000000E+00  0.00000E+00  9.000E+00
      -5    -1     0     0     0   502  0.000000000E+00  0.000000000E+00 -4.020945952E+02  4.020945952E+02  0.000000000E+00  0.00000E+00  9.000E+00
      25     1     1     2     0     0 -1.561441985E+02  2.474294406E+01 -2.195398713E+02  2.980200985E+02  1.250000000E+02  0.00000E+00  9.000E+00
      25     1     1     2     0     0  1.294491653E+00 -5.169808356E+01  3.060018592E+02  3.345691339E+02  1.250000000E+02  0.00000E+00  9.000E+00
      -5     1     1     2     0   501  1.548497068E+02  2.695513951E+01 -8.116453685E+01  1.768974089E+02  9.536743164E-07  0.00000E+00  9.000E+00
#rwgt            1           1   3.0188261825498844E-002           2        8139           0
</event>
<event>
      5   9999  3.19816E-02  1.04776E+02 -1.00000E+00  1.22923E-01
      21    -1     0     0   502   501  0.000000000E+00  0.000000000E+00  2.790322842E+02  2.790322842E+02  0.000000000E+00  0.00000E+00  9.000E+00
      21    -1     0     0   501   511  0.000000000E+00  0.000000000E+00 -7.805424864E+02  7.805424864E+02  0.000000000E+00  0.00000E+00  9.000E+00
      25     1     1     2     0     0  3.155100638E+02  9.143074361E+01 -1.577325321E+02  3.852411360E+02  1.250000000E+02  0.00000E+00  9.000E+00
      25     1     1     2     0     0 -4.202013878E+02 -8.721139592E+01 -1.842508272E+02  4.834753367E+02  1.250000000E+02  0.00000E+00  9.000E+00
      21     1     1     2   502   511  1.046913241E+02 -4.219347692E+00 -1.595268429E+02  1.908582978E+02  1.907348633E-06  0.00000E+00  9.000E+00
#rwgt            2          11   3.4278701195478503E-003           2        8272           0
</event>
<event>
      5   9999  3.19816E-02  1.94246E+02 -1.00000E+00  1.12112E-01
      21    -1     0     0   502   501  0.000000000E+00  0.000000000E+00  4.554628207E+02  4.554628207E+02  0.000000000E+00  0.00000E+00  9.000E+00
      21    -1     0     0   501   512  0.000000000E+00  0.000000000E+00 -1.341432004E+03  1.341432004E+03  0.000000000E+00  0.00000E+00  9.000E+00
      25     1     1     2     0     0 -3.048972209E+02  3.691103528E+02  9.164978568E+01  5.032190886E+02  1.250000000E+02  0.00000E+00  9.000E+00
      25     1     1     2     0     0  3.038819458E+02 -5.633540832E+02 -7.285136217E+02  9.777878896E+02  1.250000000E+02  0.00000E+00  9.000E+00
      21     1     1     2   502   512  1.015275120E+00  1.942437304E+02 -2.491053473E+02  3.158878466E+02  5.394796609E-06  0.00000E+00  9.000E+00
#rwgt            1           1   2.9800120123940611E-002           2        8292           0
</event>
<event>
      5   9999  3.19816E-02  7.56060E+01 -1.00000E+00  1.29548E-01
      21    -1     0     0   502   501  0.000000000E+00  0.000000000E+00  2.116835139E+02  2.116835139E+02  0.000000000E+00  0.00000E+00  9.000E+00
      21    -1     0     0   511   502  0.000000000E+00  0.000000000E+00 -4.788151258E+02  4.788151258E+02  0.000000000E+00  0.00000E+00  9.000E+00
      25     1     1     2     0     0 -8.381985786E+01 -1.045243190E+02 -2.668251155E+02  3.236846367E+02  1.250000000E+02  0.00000E+00  9.000E+00
      25     1     1     2     0     0  1.022530163E+02  1.778488855E+02  8.313948055E+01  2.542106973E+02  1.250000000E+02  0.00000E+00  9.000E+00
      21     1     1     2   511   501 -1.843315843E+01 -7.332456651E+01 -8.344597694E+01  1.126033057E+02  0.000000000E+00  0.00000E+00  9.000E+00
#rwgt            1           1   2.6779948540196299E-002           2        8367           0
</event>
<event>
      5   9999  3.19816E-02  1.55613E+01 -1.00000E+00  1.75894E-01
      21    -1     0     0   512   501  0.000000000E+00  0.000000000E+00  5.093440502E+02  5.093440502E+02  0.000000000E+00  0.00000E+00  9.000E+00
      21    -1     0     0   501   502  0.000000000E+00  0.000000000E+00 -2.708394731E+02  2.708394731E+02  0.000000000E+00  0.00000E+00  9.000E+00
      25     1     1     2     0     0 -3.786569900E+00 -1.171952160E+02  2.454518969E+02  2.993671500E+02  1.250000000E+02  0.00000E+00  9.000E+00
      25     1     1     2     0     0 -9.579854740E+00  1.092269645E+02 -2.152169265E+02  2.719662274E+02  1.250000000E+02  0.00000E+00  9.000E+00
      21     1     1     2   512   502  1.336642464E+01  7.968251579E+00  2.082696067E+02  2.088501459E+02  0.000000000E+00  0.00000E+00  9.000E+00
#rwgt            1           1   2.4724981548902233E-002           2        8454           0
</event>
<event>
      5   9999  3.19816E-02  1.74851E+02 -1.00000E+00  1.13815E-01
      21    -1     0     0   502   501  0.000000000E+00  0.000000000E+00  5.557888076E+02  5.557888076E+02  0.000000000E+00  0.00000E+00  9.000E+00
      21    -1     0     0   511   502  0.000000000E+00  0.000000000E+00 -2.475908984E+03  2.475908984E+03  0.000000000E+00  0.00000E+00  9.000E+00
      25     1     1     2     0     0 -1.831179115E+02  7.114932521E+02 -1.472347251E+03  1.650207940E+03  1.250000000E+02  0.00000E+00  9.000E+00
      25     1     1     2     0     0  3.555290620E+02 -7.405997958E+02  7.104215404E+01  8.340029731E+02  1.250000000E+02  0.00000E+00  9.000E+00
      21     1     1     2   511   501 -1.724111505E+02  2.910654371E+01 -5.188150792E+02  5.474868785E+02  7.629394531E-06  0.00000E+00  9.000E+00
#rwgt            1           1   3.2509624627666767E-002           2        8650           0
</event>
<event>
      5   9999  3.19816E-02  1.69228E+02 -1.00000E+00  1.14355E-01
      21    -1     0     0   502   501  0.000000000E+00  0.000000000E+00  7.588516288E+02  7.588516288E+02  0.000000000E+00  0.00000E+00  9.000E+00
      -2    -1     0     0     0   502  0.000000000E+00  0.000000000E+00 -2.467515169E+02  2.467515169E+02  0.000000000E+00  0.00000E+00  9.000E+00
      25     1     1     2     0     0 -3.777471095E+01  7.760836176E+01  1.077807926E+02  1.862570424E+02  1.250000000E+02  0.00000E+00  9.000E+00
      25     1     1     2     0     0 -1.297002137E+02 -1.019051422E+02 -1.396458021E+02  2.496652829E+02  1.250000000E+02  0.00000E+00  9.000E+00
      -2     1     1     2     0   501  1.674749246E+02  2.429678045E+01  5.439651213E+02  5.696808204E+02  1.321449896E-05  0.00000E+00  9.000E+00
#rwgt            1           1   2.6069336894117289E-002           2        8732           0
</event>
<event>
      5   9999  3.19816E-02  3.03138E+01 -1.00000E+00  1.52727E-01
      21    -1     0     0   511   501  0.000000000E+00  0.000000000E+00  1.452010628E+02  1.452010628E+02  0.000000000E+00  0.00000E+00  9.000E+00
      21    -1     0     0   501   502  0.000000000E+00  0.000000000E+00 -5.194732514E+02  5.194732514E+02  0.000000000E+00  0.00000E+00  9.000E+00
      25     1     1     2     0     0  2.168800161E+00  2.317535963E+02 -1.968391370E+02  3.287629525E+02  1.250000000E+02  0.00000E+00  9.000E+00
      25     1     1     2     0     0  8.859559650E+00 -2.035170387E+02 -1.877086560E+02  3.039033010E+02  1.250000000E+02  0.00000E+00  9.000E+00
      21     1     1     2   511   502 -1.102835981E+01 -2.823655759E+01  1.027560432E+01  3.200806069E+01  4.129530925E-07  0.00000E+00  9.000E+00
#rwgt            1           1   3.0695493996160832E-002           2        8839           0
</event>
<event>
      5   9999  3.19816E-02  3.82594E+01 -1.00000E+00  1.46049E-01
      21    -1     0     0   502   501  0.000000000E+00  0.000000000E+00  1.466261726E+02  1.466261726E+02  0.000000000E+00  0.00000E+00  9.000E+00
      21    -1     0     0   501   512  0.000000000E+00  0.000000000E+00 -1.016973081E+03  1.016973081E+03  0.000000000E+00  0.00000E+00  9.000E+00
      25     1     1     2     0     0 -2.748575511E+00  3.431776575E+02 -4.358724797E+02  5.686723818E+02  1.250000000E+02  0.00000E+00  9.000E+00
      25     1     1     2     0     0 -3.090411875E+01 -3.249765959E+02 -3.188370513E+02  4.731246323E+02  1.250000000E+02  0.00000E+00  9.000E+00
      21     1     1     2   502   512  3.365269426E+01 -1.820106164E+01 -1.156373770E+02  1.218022390E+02  0.000000000E+00  0.00000E+00  9.000E+00
#rwgt            1           1   2.7810438263015290E-002           2        8972           0
</event>
<event>
      5   9999  3.19816E-02  3.44359E+01 -1.00000E+00  1.48993E-01
      21    -1     0     0   502   501  0.000000000E+00  0.000000000E+00  6.988875353E+02  6.988875353E+02  0.000000000E+00  0.00000E+00  9.000E+00
      21    -1     0     0   511   502  0.000000000E+00  0.000000000E+00 -1.803116010E+02  1.803116010E+02  0.000000000E+00  0.00000E+00  9.000E+00
      25     1     1     2     0     0  3.192109032E+02 -7.030222140E+01  3.160705212E+02  4.715544268E+02  1.250000000E+02  0.00000E+00  9.000E+00
      25     1     1     2     0     0 -2.869023350E+02  5.838630959E+01  1.914220041E+02  3.714691032E+02  1.250000000E+02  0.00000E+00  9.000E+00
      21     1     1     2   511   501 -3.230856817E+01  1.191591181E+01  1.108340896E+01  3.617560623E+01  6.194296387E-07  0.00000E+00  9.000E+00
#rwgt            1           1   2.8295888024874243E-002           2        9108           0
</event>
<event>
      5   9999  3.19816E-02  2.76894E+01 -1.00000E+00  1.55497E-01
       2    -1     0     0   502     0  0.000000000E+00  0.000000000E+00  2.976590208E+02  2.976590208E+02  0.000000000E+00  0.00000E+00  9.000E+00
      21    -1     0     0   501   502  0.000000000E+00  0.000000000E+00 -9.820165036E+02  9.820165036E+02  0.000000000E+00  0.00000E+00  9.000E+00
      25     1     1     2     0     0 -3.168034839E+02  2.748266268E+01 -4.550848101E+02  5.690755034E+02  1.250000000E+02  0.00000E+00  9.000E+00
      25     1     1     2     0     0  3.444472902E+02 -2.589430544E+01 -3.968401749E+02  5.407601826E+02  1.250000000E+02  0.00000E+00  9.000E+00
       2     1     1     2   501     0 -2.764380624E+01 -1.588357245E+00  1.675675021E+02  1.698398383E+02  3.814697266E-06  0.00000E+00  9.000E+00
#rwgt            1           1   2.4870244962106460E-002           2        9231           0
</event>
<event>
      5   9999  3.19816E-02  1.71633E+01 -1.00000E+00  1.72043E-01
      21    -1     0     0   511   501  0.000000000E+00  0.000000000E+00  4.840042424E+02  4.840042424E+02  0.000000000E+00  0.00000E+00  9.000E+00
      21    -1     0     0   501   502  0.000000000E+00  0.000000000E+00 -2.358359278E+02  2.358359278E+02  0.000000000E+00  0.00000E+00  9.000E+00
      25     1     1     2     0     0 -7.394453109E+00 -2.796640007E+02  7.911617792E+01  3.164664293E+02  1.250000000E+02  0.00000E+00  9.000E+00
      25     1     1     2     0     0 -1.690608968E-01  2.950708719E+02  1.052405490E+02  3.372942649E+02  1.250000000E+02  0.00000E+00  9.000E+00
      21     1     1     2   511   502  7.563514006E+00 -1.540687114E+01  6.381158775E+01  6.607947604E+01  6.743495762E-07  0.00000E+00  9.000E+00
#rwgt            1           1   2.6707110148628008E-002           2        9357           0
</event>
<event>
      5   9999  3.19816E-02  3.77844E+01 -1.00000E+00  1.46392E-01
      21    -1     0     0   512   501  0.000000000E+00  0.000000000E+00  2.576050422E+02  2.576050422E+02  0.000000000E+00  0.00000E+00  9.000E+00
      21    -1     0     0   501   502  0.000000000E+00  0.000000000E+00 -8.697391845E+02  8.697391845E+02  0.000000000E+00  0.00000E+00  9.000E+00
      25     1     1     2     0     0  3.039398326E+02  2.874142961E+02 -4.178766917E+02  6.043445449E+02  1.250000000E+02  0.00000E+00  9.000E+00
      25     1     1     2     0     0 -2.679910739E+02 -2.990481500E+02 -2.225302213E+02  4.758084816E+02  1.250000000E+02  0.00000E+00  9.000E+00
      21     1     1     2   512   502 -3.594875874E+01  1.163385394E+01  2.827277071E+01  4.719120020E+01  9.536743164E-07  0.00000E+00  9.000E+00
#rwgt            1           1   3.1351574524602785E-002           2        9498           0
</event>
<event>
      5   9999  3.19816E-02  5.59732E+01 -1.00000E+00  1.36336E-01
      21    -1     0     0   502   501  0.000000000E+00  0.000000000E+00  1.194173628E+02  1.194173628E+02  0.000000000E+00  0.00000E+00  9.000E+00
      21    -1     0     0   511   502  0.000000000E+00  0.000000000E+00 -2.070537226E+03  2.070537226E+03  0.000000000E+00  0.00000E+00  9.000E+00
      25     1     1     2     0     0  2.881686956E+02 -3.588614209E+02 -1.134949343E+03  1.231079903E+03  1.250000000E+02  0.00000E+00  9.000E+00
      25     1     1     2     0     0 -2.323517720E+02  3.546816491E+02 -6.734653477E+02  8.055848762E+02  1.250000000E+02  0.00000E+00  9.000E+00
      21     1     1     2   511   501 -5.581692368E+01  4.179771770E+00 -1.427051718E+02  1.532898090E+02  1.907348633E-06  0.00000E+00  9.000E+00
#rwgt            1           1   2.7510175638651949E-002           2        9660           0
</event>
<event>
      5   9999  3.19816E-02  6.07981E+01 -1.00000E+00  1.34397E-01
      21    -1     0     0   512   501  0.000000000E+00  0.000000000E+00  3.601264322E+02  3.601264322E+02  0.000000000E+00  0.00000E+00  9.000E+00
      21    -1     0     0   501   502  0.000000000E+00  0.000000000E+00 -2.550451639E+02  2.550451639E+02  0.000000000E+00  0.00000E+00  9.000E+00
      25     1     1     2     0     0  9.454234821E+01  1.688325185E+02 -1.236431840E+02  2.614484880E+02  1.250000000E+02  0.00000E+00  9.000E+00
      25     1     1     2     0     0 -3.593705640E+01 -1.526512366E+02  2.093623990E+02  2.899163434E+02  1.250000000E+02  0.00000E+00  9.000E+00
      21     1     1     2   512   502 -5.860529181E+01 -1.618128188E+01  1.936205329E+01  6.380676468E+01  5.840038640E-07  0.00000E+00  9.000E+00
#rwgt            1           1   2.9172319026429139E-002           2        9768           0
</event>
<event>
      5   9999  3.19816E-02  2.27476E+02 -1.00000E+00  1.09650E-01
      21    -1     0     0   502   501  0.000000000E+00  0.000000000E+00  3.093502975E+02  3.093502975E+02  0.000000000E+00  0.00000E+00  9.000E+00
      21    -1     0     0   511   502  0.000000000E+00  0.000000000E+00 -1.255758868E+03  1.255758868E+03  0.000000000E+00  0.00000E+00  9.000E+00
      25     1     1     2     0     0  5.264091641E+00 -2.724756423E+02 -5.205232846E+02  6.006997388E+02  1.250000000E+02  0.00000E+00  9.000E+00
      25     1     1     2     0     0  1.590106386E+02  1.151256149E+02  1.947090782E+02  3.034384872E+02  1.250000000E+02  0.00000E+00  9.000E+00
      21     1     1     2   511   501 -1.642747302E+02  1.573500274E+02 -6.205943638E+02  6.609709392E+02  1.078959322E-05  0.00000E+00  9.000E+00
#rwgt            1           1   2.8296846354415775E-002           2        9864           0
</event>
<event>
      5   9999  3.19816E-02  9.12131E+01 -1.00000E+00  1.25651E-01
      21    -1     0     0   502   501  0.000000000E+00  0.000000000E+00  2.019130904E+02  2.019130904E+02  0.000000000E+00  0.00000E+00  9.000E+00
      21    -1     0     0   501   512  0.000000000E+00  0.000000000E+00 -1.175802098E+03  1.175802098E+03  0.000000000E+00  0.00000E+00  9.000E+00
      25     1     1     2     0     0 -1.718153527E+02 -2.150866976E+02 -4.834613760E+02  5.702128594E+02  1.250000000E+02  0.00000E+00  9.000E+00
      25     1     1     2     0     0  2.369343246E+02  1.512168507E+02  1.061673053E+00  3.076207686E+02  1.250000000E+02  0.00000E+00  9.000E+00
      21     1     1     2   502   512 -6.511897189E+01  6.386984695E+01 -4.914893043E+02  4.998815600E+02  5.394796609E-06  0.00000E+00  9.000E+00
#rwgt            1           1   2.8890602008019323E-002           2        9902           0
</event>
<event>
      5   9999  4.20015E-02  2.53797E+02 -1.00000E+00  1.08007E-01
      21    -1     0     0   502   511  0.000000000E+00  0.000000000E+00  4.207123781E+02  4.207123781E+02  0.000000000E+00  0.00000E+00  9.000E+00
      21    -1     0     0   501   502  0.000000000E+00  0.000000000E+00 -1.520701791E+03  1.520701791E+03  0.000000000E+00  0.00000E+00  9.000E+00
      25     1     1     2     0     0 -1.449891481E+02  6.258089677E+01 -6.259866144E+02  6.575883691E+02  1.250000000E+02  0.00000E+00  9.000E+00
      25     1     1     2     0     0 -1.084440566E+02 -7.616364288E+01 -8.282493697E+02  8.480465980E+02  1.250000000E+02  0.00000E+00  9.000E+00
      21     1     1     2   501   511  2.534332047E+02  1.358274610E+01  3.542465709E+02  4.357792024E+02  5.394796609E-06  0.00000E+00  9.000E+00
#rwgt            2          11  0.18793463232506274                2        9976           0
</event>
<event>
      5   9999  3.19816E-02  3.47063E+01 -1.00000E+00  1.48770E-01
      21    -1     0     0   502   501  0.000000000E+00  0.000000000E+00  1.326290236E+02  1.326290236E+02  0.000000000E+00  0.00000E+00  9.000E+00
      21    -1     0     0   501   512  0.000000000E+00  0.000000000E+00 -6.013900219E+02  6.013900219E+02  0.000000000E+00  0.00000E+00  9.000E+00
      25     1     1     2     0     0  7.529243497E+01  7.035499004E+01 -3.324422778E+02  3.698129845E+02  1.250000000E+02  0.00000E+00  9.000E+00
      25     1     1     2     0     0 -4.169626408E+01 -6.164728158E+01  6.541483968E+01  1.595088305E+02  1.250000000E+02  0.00000E+00  9.000E+00
      21     1     1     2   502   512 -3.359617089E+01 -8.707708457E+00 -2.017335602E+02  2.046972306E+02  3.814697266E-06  0.00000E+00  9.000E+00
#rwgt            1           1   2.6320210280715260E-002           2        9996           0
</event>
<event>
      5   9999  3.19816E-02  2.63931E+02 -1.00000E+00  1.07432E-01
      21    -1     0     0   502   501  0.000000000E+00  0.000000000E+00  4.326586629E+02  4.326586629E+02  0.000000000E+00  0.00000E+00  9.000E+00
      21    -1     0     0   511   502  0.000000000E+00  0.000000000E+00 -6.901278471E+02  6.901278471E+02  0.000000000E+00  0.00000E+00  9.000E+00
      25     1     1     2     0     0  3.057467656E+02  1.589197178E+02 -1.136174679E+02  3.837583751E+02  1.250000000E+02  0.00000E+00  9.000E+00
      25     1     1     2     0     0 -1.344442383E+02 -3.597054894E+02  5.635428377E+01  4.077549480E+02  1.250000000E+02  0.00000E+00  9.000E+00
      21     1     1     2   511   501 -1.713025274E+02  2.007857716E+02 -2.002060001E+02  3.312731870E+02  2.697398305E-06  0.00000E+00  9.000E+00
#rwgt            2          11   3.4125118595571577E-003           2       10086           0
</event>
<event>
      5   9999  3.19816E-02  1.34501E+02 -1.00000E+00  1.18302E-01
       2    -1     0     0   502     0  0.000000000E+00  0.000000000E+00  1.882029239E+03  1.882029239E+03  0.000000000E+00  0.00000E+00  9.000E+00
      21    -1     0     0   501   502  0.000000000E+00  0.000000000E+00 -3.596969869E+02  3.596969869E+02  0.000000000E+00  0.00000E+00  9.000E+00
      25     1     1     2     0     0 -6.301100224E+02  2.722840021E+02  9.218130635E+02  1.156088899E+03  1.250000000E+02  0.00000E+00  9.000E+00
      25     1     1     2     0     0  5.497182234E+02 -1.644516816E+02  1.370247155E+02  6.030217685E+02  1.250000000E+02  0.00000E+00  9.000E+00
       2     1     1     2   501     0  8.039179908E+01 -1.078323205E+02  4.634944730E+02  4.826155584E+02  5.394796609E-06  0.00000E+00  9.000E+00
#rwgt            1           1   2.7318455601279597E-002           2       10151           0
</event>
<event>
      5   9999  3.19816E-02  1.12947E+01 -1.00000E+00  1.89837E-01
      21    -1     0     0   502   501  0.000000000E+00  0.000000000E+00  1.775400083E+02  1.775400083E+02  0.000000000E+00  0.00000E+00  9.000E+00
      21    -1     0     0   501   511  0.000000000E+00  0.000000000E+00 -8.084586227E+02  8.084586227E+02  0.000000000E+00  0.00000E+00  9.000E+00
      25     1     1     2     0     0 -8.710238029E+01  2.817428550E+02 -5.144644890E+02  6.060235733E+02  1.250000000E+02  0.00000E+00  9.000E+00
      25     1     1     2     0     0  8.037610395E+01 -2.726694546E+02 -5.239430788E+01  3.149271552E+02  1.250000000E+02  0.00000E+00  9.000E+00
      21     1     1     2   502   511  6.726276332E+00 -9.073400394E+00 -6.405981755E+01  6.504790245E+01  9.536743164E-07  0.00000E+00  9.000E+00
#rwgt            1           1   2.9838877186486978E-002           2       10229           0
</event>
<event>
      5   9999  3.19816E-02  2.81606E+01 -1.00000E+00  1.54973E-01
      -1    -1     0     0     0   501  0.000000000E+00  0.000000000E+00  1.975336825E+02  1.975336825E+02  0.000000000E+00  0.00000E+00  9.000E+00
      21    -1     0     0   501   502  0.000000000E+00  0.000000000E+00 -4.413729370E+02  4.413729370E+02  0.000000000E+00  0.00000E+00  9.000E+00
      25     1     1     2     0     0 -8.527983237E+00  4.209160341E+01 -3.633362920E+02  3.866299144E+02  1.250000000E+02  0.00000E+00  9.000E+00
      25     1     1     2     0     0  3.640193958E+01 -4.609901507E+01  1.545781359E+02  2.072911491E+02  1.250000000E+02  0.00000E+00  9.000E+00
      -1     1     1     2     0   502 -2.787395635E+01  4.007411664E+00 -3.508109838E+01  4.498555606E+01  4.768371582E-07  0.00000E+00  9.000E+00
#rwgt            1           1   2.8442120179757644E-002           2       10540           0
</event>
<event>
      5   9999  3.19816E-02  4.27286E+01 -1.00000E+00  1.43085E-01
      21    -1     0     0   502   511  0.000000000E+00  0.000000000E+00  5.150034759E+02  5.150034759E+02  0.000000000E+00  0.00000E+00  9.000E+00
      21    -1     0     0   501   502  0.000000000E+00  0.000000000E+00 -1.526997693E+02  1.526997693E+02  0.000000000E+00  0.00000E+00  9.000E+00
      25     1     1     2     0     0 -1.658574506E+02  1.663644088E+02  1.869992918E+02  3.252376755E+02  1.250000000E+02  0.00000E+00  9.000E+00
      25     1     1     2     0     0  1.242479674E+02 -1.760797170E+02  1.333162471E+02  2.825594555E+02  1.250000000E+02  0.00000E+00  9.000E+00
      21     1     1     2   501   511  4.160948312E+01  9.715308182E+00  4.198816764E+01  5.990611421E+01  8.259061849E-07  0.00000E+00  9.000E+00
#rwgt            1           1   2.7005832212306975E-002           2       10641           0
</event>
<event>
      5   9999  3.19816E-02  3.29909E+02 -1.00000E+00  1.04268E-01
      21    -1     0     0   502   501  0.000000000E+00  0.000000000E+00  1.166556212E+03  1.166556212E+03  0.000000000E+00  0.00000E+00  9.000E+00
      21    -1     0     0   501   512  0.000000000E+00  0.000000000E+00 -1.883267283E+03  1.883267283E+03  0.000000000E+00  0.00000E+00  9.000E+00
      25     1     1     2     0     0  9.739372960E+02  4.802940366E+02 -7.196888448E+02  1.308744915E+03  1.250000000E+02  0.00000E+00  9.000E+00
      25     1     1     2     0     0 -8.640058381E+02 -7.913488149E+02  3.819276598E+02  1.238641503E+03  1.250000000E+02  0.00000E+00  9.000E+00
      21     1     1     2   502   512 -1.099314579E+02  3.110547783E+02 -3.789498864E+02  5.024370776E+02  5.394796609E-06  0.00000E+00  9.000E+00
#rwgt            2          11   4.4352268616994102E-003           2       10705           0
</event>
<event>
      5   9999  3.19816E-02  2.39799E+02 -1.00000E+00  1.08852E-01
      21    -1     0     0   502   501  0.000000000E+00  0.000000000E+00  1.506868920E+03  1.506868920E+03  0.000000000E+00  0.00000E+00  9.000E+00
       1    -1     0     0   501     0  0.000000000E+00  0.000000000E+00 -4.411964522E+02  4.411964522E+02  0.000000000E+00  0.00000E+00  9.000E+00
      25     1     1     2     0     0 -2.120032750E+02 -5.562033206E+02  3.633561199E+02  7.084914907E+02  1.250000000E+02  0.00000E+00  9.000E+00
      25     1     1     2     0     0  9.158499773E+01  7.635751147E+02  5.727766994E+02  9.670227065E+02  1.250000000E+02  0.00000E+00  9.000E+00
       1     1     1     2   502     0  1.204182772E+02 -2.073717940E+02  1.295396484E+02  2.725511749E+02  3.814697266E-06  0.00000E+00  9.000E+00
#rwgt            1           1   2.6875476533546595E-002           2       10740           0
</event>
<event>
      5   9999  3.19816E-02  3.29560E+01 -1.00000E+00  1.50258E-01
      21    -1     0     0   502   501  0.000000000E+00  0.000000000E+00  5.271703788E+02  5.271703788E+02  0.000000000E+00  0.00000E+00  9.000E+00
      21    -1     0     0   501   511  0.000000000E+00  0.000000000E+00 -2.110452281E+02  2.110452281E+02  0.000000000E+00  0.00000E+00  9.000E+00
      25     1     1     2     0     0 -7.442788019E+01 -2.613974789E+02  1.345669123E+02  3.280265313E+02  1.250000000E+02  0.00000E+00  9.000E+00
      25     1     1     2     0     0  5.768997940E+01  2.897865264E+02  1.940485373E+02  3.749455953E+02  1.250000000E+02  0.00000E+00  9.000E+00
      21     1     1     2   502   511  1.673790079E+01 -2.838904746E+01 -1.249029900E+01  3.524348036E+01  2.920019320E-07  0.00000E+00  9.000E+00
#rwgt            1           1   2.4858883115916653E-002           2       10799           0
</event>
<event>
      5   9999  3.19816E-02  8.37357E+00 -1.00000E+00  2.05112E-01
      21    -1     0     0   502   501  0.000000000E+00  0.000000000E+00  1.476910632E+03  1.476910632E+03  0.000000000E+00  0.00000E+00  9.000E+00
      21    -1     0     0   501   512  0.000000000E+00  0.000000000E+00 -6.228526464E+02  6.228526464E+02  0.000000000E+00  0.00000E+00  9.000E+00
      25     1     1     2     0     0  6.314450865E+01 -3.117904365E+02  1.099978565E+03  1.151858650E+03  1.250000000E+02  0.00000E+00  9.000E+00
      25     1     1     2     0     0 -6.539714998E+01  3.037255534E+02  2.710689596E+02  4.308472814E+02  1.250000000E+02  0.00000E+00  9.000E+00
      21     1     1     2   502   512  2.252641332E+00  8.064883113E+00 -5.169895392E+02  5.170573473E+02  7.629394531E-06  0.00000E+00  9.000E+00
#rwgt            1           1   2.7535601017660009E-002           2       10971           0
</event>
<event>
      5   9999  3.19816E-02  5.12639E+02 -1.00000E+00  9.85450E-02
      21    -1     0     0   502   501  0.000000000E+00  0.000000000E+00  2.538439762E+02  2.538439762E+02  0.000000000E+00  0.00000E+00  9.000E+00
       2    -1     0     0   501     0  0.000000000E+00  0.000000000E+00 -1.984575540E+03  1.984575540E+03  0.000000000E+00  0.00000E+00  9.000E+00
      25     1     1     2     0     0  7.033440558E+01  3.827674888E+01  4.417925617E+00  1.485144982E+02  1.250000000E+02  0.00000E+00  9.000E+00
      25     1     1     2     0     0  3.145695314E+02 -3.768727112E+02 -3.576311022E+02  6.200903449E+02  1.250000000E+02  0.00000E+00  9.000E+00
       2     1     1     2   502     0 -3.849039370E+02  3.385959624E+02 -1.377518387E+03  1.469814673E+03  1.525878906E-05  0.00000E+00  9.000E+00
#rwgt            2          13   2.5110511724641005E-003           2       11250           0
</event>
<event>
      5   9999  3.19816E-02  4.28020E+01 -1.00000E+00  1.43040E-01
      21    -1     0     0   502   501  0.000000000E+00  0.000000000E+00  9.325446657E+02  9.325446657E+02  0.000000000E+00  0.00000E+00  9.000E+00
      21    -1     0     0   511   502  0.000000000E+00  0.000000000E+00 -1.392570040E+02  1.392570040E+02  0.000000000E+00  0.00000E+00  9.000E+00
      25     1     1     2     0     0 -2.637637225E+02  7.965078922E+01  2.560303460E+02  3.963484421E+02  1.250000000E+02  0.00000E+00  9.000E+00
      25     1     1     2     0     0  2.730037832E+02 -1.214435537E+02  5.430070202E+02  6.322667367E+02  1.250000000E+02  0.00000E+00  9.000E+00
      21     1     1     2   511   501 -9.240060729E+00  4.179276446E+01 -5.749704486E+00  4.318649077E+01  2.064765462E-07  0.00000E+00  9.000E+00
#rwgt            1           1   3.1045426982768833E-002           2       11314           0
</event>
<event>
      5   9999  3.19816E-02  4.96087E+01 -1.00000E+00  1.39270E-01
      21    -1     0     0   512   501  0.000000000E+00  0.000000000E+00  4.291510677E+02  4.291510677E+02  0.000000000E+00  0.00000E+00  9.000E+00
      21    -1     0     0   501   502  0.000000000E+00  0.000000000E+00 -2.390284780E+02  2.390284780E+02  0.000000000E+00  0.00000E+00  9.000E+00
      25     1     1     2     0     0  3.009113655E+01  2.429323165E+02  9.112412059E+01  2.895689766E+02  1.250000000E+02  0.00000E+00  9.000E+00
      25     1     1     2     0     0 -5.639046417E+01 -2.008684370E+02 -2.554379298E+01  2.445516281E+02  1.250000000E+02  0.00000E+00  9.000E+00
      21     1     1     2   512   502  2.629932763E+01 -4.206387943E+01  1.245422621E+02  1.340589409E+02  2.697398305E-06  0.00000E+00  9.000E+00
#rwgt            1           1   2.8267205478127867E-002           2       11423           0
</event>
<event>
      5   9999  3.19816E-02  4.76112E+01 -1.00000E+00  1.40300E-01
      21    -1     0     0   502   511  0.000000000E+00  0.000000000E+00  1.025392120E+03  1.025392120E+03  0.000000000E+00  0.00000E+00  9.000E+00
      21    -1     0     0   501   502  0.000000000E+00  0.000000000E+00 -2.027599015E+02  2.027599015E+02  0.000000000E+00  0.00000E+00  9.000E+00
      25     1     1     2     0     0 -1.565189309E+02 -1.455767630E+02  1.024125217E+02  2.679628598E+02  1.250000000E+02  0.00000E+00  9.000E+00
      25     1     1     2     0     0  1.987164777E+02  1.235268896E+02  2.846762515E+01  2.668005559E+02  1.250000000E+02  0.00000E+00  9.000E+00
      21     1     1     2   501   511 -4.219754685E+01  2.204987341E+01  6.917520713E+02  6.933886054E+02  7.629394531E-06  0.00000E+00  9.000E+00
#rwgt            1           1   2.8795512942739382E-002           2       11493           0
</event>
<event>
      5   9999  3.19816E-02  6.91487E+01 -1.00000E+00  1.31490E-01
      21    -1     0     0   502   501  0.000000000E+00  0.000000000E+00  4.185217993E+02  4.185217993E+02  0.000000000E+00  0.00000E+00  9.000E+00
      21    -1     0     0   501   512  0.000000000E+00  0.000000000E+00 -2.829461747E+02  2.829461747E+02  0.000000000E+00  0.00000E+00  9.000E+00
      25     1     1     2     0     0 -5.653642721E+01  2.385282987E+02  7.419216378E+01  2.849940246E+02  1.250000000E+02  0.00000E+00  9.000E+00
      25     1     1     2     0     0  1.031560168E+02 -2.895983961E+02  8.642190500E+01  3.429316849E+02  1.250000000E+02  0.00000E+00  9.000E+00
      21     1     1     2   502   512 -4.661958961E+01  5.107009746E+01 -2.503844411E+01  7.354226454E+01  5.840038640E-07  0.00000E+00  9.000E+00
#rwgt            1           1   2.7936917614401608E-002           2       11585           0
</event>
<event>
      5   9999  3.19816E-02  3.64151E+01 -1.00000E+00  1.47415E-01
      21    -1     0     0   502   511  0.000000000E+00  0.000000000E+00  1.078258349E+03  1.078258349E+03  0.000000000E+00  0.00000E+00  9.000E+00
      21    -1     0     0   501   502  0.000000000E+00  0.000000000E+00 -3.591516618E+03  3.591516618E+03  0.000000000E+00  0.00000E+00  9.000E+00
      25     1     1     2     0     0  8.492977202E+02  1.230035645E+03 -2.727326664E+03  3.112592173E+03  1.250000000E+02  0.00000E+00  9.000E+00
      25     1     1     2     0     0 -8.136077751E+02 -1.237266518E+03  1.637456052E+02  1.495066444E+03  1.250000000E+02  0.00000E+00  9.000E+00
      21     1     1     2   501   511 -3.568994502E+01  7.230873465E+00  5.032278940E+01  6.211634921E+01  1.507891493E-06  0.00000E+00  9.000E+00
#rwgt            1           1   1.6654310793725535E-002           2       11683           0
</event>
<event>
      5   9999  3.19816E-02  7.31902E+01 -1.00000E+00  1.30248E-01
      21    -1     0     0   502   512  0.000000000E+00  0.000000000E+00  2.882229343E+01  2.882229343E+01  0.000000000E+00  0.00000E+00  9.000E+00
      21    -1     0     0   501   502  0.000000000E+00  0.000000000E+00 -2.583803759E+03  2.583803759E+03  0.000000000E+00  0.00000E+00  9.000E+00
      25     1     1     2     0     0 -1.501903891E+02 -1.738909660E+02 -1.254469461E+03  1.281449902E+03  1.250000000E+02  0.00000E+00  9.000E+00
      25     1     1     2     0     0  1.184956663E+02  1.079193625E+02 -1.076196667E+03  1.095222388E+03  1.250000000E+02  0.00000E+00  9.000E+00
      21     1     1     2   501   512  3.169472278E+01  6.597160349E+01 -2.243153365E+02  2.359537627E+02  0.000000000E+00  0.00000E+00  9.000E+00
#rwgt            1           1   5.6092757657710456E-002           2       11859           0
</event>
<event>
      5   9999  3.19816E-02  3.63550E+01 -1.00000E+00  1.47462E-01
      21    -1     0     0   502   501  0.000000000E+00  0.000000000E+00  1.541508863E+03  1.541508863E+03  0.000000000E+00  0.00000E+00  9.000E+00
      21    -1     0     0   501   511  0.000000000E+00  0.000000000E+00 -1.814582433E+02  1.814582433E+02  0.000000000E+00  0.00000E+00  9.000E+00
      25     1     1     2     0     0 -1.249956380E+02  4.398277793E+02  5.332533163E+02  7.134819439E+02  1.250000000E+02  0.00000E+00  9.000E+00
      25     1     1     2     0     0  1.096221955E+02 -4.068832174E+02  8.563952779E+02  9.626052412E+02  1.250000000E+02  0.00000E+00  9.000E+00
      21     1     1     2   502   511  1.537344245E+01 -3.294456191E+01 -2.959797468E+01  4.687992104E+01  1.261592536E-06  0.00000E+00  9.000E+00
#rwgt            1           1   3.7743152610929552E-002           2       11933           0
</event>
<event>
      5   9999  3.19816E-02  7.88224E+02 -1.00000E+00  9.35428E-02
      21    -1     0     0   502   501  0.000000000E+00  0.000000000E+00  7.768262719E+02  7.768262719E+02  0.000000000E+00  0.00000E+00  9.000E+00
      21    -1     0     0   501   512  0.000000000E+00  0.000000000E+00 -1.291358856E+03  1.291358856E+03  0.000000000E+00  0.00000E+00  9.000E+00
      25     1     1     2     0     0 -1.693772295E+02 -9.376222592E+01 -3.520806445E+01  2.331193014E+02  1.250000000E+02  0.00000E+00  9.000E+00
      25     1     1     2     0     0  7.191101365E+02  6.586427631E+02 -2.651127975E+02  1.018253148E+03  1.250000000E+02  0.00000E+00  9.000E+00
      21     1     1     2   502   512 -5.497329070E+02 -5.648805372E+02 -2.142117223E+02  8.168126788E+02  2.000444123E-05  0.00000E+00  9.000E+00
#rwgt            2          11   1.2942253943874953E-003           2       12127           0
</event>
<event>
      5   9999  3.19816E-02  1.83682E+02 -1.00000E+00  1.13010E-01
      21    -1     0     0   502   501  0.000000000E+00  0.000000000E+00  1.442138898E+03  1.442138898E+03  0.000000000E+00  0.00000E+00  9.000E+00
      21    -1     0     0   511   502  0.000000000E+00  0.000000000E+00 -2.899206643E+02  2.899206643E+02  0.000000000E+00  0.00000E+00  9.000E+00
      25     1     1     2     0     0  9.375630104E+01  3.757805122E+02  7.660022682E+02  8.674017018E+02  1.250000000E+02  0.00000E+00  9.000E+00
      25     1     1     2     0     0  3.318843343E+01 -2.430245845E+02  5.522455065E+02  6.170595759E+02  1.250000000E+02  0.00000E+00  9.000E+00
      21     1     1     2   511   501 -1.269447345E+02 -1.327559277E+02 -1.660295412E+02  2.475982845E+02  4.672030912E-06  0.00000E+00  9.000E+00
#rwgt            1           1   1.1502469665797353E-002           2       12147           0
</event>
<event>
      5   9999  3.19816E-02  1.00140E+02 -1.00000E+00  1.23801E-01
       2    -1     0     0   502     0  0.000000000E+00  0.000000000E+00  1.672501979E+03  1.672501979E+03  0.000000000E+00  0.00000E+00  9.000E+00
      21    -1     0     0   501   502  0.000000000E+00  0.000000000E+00 -5.597066440E+02  5.597066440E+02  0.000000000E+00  0.00000E+00  9.000E+00
      25     1     1     2     0     0 -2.981139848E+02  2.538817815E+02 -8.834489369E+01  4.204256500E+02  1.250000000E+02  0.00000E+00  9.000E+00
      25     1     1     2     0     0  2.686107573E+02 -3.495768744E+02 -1.304418437E+02  4.764407672E+02  1.250000000E+02  0.00000E+00  9.000E+00
       2     1     1     2   501     0  2.950322746E+01  9.569509284E+01  1.331582073E+03  1.335342206E+03  2.157918644E-05  0.00000E+00  9.000E+00
#rwgt            1           1   2.7371980472736542E-002           2       12195           0
</event>
<event>
      5   9999  3.19816E-02  1.99910E+01 -1.00000E+00  1.66385E-01
      21    -1     0     0   502   501  0.000000000E+00  0.000000000E+00  4.556106113E+01  4.556106113E+01  0.000000000E+00  0.00000E+00  9.000E+00
      21    -1     0     0   511   502  0.000000000E+00  0.000000000E+00 -7.567646176E+02  7.567646176E+02  0.000000000E+00  0.00000E+00  9.000E+00
      25     1     1     2     0     0  1.087213237E+02 -1.110305250E+01 -2.646420104E+02  3.124163851E+02  1.250000000E+02  0.00000E+00  9.000E+00
      25     1     1     2     0     0 -1.192545612E+02  2.809401474E+01 -3.503041282E+02  3.915978885E+02  1.250000000E+02  0.00000E+00  9.000E+00
      21     1     1     2   511   501  1.053323748E+01 -1.699096224E+01 -9.625741790E+01  9.831140519E+01  1.348699152E-06  0.00000E+00  9.000E+00
#rwgt            1           1   2.0507900125903891E-002           2       12285           0
</event>
<event>
      5   9999  3.19816E-02  1.25419E+01 -1.00000E+00  1.85034E-01
       2    -1     0     0   502     0  0.000000000E+00  0.000000000E+00  2.177183507E+03  2.177183507E+03  0.000000000E+00  0.00000E+00  9.000E+00
      21    -1     0     0   501   502  0.000000000E+00  0.000000000E+00 -3.628673909E+02  3.628673909E+02  0.000000000E+00  0.00000E+00  9.000E+00
      25     1     1     2     0     0 -1.048228319E+02 -2.478014517E+02  3.519688586E+02  4.603264743E+02  1.250000000E+02  0.00000E+00  9.000E+00
      25     1     1     2     0     0  1.173644245E+02  2.478905860E+02 -2.350831923E+02  3.822476397E+02  1.250000000E+02  0.00000E+00  9.000E+00
       2     1     1     2   501     0 -1.254159267E+01 -8.913428492E-02  1.697430449E+03  1.697476783E+03  3.051757812E-05  0.00000E+00  9.000E+00
#rwgt            1           1   2.7374199145504676E-002           2       12507           0
</event>
<event>
      5   9999  3.19816E-02  2.49427E+00 -1.00000E+00  3.23529E-01
      21    -1     0     0   502   501  0.000000000E+00  0.000000000E+00  1.241792997E+03  1.241792997E+03  0.000000000E+00  0.00000E+00  9.000E+00
      21    -1     0     0   501   511  0.000000000E+00  0.000000000E+00 -1.039527493E+03  1.039527493E+03  0.000000000E+00  0.00000E+00  9.000E+00
      25     1     1     2     0     0  3.058763405E+02 -5.588854924E+02  3.010767250E+02  7.156713796E+02  1.250000000E+02  0.00000E+00  9.000E+00
      25     1     1     2     0     0 -3.077025099E+02  5.571865290E+02  5.899911721E+02  8.768422013E+02  1.250000000E+02  0.00000E+00  9.000E+00
      21     1     1     2   502   511  1.826169344E+00  1.698963345E+00 -6.888023932E+02  6.888069092E+02  0.000000000E+00  0.00000E+00  9.000E+00
#rwgt            1           1   3.0207063031872726E-002           2       12697           0
</event>
<event>
      5   9999  3.19816E-02  1.52810E+02 -1.00000E+00  1.16075E-01
      21    -1     0     0   502   501  0.000000000E+00  0.000000000E+00  1.899305278E+03  1.899305278E+03  0.000000000E+00  0.00000E+00  9.000E+00
      21    -1     0     0   501   512  0.000000000E+00  0.000000000E+00 -7.348283725E+01  7.348283725E+01  0.000000000E+00  0.00000E+00  9.000E+00
      25     1     1     2     0     0 -7.149189946E+01 -8.597165009E+01  9.474705197E+02  9.621993567E+02  1.250000000E+02  0.00000E+00  9.000E+00
      25     1     1     2     0     0  9.378143359E+01  2.371471201E+02  7.768590334E+02  8.271448916E+02  1.250000000E+02  0.00000E+00  9.000E+00
      21     1     1     2   502   512 -2.228953413E+01 -1.511754700E+02  1.014928875E+02  1.834438668E+02  1.907348633E-06  0.00000E+00  9.000E+00
#rwgt            1           1   1.6053254177658505E-002           2       13328           0
</event>
<event>
      5   9999  3.19816E-02  1.24868E+02 -1.00000E+00  1.19640E-01
      21    -1     0     0   502   501  0.000000000E+00  0.000000000E+00  1.905354984E+03  1.905354984E+03  0.000000000E+00  0.00000E+00  9.000E+00
      21    -1     0     0   511   502  0.000000000E+00  0.000000000E+00 -4.939069590E+02  4.939069590E+02  0.000000000E+00  0.00000E+00  9.000E+00
      25     1     1     2     0     0 -6.706406926E+01  7.502873774E+02  1.101982141E+03  1.340678328E+03  1.250000000E+02  0.00000E+00  9.000E+00
      25     1     1     2     0     0  3.051485722E+01 -8.696862263E+02  3.142372517E+02  9.336248385E+02  1.250000000E+02  0.00000E+00  9.000E+00
      21     1     1     2   511   501  3.654921204E+01  1.193988489E+02 -4.771367876E+00  1.249587771E+02  1.831327855E-06  0.00000E+00  9.000E+00
#rwgt            1           1   3.8686614250067315E-002           2       13388           0
</event>
<event>
      5   9999  3.19816E-02  2.57114E+01 -1.00000E+00  1.57844E-01
      21    -1     0     0   502   501  0.000000000E+00  0.000000000E+00  3.905655551E+02  3.905655551E+02  0.000000000E+00  0.00000E+00  9.000E+00
       2    -1     0     0   501     0  0.000000000E+00  0.000000000E+00 -2.206857330E+03  2.206857330E+03  0.000000000E+00  0.00000E+00  9.000E+00
      25     1     1     2     0     0 -2.977455780E+02 -1.138137190E+02  2.300812979E+02  4.125147215E+02  1.250000000E+02  0.00000E+00  9.000E+00
      25     1     1     2     0     0  3.211871851E+02  1.032511798E+02 -3.987096058E+02  5.370440986E+02  1.250000000E+02  0.00000E+00  9.000E+00
       2     1     1     2   502     0 -2.344160708E+01  1.056253919E+01 -1.647663467E+03  1.647864065E+03  3.051757812E-05  0.00000E+00  9.000E+00
#rwgt            1           1   3.0075890697473587E-002           2       13473           0
</event>
<event>
      5   9999  3.19816E-02  1.09427E+02 -1.00000E+00  1.22093E-01
      21    -1     0     0   502   501  0.000000000E+00  0.000000000E+00  3.955986956E+02  3.955986956E+02  0.000000000E+00  0.00000E+00  9.000E+00
      21    -1     0     0   501   511  0.000000000E+00  0.000000000E+00 -5.233976762E+02  5.233976762E+02  0.000000000E+00  0.00000E+00  9.000E+00
      25     1     1     2     0     0  8.483310357E+01 -2.633151732E+02  1.026606914E+02  3.204617816E+02  1.250000000E+02  0.00000E+00  9.000E+00
      25     1     1     2     0     0 -9.808644126E+00  1.836555623E+02  1.048261486E+02  2.458436424E+02  1.250000000E+02  0.00000E+00  9.000E+00
      21     1     1     2   502   511 -7.502445945E+01  7.965961085E+01 -3.352858207E+02  3.526909478E+02  0.000000000E+00  0.00000E+00  9.000E+00
#rwgt            2          11   3.0184477994382834E-003           2       14067           0
</event>
<event>
      5   9999  3.19816E-02  1.86493E+01 -1.00000E+00  1.68914E-01
      21    -1     0     0   502   512  0.000000000E+00  0.000000000E+00  1.133191404E+02  1.133191404E+02  0.000000000E+00  0.00000E+00  9.000E+00
      21    -1     0     0   501   502  0.000000000E+00  0.000000000E+00 -9.743085821E+02  9.743085821E+02  0.000000000E+00  0.00000E+00  9.000E+00
      25     1     1     2     0     0 -2.511734588E+02 -4.331431473E+01 -4.719323609E+02  5.507353172E+02  1.250000000E+02  0.00000E+00  9.000E+00
      25     1     1     2     0     0  2.330146864E+02  3.906497134E+01 -4.217119479E+02  4.992873752E+02  1.250000000E+02  0.00000E+00  9.000E+00
      21     1     1     2   501   512  1.815877244E+01  4.249343399E+00  3.265486714E+01  3.760503004E+01  9.536743164E-07  0.00000E+00  9.000E+00
#rwgt            1           1   2.6493009323178020E-002           2       14102           0
</event>
<event>
      5   9999  3.19816E-02  2.90886E+01 -1.00000E+00  1.53976E-01
       2    -1     0     0   502     0  0.000000000E+00  0.000000000E+00  9.544862562E+02  9.544862562E+02  0.000000000E+00  0.00000E+00  9.000E+00
      21    -1     0     0   501   502  0.000000000E+00  0.000000000E+00 -1.756063171E+02  1.756063171E+02  0.000000000E+00  0.00000E+00  9.000E+00
      25     1     1     2     0     0 -3.653486605E+02 -1.097372056E+02  4.794306017E+02  6.253004077E+02  1.250000000E+02  0.00000E+00  9.000E+00
      25     1     1     2     0     0  3.363149748E+02  1.115245387E+02  2.884975240E+02  4.737101502E+02  1.250000000E+02  0.00000E+00  9.000E+00
       2     1     1     2   501     0  2.903368567E+01 -1.787333076E+00  1.095181338E+01  3.108201536E+01  6.307962682E-07  0.00000E+00  9.000E+00
#rwgt            1           1   2.5054141344489956E-002           2       14240           0
</event>
<event>
      5   9999  3.19816E-02  9.03616E+01 -1.00000E+00  1.25841E-01
       1    -1     0     0   502     0  0.000000000E+00  0.000000000E+00  6.366317903E+02  6.366317903E+02  0.000000000E+00  0.00000E+00  9.000E+00
      21    -1     0     0   501   502  0.000000000E+00  0.000000000E+00 -5.418325925E+02  5.418325925E+02  0.000000000E+00  0.00000E+00  9.000E+00
      25     1     1     2     0     0 -4.473379324E+01  2.515696746E+02  3.608157119E+02  4.594577145E+02  1.250000000E+02  0.00000E+00  9.000E+00
      25     1     1     2     0     0  1.126103352E+02 -3.112185514E+02 -4.146464219E+02  5.450639682E+02  1.250000000E+02  0.00000E+00  9.000E+00
       1     1     1     2   501     0 -6.787654194E+01  5.964887678E+01  1.486299077E+02  1.739427001E+02  0.000000000E+00  0.00000E+00  9.000E+00
#rwgt            1           1   2.5995237012207857E-002           2       14408           0
</event>
<event>
      5   9999  3.19816E-02  6.53120E+00 -1.00000E+00  2.19898E-01
      21    -1     0     0   502   501  0.000000000E+00  0.000000000E+00  1.673547946E+02  1.673547946E+02  0.000000000E+00  0.00000E+00  9.000E+00
      21    -1     0     0   501   511  0.000000000E+00  0.000000000E+00 -5.803306104E+02  5.803306104E+02  0.000000000E+00  0.00000E+00  9.000E+00
      25     1     1     2     0     0  3.629527661E+01  3.045251183E+01 -5.348487458E+02  5.513010825E+02  1.250000000E+02  0.00000E+00  9.000E+00
      25     1     1     2     0     0 -3.739370770E+01 -2.401434382E+01  1.301460007E+02  1.858439119E+02  1.250000000E+02  0.00000E+00  9.000E+00
      21     1     1     2   502   511  1.098431092E+00 -6.438168013E+00 -8.273070679E+00  1.054041065E+01  1.192092896E-07  0.00000E+00  9.000E+00
#rwgt            1           1   3.4599543066669028E-002           2       14476           0
</event>
<event>
      5   9999  3.19816E-02  3.53202E+02 -1.00000E+00  1.03338E-01
      21    -1     0     0   502   501  0.000000000E+00  0.000000000E+00  1.475349514E+02  1.475349514E+02  0.000000000E+00  0.00000E+00  9.000E+00
       2    -1     0     0   501     0  0.000000000E+00  0.000000000E+00 -3.569975571E+03  3.569975571E+03  0.000000000E+00  0.00000E+00  9.000E+00
      25     1     1     2     0     0  1.061715193E+02 -3.509809510E+01 -1.676777651E+03  1.685144670E+03  1.250000000E+02  0.00000E+00  9.000E+00
      25     1     1     2     0     0  5.049646400E+01 -2.814562074E+02 -1.631637657E+03  1.661214596E+03  1.250000000E+02  0.00000E+00  9.000E+00
       2     1     1     2   502     0 -1.566679833E+02  3.165543025E+02 -1.140253112E+02  3.711512562E+02  3.303624740E-06  0.00000E+00  9.000E+00
#rwgt            1           1   6.2986748135981194E-002           2       14676           0
</event>
<event>
      5   9999  3.19816E-02  9.48305E+01 -1.00000E+00  1.24874E-01
      21    -1     0     0   502   511  0.000000000E+00  0.000000000E+00  8.402921938E+01  8.402921938E+01  0.000000000E+00  0.00000E+00  9.000E+00
      21    -1     0     0   501   502  0.000000000E+00  0.000000000E+00 -1.300514447E+03  1.300514447E+03  0.000000000E+00  0.00000E+00  9.000E+00
      25     1     1     2     0     0 -1.888493538E+02 -5.135565100E+01 -9.508624749E+02  9.788084222E+02  1.250000000E+02  0.00000E+00  9.000E+00
      25     1     1     2     0     0  1.358829019E+02 -2.730428876E+01 -9.241571001E+01  2.082674979E+02  1.250000000E+02  0.00000E+00  9.000E+00
      21     1     1     2   501   511  5.296645187E+01  7.865993976E+01 -1.732070424E+02  1.974677459E+02  2.697398305E-06  0.00000E+00  9.000E+00
#rwgt            2          11   3.1824913516200017E-003           2       14741           0
</event>
<event>
      5   9999  3.19816E-02  1.18366E+02 -1.00000E+00  1.20622E-01
      21    -1     0     0   502   512  0.000000000E+00  0.000000000E+00  6.515783999E+01  6.515783999E+01  0.000000000E+00  0.00000E+00  9.000E+00
      21    -1     0     0   501   502  0.000000000E+00  0.000000000E+00 -1.756136600E+03  1.756136600E+03  0.000000000E+00  0.00000E+00  9.000E+00
      25     1     1     2     0     0 -3.301625858E+01 -1.714138795E+02 -9.944052335E+02  1.017319792E+03  1.250000000E+02  0.00000E+00  9.000E+00
      25     1     1     2     0     0 -6.720410289E+01  2.343930184E+02 -4.019381653E+02  4.864522250E+02  1.250000000E+02  0.00000E+00  9.000E+00
      21     1     1     2   501   512  1.002203615E+02 -6.297913894E+01 -2.946353608E+02  3.175224222E+02  3.814697266E-06  0.00000E+00  9.000E+00
#rwgt            1           1   1.7862311096608238E-002           2       14761           0
</event>
<event>
      5   9999  3.19816E-02  3.37838E+01 -1.00000E+00  1.49541E-01
      21    -1     0     0   502   501  0.000000000E+00  0.000000000E+00  1.180128646E+02  1.180128646E+02  0.000000000E+00  0.00000E+00  9.000E+00
      21    -1     0     0   511   502  0.000000000E+00  0.000000000E+00 -9.562571349E+02  9.562571349E+02  0.000000000E+00  0.00000E+00  9.000E+00
      25     1     1     2     0     0 -2.154519111E+01 -2.756173208E+02 -2.376793575E+02  3.854161125E+02  1.250000000E+02  0.00000E+00  9.000E+00
      25     1     1     2     0     0  5.278566002E+01  2.627573974E+02 -4.812561847E+02  5.648542211E+02  1.250000000E+02  0.00000E+00  9.000E+00
      21     1     1     2   511   501 -3.124046890E+01  1.285992345E+01 -1.193087281E+02  1.239996659E+02  0.000000000E+00  0.00000E+00  9.000E+00
#rwgt            1           1   2.6459454642284139E-002           2       14836           0
</event>
<event>
      5   9999  3.19816E-02  2.46839E+01 -1.00000E+00  1.59166E-01
      21    -1     0     0   502   512  0.000000000E+00  0.000000000E+00  6.993362162E+02  6.993362162E+02  0.000000000E+00  0.00000E+00  9.000E+00
      21    -1     0     0   501   502  0.000000000E+00  0.000000000E+00 -1.949342487E+02  1.949342487E+02  0.000000000E+00  0.00000E+00  9.000E+00
      25     1     1     2     0     0  2.346865099E+02 -6.518459055E+01  2.092886217E+02  3.446063203E+02  1.250000000E+02  0.00000E+00  9.000E+00
      25     1     1     2     0     0 -2.202297393E+02  4.517711462E+01  3.749943580E+00  2.572570151E+02  1.250000000E+02  0.00000E+00  9.000E+00
      21     1     1     2   501   512 -1.445677066E+01  2.000747594E+01  2.913634022E+02  2.924071296E+02  3.814697266E-06  0.00000E+00  9.000E+00
#rwgt            1           1   2.8174838197885299E-002           2       14914           0
</event>
<event>
      5   9999  3.19816E-02  2.96683E+01 -1.00000E+00  1.53376E-01
      21    -1     0     0   502   501  0.000000000E+00  0.000000000E+00  4.290381012E+02  4.290381012E+02  0.000000000E+00  0.00000E+00  9.000E+00
      21    -1     0     0   511   502  0.000000000E+00  0.000000000E+00 -8.828449289E+02  8.828449289E+02  0.000000000E+00  0.00000E+00  9.000E+00
      25     1     1     2     0     0  2.390596282E+01 -9.902927471E+01  4.193492847E+01  1.666188181E+02  1.250000000E+02  0.00000E+00  9.000E+00
      25     1     1     2     0     0  4.771566937E+00  1.066325184E+02  3.036698581E+02  3.453022510E+02  1.250000000E+02  0.00000E+00  9.000E+00
      21     1     1     2   511   501 -2.867752976E+01 -7.603243698E+00 -7.994116143E+02  7.999619611E+02  1.078959322E-05  0.00000E+00  9.000E+00
#rwgt            1           1   3.4381493691073503E-002           2       15070           0
</event>
<event>
      5   9999  3.19816E-02  6.82953E+01 -1.00000E+00  1.31765E-01
      21    -1     0     0   502   512  0.000000000E+00  0.000000000E+00  3.455556631E+02  3.455556631E+02  0.000000000E+00  0.00000E+00  9.000E+00
      21    -1     0     0   501   502  0.000000000E+00  0.000000000E+00 -8.629451391E+02  8.629451391E+02  0.000000000E+00  0.00000E+00  9.000E+00
      25     1     1     2     0     0  1.651982716E+02 -1.704032634E+02 -7.373683345E+02  7.846431048E+02  1.250000000E+02  0.00000E+00  9.000E+00
      25     1     1     2     0     0 -1.283171882E+02  2.278839964E+02  2.017753762E+02  3.531780274E+02  1.250000000E+02  0.00000E+00  9.000E+00
      21     1     1     2   501   512 -3.688108342E+01 -5.748073297E+01  1.820348236E+01  7.067966997E+01  8.920806376E-07  0.00000E+00  9.000E+00
#rwgt            1           1   2.5158450042085629E-002           2       15161           0
</event>
<event>
      5   9999  3.19816E-02  1.22674E+01 -1.00000E+00  1.86027E-01
      21    -1     0     0   502   511  0.000000000E+00  0.000000000E+00  3.028135933E+02  3.028135933E+02  0.000000000E+00  0.00000E+00  9.000E+00
      21    -1     0     0   501   502  0.000000000E+00  0.000000000E+00 -3.428856980E+02  3.428856980E+02  0.000000000E+00  0.00000E+00  9.000E+00
      25     1     1     2     0     0 -2.556550338E+02 -5.365281999E+01  6.447220362E+01  2.966812876E+02  1.250000000E+02  0.00000E+00  9.000E+00
      25     1     1     2     0     0  2.434273637E+02  5.266570450E+01 -1.397429209E+02  3.117429097E+02  1.250000000E+02  0.00000E+00  9.000E+00
      21     1     1     2   501   511  1.222767005E+01  9.871154920E-01  3.519861252E+01  3.727509403E+01  0.000000000E+00  0.00000E+00  9.000E+00
#rwgt            1           1   2.6739614525388783E-002           2       15223           0
</event>
<event>
      5   9999  3.19816E-02  1.66321E+02 -1.00000E+00  1.14643E-01
       3    -1     0     0   502     0  0.000000000E+00  0.000000000E+00  1.569621847E+03  1.569621847E+03  0.000000000E+00  0.00000E+00  9.000E+00
      21    -1     0     0   501   502  0.000000000E+00  0.000000000E+00 -2.730866564E+03  2.730866564E+03  0.000000000E+00  0.00000E+00  9.000E+00
      25     1     1     2     0     0 -3.111486569E+02 -4.785886208E+02 -6.959550167E+02  9.087568101E+02  1.250000000E+02  0.00000E+00  9.000E+00
      25     1     1     2     0     0  1.465910360E+02  5.027432300E+02 -1.885988426E+03  1.961330424E+03  1.250000000E+02  0.00000E+00  9.000E+00
       3     1     1     2   501     0  1.645576209E+02 -2.415460923E+01  1.420698726E+03  1.430401177E+03  2.157918644E-05  0.00000E+00  9.000E+00
#rwgt            1           1   8.8994144352546767E-002           2       15420           0
</event>
<event>
      5   9999  3.19816E-02  1.06851E+02 -1.00000E+00  1.22547E-01
      21    -1     0     0   502   501  0.000000000E+00  0.000000000E+00  4.839461881E+02  4.839461881E+02  0.000000000E+00  0.00000E+00  9.000E+00
      21    -1     0     0   501   511  0.000000000E+00  0.000000000E+00 -6.814687065E+02  6.814687065E+02  0.000000000E+00  0.00000E+00  9.000E+00
      25     1     1     2     0     0 -3.550586763E+02 -1.853739112E+02 -4.982586281E+01  4.225372968E+02  1.250000000E+02  0.00000E+00  9.000E+00
      25     1     1     2     0     0  4.414602078E+02  1.225103000E+02  8.902069516E+01  4.831620565E+02  1.250000000E+02  0.00000E+00  9.000E+00
      21     1     1     2   502   511 -8.640153153E+01  6.286361124E+01 -2.367173508E+02  2.597155414E+02  2.697398305E-06  0.00000E+00  9.000E+00
#rwgt            1           1   2.8385798532084137E-002           2       15480           0
</event>
<event>
      5   9999  3.19816E-02  3.83751E+01 -1.00000E+00  1.45966E-01
      21    -1     0     0   512   501  0.000000000E+00  0.000000000E+00  1.278058144E+03  1.278058144E+03  0.000000000E+00  0.00000E+00  9.000E+00
      21    -1     0     0   501   502  0.000000000E+00  0.000000000E+00 -1.566674702E+03  1.566674702E+03  0.000000000E+00  0.00000E+00  9.000E+00
      25     1     1     2     0     0  5.975176902E+02  6.938566688E+02 -1.184658114E+03  1.502499356E+03  1.250000000E+02  0.00000E+00  9.000E+00
      25     1     1     2     0     0 -6.318269183E+02 -7.110475529E+02  8.749518412E+02  1.298445071E+03  1.250000000E+02  0.00000E+00  9.000E+00
      21     1     1     2   512   502  3.430922806E+01  1.719088410E+01  2.108971499E+01  4.378841975E+01  7.539457465E-07  0.00000E+00  9.000E+00
#rwgt            1           1   4.7919939953707413E-002           2       15573           0
</event>
<event>
      5   9999  3.19816E-02  7.24231E+01 -1.00000E+00  1.30477E-01
      21    -1     0     0   511   501  0.000000000E+00  0.000000000E+00  1.147602523E+03  1.147602523E+03  0.000000000E+00  0.00000E+00  9.000E+00
      21    -1     0     0   501   502  0.000000000E+00  0.000000000E+00 -2.178447192E+02  2.178447192E+02  0.000000000E+00  0.00000E+00  9.000E+00
      25     1     1     2     0     0  3.684966061E+02  1.045454850E+02  2.429178131E+02  4.704822749E+02  1.250000000E+02  0.00000E+00  9.000E+00
      25     1     1     2     0     0 -4.319832535E+02 -1.393958177E+02  4.655278772E+02  6.621041683E+02  1.250000000E+02  0.00000E+00  9.000E+00
      21     1     1     2   511   502  6.348664744E+01  3.485033269E+01  2.213121139E+02  2.328607993E+02  0.000000000E+00  0.00000E+00  9.000E+00
#rwgt            1           1   3.4717123455711568E-002           2       15791           0
</event>
<event>
      5   9999  3.19816E-02  1.97265E+02 -1.00000E+00  1.11866E-01
      21    -1     0     0   502   501  0.000000000E+00  0.000000000E+00  6.408782445E+02  6.408782445E+02  0.000000000E+00  0.00000E+00  9.000E+00
      21    -1     0     0   512   502  0.000000000E+00  0.000000000E+00 -8.898342541E+02  8.898342541E+02  0.000000000E+00  0.00000E+00  9.000E+00
      25     1     1     2     0     0 -1.465004353E+02  1.733879209E+02  7.166419420E+01  2.688614985E+02  1.250000000E+02  0.00000E+00  9.000E+00
      25     1     1     2     0     0  3.405690743E+02 -1.380180605E+02  3.744516923E+02  5.393286097E+02  1.250000000E+02  0.00000E+00  9.000E+00
      21     1     1     2   512   501 -1.940686390E+02 -3.536986042E+01 -6.950718961E+02  7.225223903E+02  7.629394531E-06  0.00000E+00  9.000E+00
#rwgt            2          11   4.6010057511326561E-003           2       15965           0
</event>
<event>
      5   9999  3.19816E-02  7.34072E+01 -1.00000E+00  1.30184E-01
      21    -1     0     0   511   501  0.000000000E+00  0.000000000E+00  1.852417796E+02  1.852417796E+02  0.000000000E+00  0.00000E+00  9.000E+00
      21    -1     0     0   501   502  0.000000000E+00  0.000000000E+00 -5.209359720E+02  5.209359720E+02  0.000000000E+00  0.00000E+00  9.000E+00
      25     1     1     2     0     0 -1.964128604E+02  1.199633935E+02 -1.387439067E+02  2.963850522E+02  1.250000000E+02  0.00000E+00  9.000E+00
      25     1     1     2     0     0  2.466396367E+02 -6.642938367E+01 -1.715669134E+02  3.321207298E+02  1.250000000E+02  0.00000E+00  9.000E+00
      21     1     1     2   511   502 -5.022677628E+01 -5.353400987E+01 -2.538337232E+01  7.767196958E+01  1.390207266E-06  0.00000E+00  9.000E+00
#rwgt            1           1   2.9593211766680703E-002           2       15985           0
</event>
<event>
      5   9999  3.19816E-02  4.31620E+01 -1.00000E+00  1.42820E-01
       2    -1     0     0   502     0  0.000000000E+00  0.000000000E+00  2.617357479E+03  2.617357479E+03  0.000000000E+00  0.00000E+00  9.000E+00
      21    -1     0     0   501   502  0.000000000E+00  0.000000000E+00 -1.702366785E+02  1.702366785E+02  0.000000000E+00  0.00000E+00  9.000E+00
      25     1     1     2     0     0  2.640752573E+02 -2.086248732E+02  6.591733045E+02  7.505961128E+02  1.250000000E+02  0.00000E+00  9.000E+00
      25     1     1     2     0     0 -2.888680727E+02  2.439557636E+02  1.948936164E+02  4.433595603E+02  1.250000000E+02  0.00000E+00  9.000E+00
       2     1     1     2   501     0  2.479281540E+01 -3.533089033E+01  1.593053879E+03  1.593638484E+03  2.157918644E-05  0.00000E+00  9.000E+00
#rwgt            1           1   2.8446762046518890E-002           2       16068           0
</event>
<event>
      5   9999  3.19816E-02  3.09180E+02 -1.00000E+00  1.05168E-01
      21    -1     0     0   502   501  0.000000000E+00  0.000000000E+00  1.142153144E+03  1.142153144E+03  0.000000000E+00  0.00000E+00  9.000E+00
       2    -1     0     0   501     0  0.000000000E+00  0.000000000E+00 -9.298144178E+02  9.298144178E+02  0.000000000E+00  0.00000E+00  9.000E+00
      25     1     1     2     0     0  5.146149592E+02 -3.357468529E+02  7.501237065E+01  6.315111727E+02  1.250000000E+02  0.00000E+00  9.000E+00
      25     1     1     2     0     0 -2.054584220E+02  3.395220154E+02  6.908334162E+02  8.064515925E+02  1.250000000E+02  0.00000E+00  9.000E+00
       2     1     1     2   502     0 -3.091565372E+02 -3.775162464E+00 -5.535070605E+02  6.340047968E+02  7.629394531E-06  0.00000E+00  9.000E+00
#rwgt            2          13   1.3613338411958165E-003           2       16143           0
</event>
<event>
      5   9999  3.19816E-02  5.28231E+02 -1.00000E+00  9.81790E-02
      21    -1     0     0   502   511  0.000000000E+00  0.000000000E+00  7.124846647E+02  7.124846647E+02  0.000000000E+00  0.00000E+00  9.000E+00
      21    -1     0     0   501   502  0.000000000E+00  0.000000000E+00 -1.042276569E+03  1.042276569E+03  0.000000000E+00  0.00000E+00  9.000E+00
      25     1     1     2     0     0  3.801011550E+01 -4.217758684E+02 -3.477825425E+02  5.620652532E+02  1.250000000E+02  0.00000E+00  9.000E+00
      25     1     1     2     0     0  4.901805509E+02  4.282819215E+02 -1.981715625E+01  6.631139392E+02  1.250000000E+02  0.00000E+00  9.000E+00
      21     1     1     2   501   511 -5.281906663E+02 -6.506053151E+00  3.780779477E+01  5.295820409E+02  3.371747881E-06  0.00000E+00  9.000E+00
#rwgt            2          11   2.2225708918333100E-003           2       16327           0
</event>
<event>
      5   9999  3.19816E-02  1.42943E+02 -1.00000E+00  1.17229E-01
      21    -1     0     0   502   512  0.000000000E+00  0.000000000E+00  2.085835390E+03  2.085835390E+03  0.000000000E+00  0.00000E+00  9.000E+00
      21    -1     0     0   501   502  0.000000000E+00  0.000000000E+00 -3.259843014E+02  3.259843014E+02  0.000000000E+00  0.00000E+00  9.000E+00
      25     1     1     2     0     0  7.358308107E+00 -4.003172132E+01  1.165755613E+03  1.173144421E+03  1.250000000E+02  0.00000E+00  9.000E+00
      25     1     1     2     0     0  6.316635898E+01 -8.430280204E+01 -2.954824472E+02  3.376859902E+02  1.250000000E+02  0.00000E+00  9.000E+00
      21     1     1     2   501   512 -7.052466708E+01  1.243345234E+02  8.895779222E+02  9.009892796E+02  1.078959322E-05  0.00000E+00  9.000E+00
#rwgt            1           1   3.1028072000288297E-002           2       16347           0
</event>
<event>
      5   9999  3.19816E-02  4.62936E+01 -1.00000E+00  1.41011E-01
      21    -1     0     0   502   511  0.000000000E+00  0.000000000E+00  1.919682626E+03  1.919682626E+03  0.000000000E+00  0.00000E+00  9.000E+00
      21    -1     0     0   501   502  0.000000000E+00  0.000000000E+00 -6.973916790E+01  6.973916790E+01  0.000000000E+00  0.00000E+00  9.000E+00
      25     1     1     2     0     0 -5.438784052E+01 -1.038994043E+02  9.938417863E+01  1.981296000E+02  1.250000000E+02  0.00000E+00  9.000E+00
      25     1     1     2     0     0  9.770423179E+01  1.202329931E+02  4.767338179E+02  5.166258053E+02  1.250000000E+02  0.00000E+00  9.000E+00
      21     1     1     2   501   511 -4.331639127E+01 -1.633358880E+01  1.273825462E+03  1.274666389E+03  2.157918644E-05  0.00000E+00  9.000E+00
#rwgt            1           1   2.4231656214499287E-002           2       16416           0
</event>
<event>
      5   9999  3.19816E-02  2.16366E+02 -1.00000E+00  1.10419E-01
       2    -1     0     0   502     0  0.000000000E+00  0.000000000E+00  1.153187263E+03  1.153187263E+03  0.000000000E+00  0.00000E+00  9.000E+00
      21    -1     0     0   501   502  0.000000000E+00  0.000000000E+00 -4.648281326E+02  4.648281326E+02  0.000000000E+00  0.00000E+00  9.000E+00
      25     1     1     2     0     0 -3.710339170E+01 -2.104208854E+02  1.726606060E+02  3.018116889E+02  1.250000000E+02  0.00000E+00  9.000E+00
      25     1     1     2     0     0 -1.771592601E+02  2.405147188E+02  8.547302165E+02  9.140139366E+02  1.250000000E+02  0.00000E+00  9.000E+00
       2     1     1     2   501     0  2.142626518E+02 -3.009383340E+01 -3.390316921E+02  4.021897699E+02  5.394796609E-06  0.00000E+00  9.000E+00
#rwgt            1           1   2.2268858215639627E-002           2       16506           0
</event>
<event>
      5   9999  3.19816E-02  3.38770E+02 -1.00000E+00  1.03905E-01
      21    -1     0     0   502   501  0.000000000E+00  0.000000000E+00  8.805499596E+02  8.805499596E+02  0.000000000E+00  0.00000E+00  9.000E+00
      21    -1     0     0   501   511  0.000000000E+00  0.000000000E+00 -7.024979559E+02  7.024979559E+02  0.000000000E+00  0.00000E+00  9.000E+00
      25     1     1     2     0     0  6.715747530E+02  3.516355072E+02  1.957613243E+02  7.928478258E+02  1.250000000E+02  0.00000E+00  9.000E+00
      25     1     1     2     0     0 -3.461423263E+02 -2.575126535E+02 -3.834223402E+01  4.508019561E+02  1.250000000E+02  0.00000E+00  9.000E+00
      21     1     1     2   502   511 -3.254324268E+02 -9.412285366E+01  2.063291339E+01  3.393981336E+02  1.980453459E-06  0.00000E+00  9.000E+00
#rwgt            2          11   4.0790420193347384E-003           2       16687           0
</event>
<event>
      5   9999  3.19816E-02  6.01325E+01 -1.00000E+00  1.34652E-01
      21    -1     0     0   512   501  0.000000000E+00  0.000000000E+00  3.537854638E+02  3.537854638E+02  0.000000000E+00  0.00000E+00  9.000E+00
      21    -1     0     0   501   502  0.000000000E+00  0.000000000E+00 -2.785427851E+02  2.785427851E+02  0.000000000E+00  0.00000E+00  9.000E+00
      25     1     1     2     0     0 -8.150172284E+01  7.043793528E+01  1.907855612E+02  2.522462367E+02  1.250000000E+02  0.00000E+00  9.000E+00
      25     1     1     2     0     0  1.193476668E+02 -2.370885069E+01 -2.069528719E+02  2.706667071E+02  1.250000000E+02  0.00000E+00  9.000E+00
      21     1     1     2   512   502 -3.784594393E+01 -4.672908459E+01  9.140998935E+01  1.094153050E+02  1.907348633E-06  0.00000E+00  9.000E+00
#rwgt            1           1   2.7398652390188048E-002           2       16752           0
</event>
<event>
      5   9999  3.19816E-02  2.64481E+00 -1.00000E+00  3.14528E-01
      21    -1     0     0   511   501  0.000000000E+00  0.000000000E+00  4.812794941E+02  4.812794941E+02  0.000000000E+00  0.00000E+00  9.000E+00
      21    -1     0     0   501   502  0.000000000E+00  0.000000000E+00 -7.799168016E+02  7.799168016E+02  0.000000000E+00  0.00000E+00  9.000E+00
      25     1     1     2     0     0  8.263899610E-01  8.406469173E+01 -4.895960571E+02  5.122468687E+02  1.250000000E+02  0.00000E+00  9.000E+00
      25     1     1     2     0     0 -5.807246016E-01 -8.669806354E+01 -2.582543482E+02  2.997285435E+02  1.250000000E+02  0.00000E+00  9.000E+00
      21     1     1     2   511   502 -2.456653593E-01  2.633371812E+00  4.492130978E+02  4.492208835E+02  7.629394531E-06  0.00000E+00  9.000E+00
#rwgt            1           1   7.6170280098914814E-002           2       16833           0
</event>
<event>
      5   9999  3.19816E-02  3.36845E+01 -1.00000E+00  1.49626E-01
      21    -1     0     0   502   501  0.000000000E+00  0.000000000E+00  1.303820991E+02  1.303820991E+02  0.000000000E+00  0.00000E+00  9.000E+00
       1    -1     0     0   501     0  0.000000000E+00  0.000000000E+00 -4.628371596E+03  4.628371596E+03  0.000000000E+00  0.00000E+00  9.000E+00
      25     1     1     2     0     0 -3.654762858E+02 -2.582866996E+02 -3.877667205E+02  6.052048944E+02  1.250000000E+02  0.00000E+00  9.000E+00
      25     1     1     2     0     0  3.625899534E+02  2.918473487E+02 -2.683874336E+03  2.726802670E+03  1.250000000E+02  0.00000E+00  9.000E+00
       1     1     1     2   502     0  2.886332420E+00 -3.356064912E+01 -1.426348441E+03  1.426746131E+03  2.642899792E-05  0.00000E+00  9.000E+00
#rwgt            1           1   3.8715740662818313E-002           2       17205           0
</event>
<event>
      5   9999  3.19816E-02  4.39495E+01 -1.00000E+00  1.42349E-01
       2    -1     0     0   502     0  0.000000000E+00  0.000000000E+00  2.012896167E+03  2.012896167E+03  0.000000000E+00  0.00000E+00  9.000E+00
      21    -1     0     0   501   502  0.000000000E+00  0.000000000E+00 -4.099577453E+01  4.099577453E+01  0.000000000E+00  0.00000E+00  9.000E+00
      25     1     1     2     0     0 -8.523592962E+00 -7.331970241E+01  6.302285626E+02  6.467313751E+02  1.250000000E+02  0.00000E+00  9.000E+00
      25     1     1     2     0     0 -2.773675706E+01  4.848534155E+01  1.125031458E+02  1.772064160E+02  1.250000000E+02  0.00000E+00  9.000E+00
       2     1     1     2   501     0  3.626035002E+01  2.483436086E+01  1.229168685E+03  1.229954151E+03  1.525878906E-05  0.00000E+00  9.000E+00
#rwgt            1           1   2.9615283048540560E-002           2       17364           0
</event>
<event>
      5   9999  3.19816E-02  1.98836E+02 -1.00000E+00  1.11740E-01
      21    -1     0     0   502   501  0.000000000E+00  0.000000000E+00  2.751600904E+02  2.751600904E+02  0.000000000E+00  0.00000E+00  9.000E+00
       1    -1     0     0   501     0  0.000000000E+00  0.000000000E+00 -1.814708579E+03  1.814708579E+03  0.000000000E+00  0.00000E+00  9.000E+00
      25     1     1     2     0     0 -1.235545610E+02 -4.704082587E+02 -6.638409643E+02  8.323818146E+02  1.250000000E+02  0.00000E+00  9.000E+00
      25     1     1     2     0     0  2.715555926E+02  6.031918508E+02 -5.225921463E+02  8.522384644E+02  1.250000000E+02  0.00000E+00  9.000E+00
       1     1     1     2   502     0 -1.480010316E+02 -1.327835922E+02 -3.531153782E+02  4.052483906E+02  7.629394531E-06  0.00000E+00  9.000E+00
#rwgt            1           1   2.9139621095043644E-002           2       17430           0
</event>
<event>
      5   9999  3.19816E-02  3.05861E+01 -1.00000E+00  1.52459E-01
      21    -1     0     0   502   501  0.000000000E+00  0.000000000E+00  3.927041878E+02  3.927041878E+02  0.000000000E+00  0.00000E+00  9.000E+00
      21    -1     0     0   501   511  0.000000000E+00  0.000000000E+00 -1.392095277E+02  1.392095277E+02  0.000000000E+00  0.00000E+00  9.000E+00
      25     1     1     2     0     0 -8.901591555E+01  1.395519410E+02  2.035386287E+01  2.084175069E+02  1.250000000E+02  0.00000E+00  9.000E+00
      25     1     1     2     0     0  9.067056967E+01 -1.090106464E+02  2.204220617E+02  2.903710704E+02  1.250000000E+02  0.00000E+00  9.000E+00
      21     1     1     2   502   511 -1.654654122E+00 -3.054129452E+01  1.271873547E+01  3.312513824E+01  5.840038640E-07  0.00000E+00  9.000E+00
#rwgt            1           1   2.8611067576895681E-002           2       17532           0
</event>
<event>
      5   9999  3.19816E-02  1.92221E+02 -1.00000E+00  1.12279E-01
      21    -1     0     0   512   501  0.000000000E+00  0.000000000E+00  1.713881999E+03  1.713881999E+03  0.000000000E+00  0.00000E+00  9.000E+00
      21    -1     0     0   501   502  0.000000000E+00  0.000000000E+00 -1.711601060E+03  1.711601060E+03  0.000000000E+00  0.00000E+00  9.000E+00
      25     1     1     2     0     0 -1.638063349E+02 -1.337133427E+03  8.468745168E+02  1.596113957E+03  1.250000000E+02  0.00000E+00  9.000E+00
      25     1     1     2     0     0  2.691270102E+02  1.176333629E+03 -1.007826677E+03  1.577190466E+03  1.250000000E+02  0.00000E+00  9.000E+00
      21     1     1     2   512   502 -1.053206753E+02  1.607997979E+02  1.632330995E+02  2.521786360E+02  0.000000000E+00  0.00000E+00  9.000E+00
#rwgt            1           1   1.5165533545555760E-002           2       17633           0
</event>
<event>
      5   9999  3.19816E-02  4.06557E+01 -1.00000E+00  1.44404E-01
      21    -1     0     0   502   501  0.000000000E+00  0.000000000E+00  4.218403041E+02  4.218403041E+02  0.000000000E+00  0.00000E+00  9.000E+00
      21    -1     0     0   511   502  0.000000000E+00  0.000000000E+00 -3.314696050E+02  3.314696050E+02  0.000000000E+00  0.00000E+00  9.000E+00
      25     1     1     2     0     0 -2.983964762E+02  6.960132600E+01  1.101846565E+02  3.487842601E+02  1.250000000E+02  0.00000E+00  9.000E+00
      25     1     1     2     0     0  2.619531013E+02 -5.158012708E+01  7.256504669E+01  3.035961508E+02  1.250000000E+02  0.00000E+00  9.000E+00
      21     1     1     2   511   501  3.644337489E+01 -1.802119891E+01 -9.237900419E+01  1.009294982E+02  0.000000000E+00  0.00000E+00  9.000E+00
#rwgt            1           1   2.7741986802533387E-002           2       17784           0
</event>
<event>
      5   9999  3.19816E-02  7.25841E+01 -1.00000E+00  1.30428E-01
      21    -1     0     0   502   501  0.000000000E+00  0.000000000E+00  6.220796348E+02  6.220796348E+02  0.000000000E+00  0.00000E+00  9.000E+00
      21    -1     0     0   501   512  0.000000000E+00  0.000000000E+00 -3.532005860E+02  3.532005860E+02  0.000000000E+00  0.00000E+00  9.000E+00
      25     1     1     2     0     0 -1.961767532E+02 -7.336667738E+00 -1.930105853E+02  3.023528257E+02  1.250000000E+02  0.00000E+00  9.000E+00
      25     1     1     2     0     0  1.386916006E+02  5.165268417E+01  5.355522269E+02  5.695125526E+02  1.250000000E+02  0.00000E+00  9.000E+00
      21     1     1     2   502   512  5.748515260E+01 -4.431601644E+01 -7.366259282E+01  1.034148426E+02  2.132480600E-06  0.00000E+00  9.000E+00
#rwgt            1           1   2.8100351353888355E-002           2       17941           0
</event>
<event>
      5   9999  3.19816E-02  3.70598E+01 -1.00000E+00  1.46927E-01
      21    -1     0     0   502   511  0.000000000E+00  0.000000000E+00  6.103719195E+02  6.103719195E+02  0.000000000E+00  0.00000E+00  9.000E+00
      21    -1     0     0   501   502  0.000000000E+00  0.000000000E+00 -2.995797957E+02  2.995797957E+02  0.000000000E+00  0.00000E+00  9.000E+00
      25     1     1     2     0     0  9.604427715E+01 -3.221654372E+02 -6.169843287E+01  3.639323683E+02  1.250000000E+02  0.00000E+00  9.000E+00
      25     1     1     2     0     0 -9.514700919E+01  2.851165121E+02  2.294785102E+02  3.982835240E+02  1.250000000E+02  0.00000E+00  9.000E+00
      21     1     1     2   501   511 -8.972679607E-01  3.704892507E+01  1.430120464E+02  1.477358228E+02  1.907348633E-06  0.00000E+00  9.000E+00
#rwgt            1           1   2.7536667937129243E-002           2       18015           0
</event>
<event>
      5   9999  3.19816E-02  6.94403E+01 -1.00000E+00  1.31398E-01
      21    -1     0     0   502   501  0.000000000E+00  0.000000000E+00  1.665452911E+03  1.665452911E+03  0.000000000E+00  0.00000E+00  9.000E+00
      21    -1     0     0   501   512  0.000000000E+00  0.000000000E+00 -1.500623472E+02  1.500623472E+02  0.000000000E+00  0.00000E+00  9.000E+00
      25     1     1     2     0     0  9.575481442E+00 -2.050329952E+01  6.850100129E+01  1.443241571E+02  1.250000000E+02  0.00000E+00  9.000E+00
      25     1     1     2     0     0 -7.884142515E+01  2.542041742E+01  1.544299983E+03  1.551563600E+03  1.250000000E+02  0.00000E+00  9.000E+00
      21     1     1     2   502   512  6.926594370E+01 -4.917117893E+00 -9.741042040E+01  1.196275010E+02  1.907348633E-06  0.00000E+00  9.000E+00
#rwgt            1           1   3.1926056497660192E-002           2       18135           0
</event>
<event>
      5   9999  3.19816E-02  1.12187E+02 -1.00000E+00  1.21622E-01
       1    -1     0     0   502     0  0.000000000E+00  0.000000000E+00  4.678279366E+02  4.678279366E+02  0.000000000E+00  0.00000E+00  9.000E+00
      21    -1     0     0   501   502  0.000000000E+00  0.000000000E+00 -6.765319232E+02  6.765319232E+02  0.000000000E+00  0.00000E+00  9.000E+00
      25     1     1     2     0     0  3.674996734E+02 -1.548895657E+02  2.156084897E+02  4.702752474E+02  1.250000000E+02  0.00000E+00  9.000E+00
      25     1     1     2     0     0 -2.802392560E+02  8.437976038E+01 -4.573093827E+02  5.571452737E+02  1.250000000E+02  0.00000E+00  9.000E+00
       1     1     1     2   501     0 -8.726041741E+01  7.050980534E+01  3.299690640E+01  1.169393387E+02  1.784161275E-06  0.00000E+00  9.000E+00
#rwgt            1           1   3.3709001457528205E-002           2       18211           0
</event>
<event>
      5   9999  3.19816E-02  9.82099E+01 -1.00000E+00  1.24182E-01
      21    -1     0     0   502   501  0.000000000E+00  0.000000000E+00  1.269762169E+03  1.269762169E+03  0.000000000E+00  0.00000E+00  9.000E+00
      21    -1     0     0   501   511  0.000000000E+00  0.000000000E+00 -6.742825833E+01  6.742825833E+01  0.000000000E+00  0.00000E+00  9.000E+00
      25     1     1     2     0     0 -1.044182922E+00 -1.452387066E+02  3.199351437E+02  3.729327934E+02  1.250000000E+02  0.00000E+00  9.000E+00
      25     1     1     2     0     0 -3.468145503E+01  2.367202374E+02  7.648272759E+02  8.110641380E+02  1.250000000E+02  0.00000E+00  9.000E+00
      21     1     1     2   502   511  3.572563795E+01 -9.148153077E+01  1.175714913E+02  1.531934961E+02  4.046097457E-06  0.00000E+00  9.000E+00
#rwgt            1           1   2.7210512199373302E-002           2       18288           0
</event>
<event>
      5   9999  3.19816E-02  4.31550E+02 -1.00000E+00  1.00703E-01
       1    -1     0     0   502     0  0.000000000E+00  0.000000000E+00  1.112835922E+03  1.112835922E+03  0.000000000E+00  0.00000E+00  9.000E+00
      21    -1     0     0   501   502  0.000000000E+00  0.000000000E+00 -8.962483378E+02  8.962483378E+02  0.000000000E+00  0.00000E+00  9.000E+00
      25     1     1     2     0     0 -5.048828524E+02 -4.260608121E+02 -4.378563878E+02  8.023576052E+02  1.250000000E+02  0.00000E+00  9.000E+00
      25     1     1     2     0     0  8.733227196E+01  3.170339602E+02 -7.451527007E+01  3.596039253E+02  1.250000000E+02  0.00000E+00  9.000E+00
       1     1     1     2   501     0  4.175505805E+02  1.090268519E+02  7.289592419E+02  8.471227290E+02  1.525878906E-05  0.00000E+00  9.000E+00
#rwgt            2          17   7.6603062035108290E-004           2       18370           0
</event>
<event>
      5   9999  3.19816E-02  9.46448E+01 -1.00000E+00  1.24913E-01
      21    -1     0     0   502   501  0.000000000E+00  0.000000000E+00  1.926552927E+03  1.926552927E+03  0.000000000E+00  0.00000E+00  9.000E+00
      -1    -1     0     0     0   502  0.000000000E+00  0.000000000E+00 -9.702212163E+01  9.702212163E+01  0.000000000E+00  0.00000E+00  9.000E+00
      25     1     1     2     0     0 -3.042259001E+01 -2.397497986E+02  1.045044914E+03  1.079883962E+03  1.250000000E+02  0.00000E+00  9.000E+00
      25     1     1     2     0     0  1.218238441E+02  2.643150997E+02  7.876920977E+02  8.489919680E+02  1.250000000E+02  0.00000E+00  9.000E+00
      -1     1     1     2     0   501 -9.140125406E+01 -2.456530115E+01 -3.206206218E+00  9.469911839E+01  3.064861329E-06  0.00000E+00  9.000E+00
#rwgt            1           1   2.8727526444745494E-002           2       18389           0
</event>
<event>
      5   9999  3.19816E-02  8.92064E+01 -1.00000E+00  1.26101E-01
      21    -1     0     0   502   511  0.000000000E+00  0.000000000E+00  2.067063551E+03  2.067063551E+03  0.000000000E+00  0.00000E+00  9.000E+00
      21    -1     0     0   501   502  0.000000000E+00  0.000000000E+00 -9.707520889E+01  9.707520889E+01  0.000000000E+00  0.00000E+00  9.000E+00
      25     1     1     2     0     0  2.940952380E+02 -2.283634900E+01  5.767633801E+02  6.597685234E+02  1.250000000E+02  0.00000E+00  9.000E+00
      25     1     1     2     0     0 -3.590073409E+02 -3.835347952E+01  6.362458606E+02  7.421529865E+02  1.250000000E+02  0.00000E+00  9.000E+00
      21     1     1     2   501   511  6.491210295E+01  6.118982852E+01  7.569791018E+02  7.622172504E+02  1.525878906E-05  0.00000E+00  9.000E+00
#rwgt            1           1   2.9375260483568720E-002           2       18465           0
</event>
<event>
      5   9999  3.19816E-02  1.26574E+02 -1.00000E+00  1.19393E-01
      21    -1     0     0   502   512  0.000000000E+00  0.000000000E+00  5.422843993E+02  5.422843993E+02  0.000000000E+00  0.00000E+00  9.000E+00
      21    -1     0     0   501   502  0.000000000E+00  0.000000000E+00 -2.089534037E+02  2.089534037E+02  0.000000000E+00  0.00000E+00  9.000E+00
      25     1     1     2     0     0 -3.567326955E+01  1.704218985E+02  2.324737682E+02  3.162044569E+02  1.250000000E+02  0.00000E+00  9.000E+00
      25     1     1     2     0     0  1.615358494E+02 -1.838216780E+02  2.606514304E+00  2.748018083E+02  1.250000000E+02  0.00000E+00  9.000E+00
      21     1     1     2   501   512 -1.258625798E+02  1.339977947E+01  9.825071309E+01  1.602315378E+02  1.907348633E-06  0.00000E+00  9.000E+00
#rwgt            1           1   2.7794721580905540E-002           2       18513           0
</event>
<event>
      5   9999  3.19816E-02  2.07047E+01 -1.00000E+00  1.65138E-01
      21    -1     0     0   502   501  0.000000000E+00  0.000000000E+00  9.245296630E+01  9.245296630E+01  0.000000000E+00  0.00000E+00  9.000E+00
      21    -1     0     0   511   502  0.000000000E+00  0.000000000E+00 -7.570847689E+02  7.570847689E+02  0.000000000E+00  0.00000E+00  9.000E+00
      25     1     1     2     0     0 -9.649013671E+01 -2.039995513E+02 -3.553778297E+02  4.391407123E+02  1.250000000E+02  0.00000E+00  9.000E+00
      25     1     1     2     0     0  7.814330675E+01  1.944037681E+02 -2.578504893E+02  3.549803886E+02  1.250000000E+02  0.00000E+00  9.000E+00
      21     1     1     2   511   501  1.834682996E+01  9.595783205E+00 -5.140348364E+01  5.541663428E+01  6.743495762E-07  0.00000E+00  9.000E+00
#rwgt            1           1   2.7373950441176999E-002           2       18578           0
</event>
<event>
      5   9999  3.19816E-02  2.83379E+01 -1.00000E+00  1.54779E-01
      21    -1     0     0   502   501  0.000000000E+00  0.000000000E+00  1.341166177E+02  1.341166177E+02  0.000000000E+00  0.00000E+00  9.000E+00
      21    -1     0     0   501   512  0.000000000E+00  0.000000000E+00 -7.816413279E+02  7.816413279E+02  0.000000000E+00  0.00000E+00  9.000E+00
      25     1     1     2     0     0  2.462646707E+02 -7.175085040E+01 -1.914148494E+02  3.435973184E+02  1.250000000E+02  0.00000E+00  9.000E+00
      25     1     1     2     0     0 -2.708014936E+02  5.757399470E+01 -3.553413670E+02  4.674833697E+02  1.250000000E+02  0.00000E+00  9.000E+00
      21     1     1     2   502   512  2.453682283E+01  1.417685570E+01 -1.007684937E+02  1.046772575E+02  0.000000000E+00  0.00000E+00  9.000E+00
#rwgt            1           1   3.1519132742412685E-002           2       18690           0
</event>
<event>
      5   9999  3.19816E-02  5.36408E+01 -1.00000E+00  1.37356E-01
      21    -1     0     0   502   501  0.000000000E+00  0.000000000E+00  7.990918911E+01  7.990918911E+01  0.000000000E+00  0.00000E+00  9.000E+00
       2    -1     0     0   501     0  0.000000000E+00  0.000000000E+00 -1.688696763E+03  1.688696763E+03  0.000000000E+00  0.00000E+00  9.000E+00
      25     1     1     2     0     0  1.913392024E+02  2.286174173E+02 -1.135073740E+03  1.180209307E+03  1.250000000E+02  0.00000E+00  9.000E+00
      25     1     1     2     0     0 -1.514022890E+02 -1.928071787E+02 -3.023095011E+02  4.087949312E+02  1.250000000E+02  0.00000E+00  9.000E+00
       2     1     1     2   502     0 -3.993691338E+01 -3.581023855E+01 -1.714043325E+02  1.796017133E+02  1.907348633E-06  0.00000E+00  9.000E+00
#rwgt            1           1   2.5850844201471948E-002           2       18832           0
</event>
<event>
      5   9999  3.19816E-02  3.67258E+02 -1.00000E+00  1.02814E-01
       2    -1     0     0   502     0  0.000000000E+00  0.000000000E+00  1.433000468E+03  1.433000468E+03  0.000000000E+00  0.00000E+00  9.000E+00
      21    -1     0     0   501   502  0.000000000E+00  0.000000000E+00 -4.147764805E+02  4.147764805E+02  0.000000000E+00  0.00000E+00  9.000E+00
      25     1     1     2     0     0 -8.593566451E+01 -1.374771500E+02  2.858336977E+02  3.515832873E+02  1.250000000E+02  0.00000E+00  9.000E+00
      25     1     1     2     0     0 -2.804545451E+02  1.122436482E+02 -2.729404940E+02  4.258813235E+02  1.250000000E+02  0.00000E+00  9.000E+00
       2     1     1     2   501     0  3.663902096E+02  2.523350181E+01  1.005330784E+03  1.070312338E+03  1.078959322E-05  0.00000E+00  9.000E+00
#rwgt            2          18   1.8373828544140641E-003           2       19039           0
</event>
<event>
      5   9999  3.19816E-02  7.90421E+01 -1.00000E+00  1.28603E-01
      -1    -1     0     0     0   501  0.000000000E+00  0.000000000E+00  1.964594454E+02  1.964594454E+02  0.000000000E+00  0.00000E+00  9.000E+00
      21    -1     0     0   501   502  0.000000000E+00  0.000000000E+00 -7.474302055E+02  7.474302055E+02  0.000000000E+00  0.00000E+00  9.000E+00
      25     1     1     2     0     0  1.070419867E+02 -2.148593271E+02 -5.145878922E+02  5.814191399E+02  1.250000000E+02  0.00000E+00  9.000E+00
      25     1     1     2     0     0 -2.848089780E+01  2.061524872E+02 -9.845352273E+01  2.619696655E+02  1.250000000E+02  0.00000E+00  9.000E+00
      -1     1     1     2     0   502 -7.856108892E+01  8.706839899E+00  6.207065491E+01  1.005008455E+02  0.000000000E+00  0.00000E+00  9.000E+00
#rwgt            1           1   2.7543655570729717E-002           2       19058           0
</event>
<event>
      5   9999  3.19816E-02  3.00621E+01 -1.00000E+00  1.52977E-01
      21    -1     0     0   502   511  0.000000000E+00  0.000000000E+00  1.480443283E+02  1.480443283E+02  0.000000000E+00  0.00000E+00  9.000E+00
      21    -1     0     0   501   502  0.000000000E+00  0.000000000E+00 -6.294571798E+02  6.294571798E+02  0.000000000E+00  0.00000E+00  9.000E+00
      25     1     1     2     0     0 -1.086949923E+02  1.530048726E+01  4.012442646E+01  1.711247377E+02  1.250000000E+02  0.00000E+00  9.000E+00
      25     1     1     2     0     0  7.906155340E+01 -2.035928857E+01 -5.469821669E+02  5.669918172E+02  1.250000000E+02  0.00000E+00  9.000E+00
      21     1     1     2   501   511  2.963343891E+01  5.058801311E+00  2.544488890E+01  3.938495326E+01  4.768371582E-07  0.00000E+00  9.000E+00
#rwgt            1           1   3.4025524291451392E-002           2       19205           0
</event>
<event>
      5   9999  3.19816E-02  1.61708E+01 -1.00000E+00  1.74363E-01
      21    -1     0     0   502   501  0.000000000E+00  0.000000000E+00  1.045609784E+02  1.045609784E+02  0.000000000E+00  0.00000E+00  9.000E+00
      21    -1     0     0   512   502  0.000000000E+00  0.000000000E+00 -4.101298508E+02  4.101298508E+02  0.000000000E+00  0.00000E+00  9.000E+00
      25     1     1     2     0     0 -1.042584472E+02  1.030938165E+02 -1.413903956E+02  2.389861979E+02  1.250000000E+02  0.00000E+00  9.000E+00
      25     1     1     2     0     0  9.620165945E+01 -1.171146047E+02 -1.238068366E+02  2.322148202E+02  1.250000000E+02  0.00000E+00  9.000E+00
      21     1     1     2   512   501  8.056787788E+00  1.402078824E+01 -4.037164032E+01  4.348981115E+01  8.259061849E-07  0.00000E+00  9.000E+00
#rwgt            1           1   3.5070760194160014E-002           2       19364           0
</event>
<event>
      5   9999  3.19816E-02  1.28963E+02 -1.00000E+00  1.19055E-01
      21    -1     0     0   502   511  0.000000000E+00  0.000000000E+00  5.057571088E+02  5.057571088E+02  0.000000000E+00  0.00000E+00  9.000E+00
      21    -1     0     0   501   502  0.000000000E+00  0.000000000E+00 -1.151651104E+03  1.151651104E+03  0.000000000E+00  0.00000E+00  9.000E+00
      25     1     1     2     0     0  9.624064211E+01 -5.606737624E+02 -1.191610361E+02  5.945096144E+02  1.250000000E+02  0.00000E+00  9.000E+00
      25     1     1     2     0     0 -1.959614321E+02  6.424486918E+02 -6.045511203E+02  9.122764173E+02  1.250000000E+02  0.00000E+00  9.000E+00
      21     1     1     2   501   511  9.972078998E+01 -8.177492939E+01  7.781816162E+01  1.506221807E+02  1.651812370E-06  0.00000E+00  9.000E+00
#rwgt            1           1   2.3010793019850609E-002           2       19498           0
</event>
<event>
      5   9999  3.19816E-02  2.24811E+01 -1.00000E+00  1.62285E-01
      21    -1     0     0   502   501  0.000000000E+00  0.000000000E+00  9.256465182E+01  9.256465182E+01  0.000000000E+00  0.00000E+00  9.000E+00
      21    -1     0     0   512   502  0.000000000E+00  0.000000000E+00 -7.352028517E+02  7.352028517E+02  0.000000000E+00  0.00000E+00  9.000E+00
      25     1     1     2     0     0  7.327041405E+01  8.672190927E-01  1.874587031E+01  1.461017224E+02  1.250000000E+02  0.00000E+00  9.000E+00
      25     1     1     2     0     0 -5.419157509E+01 -1.275832609E+01 -4.877103049E+02  5.065430319E+02  1.250000000E+02  0.00000E+00  9.000E+00
      21     1     1     2   512   501 -1.907883896E+01  1.189110700E+01 -1.736737653E+02  1.751227492E+02  2.697398305E-06  0.00000E+00  9.000E+00
#rwgt            1           1   2.7798153117681797E-002           2       19577           0
</event>
<event>
      5   9999  3.19816E-02  4.09136E+02 -1.00000E+00  1.01391E-01
      21    -1     0     0   502   511  0.000000000E+00  0.000000000E+00  1.739004767E+03  1.739004767E+03  0.000000000E+00  0.00000E+00  9.000E+00
      21    -1     0     0   501   502  0.000000000E+00  0.000000000E+00 -3.357688047E+02  3.357688047E+02  0.000000000E+00  0.00000E+00  9.000E+00
      25     1     1     2     0     0 -1.553425425E+01 -5.687277022E+02  3.655521858E+02  6.877106316E+02  1.250000000E+02  0.00000E+00  9.000E+00
      25     1     1     2     0     0 -5.792742298E+01  1.662408639E+02 -5.287051503E+01  2.222878821E+02  1.250000000E+02  0.00000E+00  9.000E+00
      21     1     1     2   501   511  7.346167722E+01  4.024868383E+02  1.090554292E+03  1.164775058E+03  1.525878906E-05  0.00000E+00  9.000E+00
#rwgt            1           1   2.8055991702220659E-002           2       19680           0
</event>
<event>
      5   9999  3.19816E-02  2.16384E+02 -1.00000E+00  1.10417E-01
       2    -1     0     0   502     0  0.000000000E+00  0.000000000E+00  1.700013060E+03  1.700013060E+03  0.000000000E+00  0.00000E+00  9.000E+00
      21    -1     0     0   501   502  0.000000000E+00  0.000000000E+00 -3.238144600E+02  3.238144600E+02  0.000000000E+00  0.00000E+00  9.000E+00
      25     1     1     2     0     0 -2.880828578E+01 -1.279798434E+01  7.345806546E+01  1.483738289E+02  1.250000000E+02  0.00000E+00  9.000E+00
      25     1     1     2     0     0 -1.166747495E+02  1.729748431E+02 -2.256765778E+02  3.317954359E+02  1.250000000E+02  0.00000E+00  9.000E+00
       2     1     1     2   501     0  1.454830353E+02 -1.601768587E+02  1.528417113E+03  1.543658256E+03  2.157918644E-05  0.00000E+00  9.000E+00
#rwgt            1           1   2.8292016744898025E-002           2       19710           0
</event>
<event>
      5   9999  3.19816E-02  3.03395E+02 -1.00000E+00  1.05433E-01
      21    -1     0     0   511   501  0.000000000E+00  0.000000000E+00  4.906357907E+02  4.906357907E+02  0.000000000E+00  0.00000E+00  9.000E+00
      21    -1     0     0   501   502  0.000000000E+00  0.000000000E+00 -1.096373608E+03  1.096373608E+03  0.000000000E+00  0.00000E+00  9.000E+00
      25     1     1     2     0     0  3.397500575E+02  1.377952199E+02 -4.637997717E+00  3.873811240E+02  1.250000000E+02  0.00000E+00  9.000E+00
      25     1     1     2     0     0 -2.690934895E+02 -4.328477809E+02 -7.050554500E+02  8.789179115E+02  1.250000000E+02  0.00000E+00  9.000E+00
      21     1     1     2   511   502 -7.065656803E+01  2.950525610E+02  1.039556300E+02  3.207103636E+02  8.422623507E-06  0.00000E+00  9.000E+00
#rwgt            2          11   3.6701999521814741E-003           2       19780           0
</event>
<event>
      5   9999  3.19816E-02  9.08522E+00 -1.00000E+00  2.00700E-01
      21    -1     0     0   502   501  0.000000000E+00  0.000000000E+00  1.095753468E+03  1.095753468E+03  0.000000000E+00  0.00000E+00  9.000E+00
      21    -1     0     0   501   512  0.000000000E+00  0.000000000E+00 -2.443690150E+02  2.443690150E+02  0.000000000E+00  0.00000E+00  9.000E+00
      25     1     1     2     0     0  2.048408108E+01  4.190429287E+02  7.122934961E+02  8.360643506E+02  1.250000000E+02  0.00000E+00  9.000E+00
      25     1     1     2     0     0 -1.140001635E+01 -4.188983560E+02  1.720065336E+02  4.699117371E+02  1.250000000E+02  0.00000E+00  9.000E+00
      21     1     1     2   502   512 -9.084064732E+00 -1.445727077E-01 -3.291557663E+01  3.414639539E+01  0.000000000E+00  0.00000E+00  9.000E+00
#rwgt            1           1   2.6077085649176150E-002           2       19800           0
</event>
<event>
      5   9999  3.19816E-02  1.78078E+01 -1.00000E+00  1.70640E-01
      21    -1     0     0   502   501  0.000000000E+00  0.000000000E+00  1.693437719E+02  1.693437719E+02  0.000000000E+00  0.00000E+00  9.000E+00
      21    -1     0     0   511   502  0.000000000E+00  0.000000000E+00 -2.342888964E+02  2.342888964E+02  0.000000000E+00  0.00000E+00  9.000E+00
      25     1     1     2     0     0 -7.940442919E+00 -1.257066873E+02 -3.547066350E+01  1.809651619E+02  1.250000000E+02  0.00000E+00  9.000E+00
      25     1     1     2     0     0  2.555110746E+01  1.283488587E+02  8.028725452E+00  1.811511774E+02  1.250000000E+02  0.00000E+00  9.000E+00
      21     1     1     2   511   501 -1.761066454E+01 -2.642171434E+00 -3.750318643E+01  4.151632893E+01  4.768371582E-07  0.00000E+00  9.000E+00
#rwgt            1           1   2.6986569440275530E-002           2       20083           0
</event>
<event>
      5   9999  3.19816E-02  1.35719E+02 -1.00000E+00  1.18142E-01
      21    -1     0     0   502   501  0.000000000E+00  0.000000000E+00  1.125033095E+02  1.125033095E+02  0.000000000E+00  0.00000E+00  9.000E+00
       2    -1     0     0   501     0  0.000000000E+00  0.000000000E+00 -2.686295496E+03  2.686295496E+03  0.000000000E+00  0.00000E+00  9.000E+00
      25     1     1     2     0     0 -1.854726115E+02 -6.685840810E+01 -1.550737008E+02  2.802552213E+02  1.250000000E+02  0.00000E+00  9.000E+00
      25     1     1     2     0     0  8.415084471E+01 -2.343928573E+01 -7.329720385E+01  1.691988324E+02  1.250000000E+02  0.00000E+00  9.000E+00
       2     1     1     2   502     0  1.013217668E+02  9.029769383E+01 -2.345421282E+03  2.349344752E+03  4.315837288E-05  0.00000E+00  9.000E+00
#rwgt            1           1   3.1288277397115677E-002           2       20319           0
</event>
<event>
      5   9999  3.19816E-02  3.80938E+02 -1.00000E+00  1.02328E-01
      21    -1     0     0   502   501  0.000000000E+00  0.000000000E+00  3.840615573E+02  3.840615573E+02  0.000000000E+00  0.00000E+00  9.000E+00
      21    -1     0     0   511   502  0.000000000E+00  0.000000000E+00 -1.784662916E+03  1.784662916E+03  0.000000000E+00  0.00000E+00  9.000E+00
      25     1     1     2     0     0  1.644125383E+02 -6.865444420E+01  2.421712307E+02  3.256022427E+02  1.250000000E+02  0.00000E+00  9.000E+00
      25     1     1     2     0     0 -3.455088114E+02 -2.664837624E+02 -9.350276587E+02  1.039370799E+03  1.250000000E+02  0.00000E+00  9.000E+00
      21     1     1     2   511   501  1.810962732E+02  3.351382066E+02 -7.077449311E+02  8.037514325E+02  1.321449896E-05  0.00000E+00  9.000E+00
#rwgt            1           1   2.9885952903573820E-002           2       20362           0
</event>
<event>
      5   9999  3.19816E-02  3.12660E+01 -1.00000E+00  1.51803E-01
      21    -1     0     0   502   501  0.000000000E+00  0.000000000E+00  6.523384733E+01  6.523384733E+01  0.000000000E+00  0.00000E+00  9.000E+00
       2    -1     0     0   501     0  0.000000000E+00  0.000000000E+00 -1.653971821E+03  1.653971821E+03  0.000000000E+00  0.00000E+00  9.000E+00
      25     1     1     2     0     0  2.957063610E+02 -1.074392259E+01 -8.942480514E+02  9.501906447E+02  1.250000000E+02  0.00000E+00  9.000E+00
      25     1     1     2     0     0 -2.652441767E+02  1.778795486E+01 -5.775297196E+02  6.479478850E+02  1.250000000E+02  0.00000E+00  9.000E+00
       2     1     1     2   502     0 -3.046218428E+01 -7.044032273E+00 -1.169602030E+02  1.210671390E+02  1.348699152E-06  0.00000E+00  9.000E+00
#rwgt            1           1   2.7384811858667066E-002           2       20410           0
</event>
<event>
      5   9999  3.19816E-02  4.55620E+01 -1.00000E+00  1.41419E-01
      21    -1     0     0   502   501  0.000000000E+00  0.000000000E+00  5.244564977E+01  5.244564977E+01  0.000000000E+00  0.00000E+00  9.000E+00
      21    -1     0     0   501   511  0.000000000E+00  0.000000000E+00 -1.336404702E+03  1.336404702E+03  0.000000000E+00  0.00000E+00  9.000E+00
      25     1     1     2     0     0  2.337474509E+01  9.649216835E+01 -1.027447251E+03  1.039774000E+03  1.250000000E+02  0.00000E+00  9.000E+00
      25     1     1     2     0     0  2.644940959E+00 -5.909069297E+01 -6.607161805E+01  1.532617513E+02  1.250000000E+02  0.00000E+00  9.000E+00
      21     1     1     2   502   511 -2.601968605E+01 -3.740147538E+01 -1.904401832E+02  1.958146006E+02  0.000000000E+00  0.00000E+00  9.000E+00
#rwgt            1           1   2.4558379997946453E-002           2       20546           0
</event>
<event>
      5   9999  3.19816E-02  5.43088E+02 -1.00000E+00  9.78427E-02
      21    -1     0     0   512   501  0.000000000E+00  0.000000000E+00  7.387952396E+02  7.387952396E+02  0.000000000E+00  0.00000E+00  9.000E+00
      21    -1     0     0   501   502  0.000000000E+00  0.000000000E+00 -1.878840348E+03  1.878840348E+03  0.000000000E+00  0.00000E+00  9.000E+00
      25     1     1     2     0     0 -2.156944108E+01  2.307170670E+02 -1.375595599E+03  1.400565549E+03  1.250000000E+02  0.00000E+00  9.000E+00
      25     1     1     2     0     0 -5.208890352E+02 -2.568519203E+02 -6.287435846E+01  5.973913968E+02  1.250000000E+02  0.00000E+00  9.000E+00
      21     1     1     2   512   502  5.424584763E+02  2.613485330E+01  2.984248486E+02  6.196786420E+02  6.607249480E-06  0.00000E+00  9.000E+00
#rwgt            2          11   2.5859094642800597E-003           2       20875           0
</event>
<event>
      5   9999  3.19816E-02  7.35507E+01 -1.00000E+00  1.30142E-01
      21    -1     0     0   502   511  0.000000000E+00  0.000000000E+00  2.646460379E+02  2.646460379E+02  0.000000000E+00  0.00000E+00  9.000E+00
      21    -1     0     0   501   502  0.000000000E+00  0.000000000E+00 -7.320485441E+02  7.320485441E+02  0.000000000E+00  0.00000E+00  9.000E+00
      25     1     1     2     0     0  1.324236999E+02  2.325012910E+02 -1.891085968E+02  3.506849697E+02  1.250000000E+02  0.00000E+00  9.000E+00
      25     1     1     2     0     0 -1.152462122E+02 -1.609845754E+02 -4.231162584E+02  4.835804908E+02  1.250000000E+02  0.00000E+00  9.000E+00
      21     1     1     2   501   511 -1.717748769E+01 -7.151671556E+01  1.448223491E+02  1.624291214E+02  0.000000000E+00  0.00000E+00  9.000E+00
#rwgt            1           1   2.8116255464894720E-002           2       20910           0
</event>
<event>
      5   9999  3.19816E-02  3.86443E+01 -1.00000E+00  1.45775E-01
      21    -1     0     0   502   512  0.000000000E+00  0.000000000E+00  1.975618677E+02  1.975618677E+02  0.000000000E+00  0.00000E+00  9.000E+00
      21    -1     0     0   501   502  0.000000000E+00  0.000000000E+00 -1.076691097E+03  1.076691097E+03  0.000000000E+00  0.00000E+00  9.000E+00
      25     1     1     2     0     0  1.903516970E+02  3.590553848E+02 -4.427631807E+02  6.138556606E+02  1.250000000E+02  0.00000E+00  9.000E+00
      25     1     1     2     0     0 -2.282852960E+02 -3.664324165E+02 -4.284472919E+02  6.209500577E+02  1.250000000E+02  0.00000E+00  9.000E+00
      21     1     1     2   501   512  3.793359904E+01  7.377031657E+00 -7.918756499E+00  3.944724625E+01  1.685873940E-07  0.00000E+00  9.000E+00
#rwgt            1           1   2.8039226422274004E-002           2       20999           0
</event>
<event>
      5   9999  3.19816E-02  4.79187E+01 -1.00000E+00  1.40137E-01
      21    -1     0     0   502   501  0.000000000E+00  0.000000000E+00  2.045809622E+02  2.045809622E+02  0.000000000E+00  0.00000E+00  9.000E+00
      21    -1     0     0   511   502  0.000000000E+00  0.000000000E+00 -6.229518439E+02  6.229518439E+02  0.000000000E+00  0.00000E+00  9.000E+00
      25     1     1     2     0     0  1.978670919E+02  1.187588050E+02 -5.715127664E+01  2.686006482E+02  1.250000000E+02  0.00000E+00  9.000E+00
      25     1     1     2     0     0 -1.549034223E+02 -9.753801276E+01 -2.932094894E+01  2.235921560E+02  1.250000000E+02  0.00000E+00  9.000E+00
      21     1     1     2   511   501 -4.296366958E+01 -2.122079225E+01 -3.318986561E+02  3.353400019E+02  5.394796609E-06  0.00000E+00  9.000E+00
#rwgt            1           1   2.6242694431336162E-002           2       21096           0
</event>
<event>
      5   9999  3.19816E-02  1.47171E+02 -1.00000E+00  1.16722E-01
      21    -1     0     0   502   501  0.000000000E+00  0.000000000E+00  8.242427396E+02  8.242427396E+02  0.000000000E+00  0.00000E+00  9.000E+00
      21    -1     0     0   501   512  0.000000000E+00  0.000000000E+00 -1.181709312E+03  1.181709312E+03  0.000000000E+00  0.00000E+00  9.000E+00
      25     1     1     2     0     0 -4.287932326E+02 -5.908774117E+02  4.192952186E+02  8.511364358E+02  1.250000000E+02  0.00000E+00  9.000E+00
      25     1     1     2     0     0  2.858911406E+02  6.260648418E+02 -5.774897816E+02  9.070889583E+02  1.250000000E+02  0.00000E+00  9.000E+00
      21     1     1     2   502   512  1.429020920E+02 -3.518743007E+01 -1.992720097E+02  2.477266578E+02  0.000000000E+00  0.00000E+00  9.000E+00
#rwgt            1           1   3.3861550539371579E-002           2       21182           0
</event>
<event>
      5   9999  3.19816E-02  1.17360E+01 -1.00000E+00  1.88049E-01
      21    -1     0     0   511   501  0.000000000E+00  0.000000000E+00  5.300803425E+02  5.300803425E+02  0.000000000E+00  0.00000E+00  9.000E+00
      21    -1     0     0   501   502  0.000000000E+00  0.000000000E+00 -6.471830482E+01  6.471830482E+01  0.000000000E+00  0.00000E+00  9.000E+00
      25     1     1     2     0     0  7.503394382E+01  6.326739654E+01  9.412363141E+01  1.847081866E+02  1.250000000E+02  0.00000E+00  9.000E+00
      25     1     1     2     0     0 -8.564926752E+01 -5.826242445E+01  3.416381272E+02  3.782484859E+02  1.250000000E+02  0.00000E+00  9.000E+00
      21     1     1     2   511   502  1.061532370E+01 -5.004972090E+00  2.960027908E+01  3.184197488E+01  4.768371582E-07  0.00000E+00  9.000E+00
#rwgt            1           1   2.4948188864578457E-002           2       21268           0
</event>
<event>
      5   9999  3.19816E-02  2.82153E+02 -1.00000E+00  1.06465E-01
      21    -1     0     0   502   501  0.000000000E+00  0.000000000E+00  2.783406968E+02  2.783406968E+02  0.000000000E+00  0.00000E+00  9.000E+00
       2    -1     0     0   501     0  0.000000000E+00  0.000000000E+00 -3.299924830E+03  3.299924830E+03  0.000000000E+00  0.00000E+00  9.000E+00
      25     1     1     2     0     0  6.369164460E+01 -3.671483899E+02  7.244954418E+01  3.996604837E+02  1.250000000E+02  0.00000E+00  9.000E+00
      25     1     1     2     0     0 -2.973779497E+02  2.090317572E+02 -1.111384211E+03  1.175979500E+03  1.250000000E+02  0.00000E+00  9.000E+00
       2     1     1     2   502     0  2.336863051E+02  1.581166327E+02 -1.982649466E+03  2.002625543E+03  2.157918644E-05  0.00000E+00  9.000E+00
#rwgt            1           1   3.2869407734378631E-002           2       21466           0
</event>
<event>
      5   9999  3.19816E-02  1.46492E+02 -1.00000E+00  1.16802E-01
       1    -1     0     0   502     0  0.000000000E+00  0.000000000E+00  3.090151478E+03  3.090151478E+03  0.000000000E+00  0.00000E+00  9.000E+00
      21    -1     0     0   501   502  0.000000000E+00  0.000000000E+00 -2.024891037E+02  2.024891037E+02  0.000000000E+00  0.00000E+00  9.000E+00
      25     1     1     2     0     0  1.797293313E+01 -1.736290622E+02 -1.137964539E+02  2.429911737E+02  1.250000000E+02  0.00000E+00  9.000E+00
      25     1     1     2     0     0  6.059489066E-02  2.825111359E+01  1.626831042E+02  2.070964063E+02  1.250000000E+02  0.00000E+00  9.000E+00
       1     1     1     2   501     0 -1.803352802E+01  1.453779487E+02  2.838775724E+03  2.842553002E+03  5.285799584E-05  0.00000E+00  9.000E+00
#rwgt            1           1   2.4966176652493847E-002           2       21534           0
</event>
<event>
      5   9999  3.19816E-02  1.85784E+01 -1.00000E+00  1.69055E-01
      21    -1     0     0   502   511  0.000000000E+00  0.000000000E+00  3.092419817E+02  3.092419817E+02  0.000000000E+00  0.00000E+00  9.000E+00
      21    -1     0     0   501   502  0.000000000E+00  0.000000000E+00 -3.991498608E+02  3.991498608E+02  0.000000000E+00  0.00000E+00  9.000E+00
      25     1     1     2     0     0  4.174676384E+01  1.480731906E+02  2.371747611E+02  3.091040753E+02  1.250000000E+02  0.00000E+00  9.000E+00
      25     1     1     2     0     0 -2.915376478E+01 -1.344140699E+02 -3.316321747E+02  3.801604707E+02  1.250000000E+02  0.00000E+00  9.000E+00
      21     1     1     2   501   511 -1.259299905E+01 -1.365912071E+01  4.549534494E+00  1.912729640E+01  1.332800375E-07  0.00000E+00  9.000E+00
#rwgt            1           1   2.2223769640339296E-002           2       21563           0
</event>
<event>
      5   9999  3.19816E-02  1.11770E+01 -1.00000E+00  1.90332E-01
      21    -1     0     0   502   501  0.000000000E+00  0.000000000E+00  4.658634099E+01  4.658634099E+01  0.000000000E+00  0.00000E+00  9.000E+00
      21    -1     0     0   501   512  0.000000000E+00  0.000000000E+00 -5.770095502E+02  5.770095502E+02  0.000000000E+00  0.00000E+00  9.000E+00
      25     1     1     2     0     0  7.578573623E+01 -6.471124842E+01 -2.603434456E+02  3.055073374E+02  1.250000000E+02  0.00000E+00  9.000E+00
      25     1     1     2     0     0 -6.465169531E+01  6.568968961E+01 -2.386887639E+02  2.847671031E+02  1.250000000E+02  0.00000E+00  9.000E+00
      21     1     1     2   502   512 -1.113404092E+01 -9.784411972E-01 -3.139099967E+01  3.332145066E+01  5.840038640E-07  0.00000E+00  9.000E+00
#rwgt            1           1   8.3731101851102038E-002           2       21797           0
</event>
<event>
      5   9999  3.19816E-02  9.39355E+01 -1.00000E+00  1.25062E-01
      21    -1     0     0   502   511  0.000000000E+00  0.000000000E+00  1.878068689E+02  1.878068689E+02  0.000000000E+00  0.00000E+00  9.000E+00
      21    -1     0     0   501   502  0.000000000E+00  0.000000000E+00 -3.407464093E+02  3.407464093E+02  0.000000000E+00  0.00000E+00  9.000E+00
      25     1     1     2     0     0  1.101662518E+02 -2.960430206E+01 -2.281857220E+02  2.840893195E+02  1.250000000E+02  0.00000E+00  9.000E+00
      25     1     1     2     0     0 -1.752052187E+01  4.511692910E+01  2.011136983E+01  1.355432520E+02  1.250000000E+02  0.00000E+00  9.000E+00
      21     1     1     2   501   511 -9.264572990E+01 -1.551262704E+01  5.513481185E+01  1.089207067E+02  1.907348633E-06  0.00000E+00  9.000E+00
#rwgt            2          11   2.3331614546203976E-003           2       21999           0
</event>
<event>
      5   9999  3.19816E-02  1.81884E+02 -1.00000E+00  1.13170E-01
      21    -1     0     0   512   501  0.000000000E+00  0.000000000E+00  1.478546368E+03  1.478546368E+03  0.000000000E+00  0.00000E+00  9.000E+00
      21    -1     0     0   501   502  0.000000000E+00  0.000000000E+00 -1.968359490E+02  1.968359490E+02  0.000000000E+00  0.00000E+00  9.000E+00
      25     1     1     2     0     0  4.011514038E+02 -2.274659613E+02  5.443056418E+02  7.242629660E+02  1.250000000E+02  0.00000E+00  9.000E+00
      25     1     1     2     0     0 -2.749410391E+02  9.649775243E+01  1.795728059E+02  3.643841157E+02  1.250000000E+02  0.00000E+00  9.000E+00
      21     1     1     2   512   502 -1.262103647E+02  1.309682088E+02  5.578319711E+02  5.867352349E+02  1.078959322E-05  0.00000E+00  9.000E+00
#rwgt            1           1   3.2274485512043725E-002           2       22019           0
</event>
<event>
      5   9999  3.19816E-02  5.40063E+02 -1.00000E+00  9.79102E-02
      21    -1     0     0   502   511  0.000000000E+00  0.000000000E+00  1.880909340E+03  1.880909340E+03  0.000000000E+00  0.00000E+00  9.000E+00
      21    -1     0     0   501   502  0.000000000E+00  0.000000000E+00 -5.727735816E+02  5.727735816E+02  0.000000000E+00  0.00000E+00  9.000E+00
      25     1     1     2     0     0  8.262186184E+02  3.006856818E+02  3.274288568E+01  8.886766460E+02  1.250000000E+02  0.00000E+00  9.000E+00
      25     1     1     2     0     0 -3.040748439E+02 -1.627205326E+02  5.051498431E+02  6.242922765E+02  1.250000000E+02  0.00000E+00  9.000E+00
      21     1     1     2   501   511 -5.221437744E+02 -1.379651491E+02  7.702430297E+02  9.407139993E+02  1.525878906E-05  0.00000E+00  9.000E+00
#rwgt            2          11   1.4164026609982310E-003           2       22129           0
</event>
<event>
      5   9999  3.19816E-02  1.58470E+02 -1.00000E+00  1.15456E-01
      21    -1     0     0   502   501  0.000000000E+00  0.000000000E+00  1.992474375E+03  1.992474375E+03  0.000000000E+00  0.00000E+00  9.000E+00
      21    -1     0     0   501   512  0.000000000E+00  0.000000000E+00 -1.137117650E+02  1.137117650E+02  0.000000000E+00  0.00000E+00  9.000E+00
      25     1     1     2     0     0  3.566122799E+02 -9.138230102E+01  8.563503429E+02  9.404700702E+02  1.250000000E+02  0.00000E+00  9.000E+00
      25     1     1     2     0     0 -2.086575958E+02  1.481462172E+02  9.494718609E+02  9.912654078E+02  1.250000000E+02  0.00000E+00  9.000E+00
      21     1     1     2   502   512 -1.479546841E+02 -5.676391617E+01  7.294040651E+01  1.744506625E+02  9.536743164E-07  0.00000E+00  9.000E+00
#rwgt            1           1   3.9750018237833966E-002           2       22149           0
</event>
<event>
      5   9999  3.19816E-02  1.63819E+02 -1.00000E+00  1.14897E-01
      21    -1     0     0   502   501  0.000000000E+00  0.000000000E+00  4.760894888E+02  4.760894888E+02  0.000000000E+00  0.00000E+00  9.000E+00
      21    -1     0     0   501   511  0.000000000E+00  0.000000000E+00 -7.309997995E+02  7.309997995E+02  0.000000000E+00  0.00000E+00  9.000E+00
      25     1     1     2     0     0 -8.442527898E+01 -1.975062346E+02 -4.824540880E+02  5.426999977E+02  1.250000000E+02  0.00000E+00  9.000E+00
      25     1     1     2     0     0  7.087693831E+01  3.607644926E+02  2.945453337E+02  4.873976950E+02  1.250000000E+02  0.00000E+00  9.000E+00
      21     1     1     2   502   511  1.354834067E+01 -1.632582580E+02 -6.700155639E+01  1.769915956E+02  9.536743164E-07  0.00000E+00  9.000E+00
#rwgt            1           1   2.4754138903697688E-002           2       22231           0
</event>
<event>
      5   9999  3.19816E-02  1.02011E+02 -1.00000E+00  1.23440E-01
      21    -1     0     0   502   512  0.000000000E+00  0.000000000E+00  3.070732273E+02  3.070732273E+02  0.000000000E+00  0.00000E+00  9.000E+00
      21    -1     0     0   501   502  0.000000000E+00  0.000000000E+00 -4.384425757E+02  4.384425757E+02  0.000000000E+00  0.00000E+00  9.000E+00
      25     1     1     2     0     0  1.563453793E+02 -8.479509361E+01 -2.332176195E+02  3.188252556E+02  1.250000000E+02  0.00000E+00  9.000E+00
      25     1     1     2     0     0 -1.561555920E+02  1.868059004E+02 -1.183896600E+01  2.739455685E+02  1.250000000E+02  0.00000E+00  9.000E+00
      21     1     1     2   501   512 -1.897872194E-01 -1.020108068E+02  1.136872372E+02  1.527449790E+02  2.697398305E-06  0.00000E+00  9.000E+00
#rwgt            2          11   2.4798503335835840E-003           2       22508           0
</event>
<event>
      5   9999  3.19816E-02  2.33493E+01 -1.00000E+00  1.61006E-01
      21    -1     0     0   502   511  0.000000000E+00  0.000000000E+00  6.959353998E+02  6.959353998E+02  0.000000000E+00  0.00000E+00  9.000E+00
      21    -1     0     0   501   502  0.000000000E+00  0.000000000E+00 -1.222081847E+02  1.222081847E+02  0.000000000E+00  0.00000E+00  9.000E+00
      25     1     1     2     0     0  8.023121016E+01  6.969901586E+01 -3.240543035E+01  1.672426734E+02  1.250000000E+02  0.00000E+00  9.000E+00
      25     1     1     2     0     0 -9.878136940E+01 -5.551877779E+01  3.024756143E+02  3.463475002E+02  1.250000000E+02  0.00000E+00  9.000E+00
      21     1     1     2   501   511  1.855015924E+01 -1.418023806E+01  3.036570311E+02  3.045534109E+02  0.000000000E+00  0.00000E+00  9.000E+00
#rwgt            1           1   2.5519515302493752E-002           2       22528           0
</event>
<event>
      5   9999  3.19816E-02  1.27349E+02 -1.00000E+00  1.19283E-01
      21    -1     0     0   502   501  0.000000000E+00  0.000000000E+00  6.434908043E+02  6.434908043E+02  0.000000000E+00  0.00000E+00  9.000E+00
      -2    -1     0     0     0   502  0.000000000E+00  0.000000000E+00 -1.002146638E+03  1.002146638E+03  0.000000000E+00  0.00000E+00  9.000E+00
      25     1     1     2     0     0  1.304984407E+02  4.604208172E+01  2.097708317E+02  2.806751113E+02  1.250000000E+02  0.00000E+00  9.000E+00
      25     1     1     2     0     0 -1.907423864E+02 -1.582401905E+02  3.449435396E+02  4.427568875E+02  1.250000000E+02  0.00000E+00  9.000E+00
      -2     1     1     2     0   501  6.024394569E+01  1.121981088E+02 -9.133702054E+02  9.222054439E+02  1.525878906E-05  0.00000E+00  9.000E+00
#rwgt            1           1   1.4211632126714826E-002           2       22605           0
</event>
<event>
      5   9999  3.19816E-02  7.27744E+01 -1.00000E+00  1.30371E-01
      21    -1     0     0   502   511  0.000000000E+00  0.000000000E+00  2.774569230E+02  2.774569230E+02  0.000000000E+00  0.00000E+00  9.000E+00
      21    -1     0     0   501   502  0.000000000E+00  0.000000000E+00 -4.770901844E+02  4.770901844E+02  0.000000000E+00  0.00000E+00  9.000E+00
      25     1     1     2     0     0  2.346189731E+02  1.069503511E+02  1.004085240E+02  3.036302222E+02  1.250000000E+02  0.00000E+00  9.000E+00
      25     1     1     2     0     0 -2.001081166E+02 -4.287916114E+01 -2.917718859E+02  3.776740846E+02  1.250000000E+02  0.00000E+00  9.000E+00
      21     1     1     2   501   511 -3.451085646E+01 -6.407118999E+01 -8.269899592E+00  7.324280060E+01  1.450243599E-06  0.00000E+00  9.000E+00
#rwgt            1           1   2.8886315705937492E-002           2       22669           0
</event>
<event>
      5   9999  3.19816E-02  2.98628E+01 -1.00000E+00  1.53178E-01
      21    -1     0     0   502   501  0.000000000E+00  0.000000000E+00  6.679505722E+01  6.679505722E+01  0.000000000E+00  0.00000E+00  9.000E+00
      21    -1     0     0   512   502  0.000000000E+00  0.000000000E+00 -1.642527488E+03  1.642527488E+03  0.000000000E+00  0.00000E+00  9.000E+00
      25     1     1     2     0     0 -3.986353160E+01 -2.704878063E+02 -9.528023243E+02  9.991046110E+02  1.250000000E+02  0.00000E+00  9.000E+00
      25     1     1     2     0     0  5.762783608E+01  2.464833174E+02 -4.261117409E+02  5.111469544E+02  1.250000000E+02  0.00000E+00  9.000E+00
      21     1     1     2   512   501 -1.776430449E+01  2.400448891E+01 -1.968183660E+02  1.990709803E+02  2.697398305E-06  0.00000E+00  9.000E+00
#rwgt            1           1   2.9138739466516426E-002           2       22745           0
</event>
<event>
      5   9999  3.19816E-02  1.58941E+02 -1.00000E+00  1.15406E-01
      21    -1     0     0   511   501  0.000000000E+00  0.000000000E+00  8.339434733E+02  8.339434733E+02  0.000000000E+00  0.00000E+00  9.000E+00
      21    -1     0     0   501   502  0.000000000E+00  0.000000000E+00 -3.208398220E+02  3.208398220E+02  0.000000000E+00  0.00000E+00  9.000E+00
      25     1     1     2     0     0 -7.375994422E+01  3.047840121E+02 -1.533259541E+02  3.707663302E+02  1.250000000E+02  0.00000E+00  9.000E+00
      25     1     1     2     0     0 -5.656508244E+01 -2.138032743E+02  4.108780528E+02  4.830706190E+02  1.250000000E+02  0.00000E+00  9.000E+00
      21     1     1     2   511   502  1.303250267E+02 -9.098073788E+01  2.555515526E+02  3.009463462E+02  5.394796609E-06  0.00000E+00  9.000E+00
#rwgt            1           1   3.0402505421016870E-002           2       22880           0
</event>
<event>
      5   9999  3.19816E-02  6.74904E+01 -1.00000E+00  1.32029E-01
      21    -1     0     0   502   501  0.000000000E+00  0.000000000E+00  1.488666237E+03  1.488666237E+03  0.000000000E+00  0.00000E+00  9.000E+00
       2    -1     0     0   501     0  0.000000000E+00  0.000000000E+00 -1.702943403E+03  1.702943403E+03  0.000000000E+00  0.00000E+00  9.000E+00
      25     1     1     2     0     0  5.575123682E+02  1.811622880E+02 -1.426644993E+03  1.547443295E+03  1.250000000E+02  0.00000E+00  9.000E+00
      25     1     1     2     0     0 -6.181894232E+02 -2.107131699E+02  1.342170256E+03  1.497866549E+03  1.250000000E+02  0.00000E+00  9.000E+00
       2     1     1     2   502     0  6.067705506E+01  2.955088183E+01 -1.298024289E+02  1.462997955E+02  2.697398305E-06  0.00000E+00  9.000E+00
#rwgt            1           1   4.4000844749869823E-002           2       22944           0
</event>
<event>
      5   9999  3.19816E-02  5.39499E+01 -1.00000E+00  1.37217E-01
      21    -1     0     0   502   501  0.000000000E+00  0.000000000E+00  5.341516698E+02  5.341516698E+02  0.000000000E+00  0.00000E+00  9.000E+00
      21    -1     0     0   501   511  0.000000000E+00  0.000000000E+00 -1.307011110E+02  1.307011110E+02  0.000000000E+00  0.00000E+00  9.000E+00
      25     1     1     2     0     0 -6.883055592E+01 -5.823758422E+01  4.194499239E+02  4.468696682E+02  1.250000000E+02  0.00000E+00  9.000E+00
      25     1     1     2     0     0  4.541938320E+01  9.631908739E+00  4.099540506E+01  1.395038253E+02  1.250000000E+02  0.00000E+00  9.000E+00
      21     1     1     2   502   511  2.341117272E+01  4.860567548E+01 -5.699477023E+01  7.847928727E+01  1.784161275E-06  0.00000E+00  9.000E+00
#rwgt            1           1   2.9687609294953298E-002           2       23119           0
</event>
<event>
      5   9999  3.19816E-02  6.37515E+01 -1.00000E+00  1.33311E-01
      21    -1     0     0   502   501  0.000000000E+00  0.000000000E+00  4.831534363E+02  4.831534363E+02  0.000000000E+00  0.00000E+00  9.000E+00
      21    -1     0     0   512   502  0.000000000E+00  0.000000000E+00 -1.279642987E+03  1.279642987E+03  0.000000000E+00  0.00000E+00  9.000E+00
      25     1     1     2     0     0  2.332897647E+02  5.605229013E+02 -6.854591186E+01  6.236453954E+02  1.250000000E+02  0.00000E+00  9.000E+00
      25     1     1     2     0     0 -2.821017292E+02 -6.015307278E+02 -3.603933927E+02  7.661129158E+02  1.250000000E+02  0.00000E+00  9.000E+00
      21     1     1     2   512   501  4.881196448E+01  4.100782656E+01 -3.675502456E+02  3.730381117E+02  5.394796609E-06  0.00000E+00  9.000E+00
#rwgt            1           1   2.7427944983063706E-002           2       23191           0
</event>
<event>
      5   9999  3.19816E-02  1.73993E+02 -1.00000E+00  1.13896E-01
      21    -1     0     0   511   501  0.000000000E+00  0.000000000E+00  5.984800658E+02  5.984800658E+02  0.000000000E+00  0.00000E+00  9.000E+00
      21    -1     0     0   501   502  0.000000000E+00  0.000000000E+00 -4.317977828E+02  4.317977828E+02  0.000000000E+00  0.00000E+00  9.000E+00
      25     1     1     2     0     0  1.937721962E+02 -1.743408429E+02 -2.173365166E+02  3.616663587E+02  1.250000000E+02  0.00000E+00  9.000E+00
      25     1     1     2     0     0 -7.709099402E+01  4.527036037E+01 -7.984876659E+01  1.731856011E+02  1.250000000E+02  0.00000E+00  9.000E+00
      21     1     1     2   511   502 -1.166812022E+02  1.290704825E+02  4.638675662E+02  4.954258889E+02  0.000000000E+00  0.00000E+00  9.000E+00
#rwgt            1           1   2.7852250661677645E-002           2       23350           0
</event>
<event>
      5   9999  3.19816E-02  2.72844E+01 -1.00000E+00  1.55958E-01
      21    -1     0     0   512   501  0.000000000E+00  0.000000000E+00  2.971838631E+02  2.971838631E+02  0.000000000E+00  0.00000E+00  9.000E+00
      21    -1     0     0   501   502  0.000000000E+00  0.000000000E+00 -1.985869774E+02  1.985869774E+02  0.000000000E+00  0.00000E+00  9.000E+00
      25     1     1     2     0     0  1.203269551E+02 -8.027948157E+01  5.301675745E+01  1.983914007E+02  1.250000000E+02  0.00000E+00  9.000E+00
      25     1     1     2     0     0 -1.346011307E+02  5.702684820E+01 -4.938006971E+01  1.985772321E+02  1.250000000E+02  0.00000E+00  9.000E+00
      21     1     1     2   512   502  1.427417561E+01  2.325263338E+01  9.496019796E+01  9.880220770E+01  1.348699152E-06  0.00000E+00  9.000E+00
#rwgt            1           1   2.6691377470021298E-002           2       23392           0
</event>
<event>
      5   9999  3.19816E-02  1.46815E+02 -1.00000E+00  1.16764E-01
      21    -1     0     0   502   511  0.000000000E+00  0.000000000E+00  3.608412214E+02  3.608412214E+02  0.000000000E+00  0.00000E+00  9.000E+00
      21    -1     0     0   501   502  0.000000000E+00  0.000000000E+00 -1.193052096E+03  1.193052096E+03  0.000000000E+00  0.00000E+00  9.000E+00
      25     1     1     2     0     0  1.661724400E+01  1.138268636E+02 -3.422137552E+02  3.820575113E+02  1.250000000E+02  0.00000E+00  9.000E+00
      25     1     1     2     0     0  1.291917252E+02 -9.667129471E+01 -8.017069511E+02  8.272816187E+02  1.250000000E+02  0.00000E+00  9.000E+00
      21     1     1     2   501   511 -1.458089692E+02 -1.715556892E+01  3.117098316E+02  3.445541875E+02  8.529922400E-06  0.00000E+00  9.000E+00
#rwgt            1           1   3.3632132341167971E-002           2       23514           0
</event>
<event>
      5   9999  3.19816E-02  1.76102E+02 -1.00000E+00  1.13698E-01
      21    -1     0     0   502   512  0.000000000E+00  0.000000000E+00  4.076911268E+02  4.076911268E+02  0.000000000E+00  0.00000E+00  9.000E+00
      21    -1     0     0   501   502  0.000000000E+00  0.000000000E+00 -5.752793469E+02  5.752793469E+02  0.000000000E+00  0.00000E+00  9.000E+00
      25     1     1     2     0     0  5.659088460E+00  3.897698072E+02 -2.383263402E+02  4.736844649E+02  1.250000000E+02  0.00000E+00  9.000E+00
      25     1     1     2     0     0  8.743471234E+01 -2.402857234E+02 -5.885567679E+01  2.906390347E+02  1.250000000E+02  0.00000E+00  9.000E+00
      21     1     1     2   501   512 -9.309380080E+01 -1.494840838E+02  1.295937970E+02  2.186469741E+02  3.814697266E-06  0.00000E+00  9.000E+00
#rwgt            1           1   2.8501639327585891E-002           2       23603           0
</event>
<event>
      5   9999  3.19816E-02  1.18385E+01 -1.00000E+00  1.87649E-01
      21    -1     0     0   502   511  0.000000000E+00  0.000000000E+00  2.340656457E+02  2.340656457E+02  0.000000000E+00  0.00000E+00  9.000E+00
      21    -1     0     0   501   502  0.000000000E+00  0.000000000E+00 -9.641702263E+02  9.641702263E+02  0.000000000E+00  0.00000E+00  9.000E+00
      25     1     1     2     0     0  1.116267992E+02 -1.625882553E+02 -8.440642168E+02  8.757653140E+02  1.250000000E+02  0.00000E+00  9.000E+00
      25     1     1     2     0     0 -1.231172228E+02  1.654379726E+02  3.624224233E+01  2.438566658E+02  1.250000000E+02  0.00000E+00  9.000E+00
      21     1     1     2   501   511  1.149042360E+01 -2.849717284E+00  7.771739394E+01  7.861389218E+01  1.348699152E-06  0.00000E+00  9.000E+00
#rwgt            1           1   2.8566881030606950E-002           2       23641           0
</event>
<event>
      5   9999  3.19816E-02  1.15158E+02 -1.00000E+00  1.21132E-01
      21    -1     0     0   502   501  0.000000000E+00  0.000000000E+00  3.701029478E+02  3.701029478E+02  0.000000000E+00  0.00000E+00  9.000E+00
      21    -1     0     0   501   512  0.000000000E+00  0.000000000E+00 -1.055377229E+03  1.055377229E+03  0.000000000E+00  0.00000E+00  9.000E+00
      25     1     1     2     0     0  2.956119895E+02 -2.285474070E+02  1.905832663E+02  4.376840721E+02  1.250000000E+02  0.00000E+00  9.000E+00
      25     1     1     2     0     0 -1.805706863E+02  2.233586234E+02 -7.703994877E+02  8.316460894E+02  1.250000000E+02  0.00000E+00  9.000E+00
      21     1     1     2   502   512 -1.150413032E+02  5.188783639E+00 -1.054580602E+02  1.561500156E+02  1.907348633E-06  0.00000E+00  9.000E+00
#rwgt            1           1   2.4625336058428104E-002           2       23888           0
</event>
<event>
      5   9999  3.19816E-02  6.59491E+01 -1.00000E+00  1.32545E-01
      21    -1     0     0   502   511  0.000000000E+00  0.000000000E+00  6.219071904E+02  6.219071904E+02  0.000000000E+00  0.00000E+00  9.000E+00
      21    -1     0     0   501   502  0.000000000E+00  0.000000000E+00 -1.875712676E+02  1.875712676E+02  0.000000000E+00  0.00000E+00  9.000E+00
      25     1     1     2     0     0 -8.040822798E+01  1.671443748E+02  3.483757182E+00  2.236959135E+02  1.250000000E+02  0.00000E+00  9.000E+00
      25     1     1     2     0     0  9.915063035E+01 -1.039145917E+02  4.675060290E+01  1.960604721E+02  1.250000000E+02  0.00000E+00  9.000E+00
      21     1     1     2   501   511 -1.874240237E+01 -6.322978313E+01  3.841015628E+02  3.897220723E+02  7.629394531E-06  0.00000E+00  9.000E+00
#rwgt            1           1   2.7036987348831618E-002           2       23998           0
</event>
<event>
      5   9999  3.19816E-02  5.66804E+01 -1.00000E+00  1.36038E-01
       2    -1     0     0   502     0  0.000000000E+00  0.000000000E+00  2.558292298E+03  2.558292298E+03  0.000000000E+00  0.00000E+00  9.000E+00
      21    -1     0     0   501   502  0.000000000E+00  0.000000000E+00 -2.771776644E+01  2.771776644E+01  0.000000000E+00  0.00000E+00  9.000E+00
      25     1     1     2     0     0 -2.680861283E+01 -1.274278396E+01  1.222348071E+03  1.229081318E+03  1.250000000E+02  0.00000E+00  9.000E+00
      25     1     1     2     0     0  6.756932929E+01 -2.664292731E+01  1.975075548E+02  2.447645686E+02  1.250000000E+02  0.00000E+00  9.000E+00
       2     1     1     2   501     0 -4.076071646E+01  3.938571126E+01  1.110718905E+03  1.112164177E+03  0.000000000E+00  0.00000E+00  9.000E+00
#rwgt            1           1   2.9875627192852177E-002           2       24093           0
</event>
<event>
      5   9999  3.19816E-02  2.82479E+01 -1.00000E+00  1.54878E-01
      21    -1     0     0   502   501  0.000000000E+00  0.000000000E+00  1.096009892E+02  1.096009892E+02  0.000000000E+00  0.00000E+00  9.000E+00
      21    -1     0     0   511   502  0.000000000E+00  0.000000000E+00 -2.112285898E+03  2.112285898E+03  0.000000000E+00  0.00000E+00  9.000E+00
      25     1     1     2     0     0  2.067401834E+02 -2.417140634E+02 -2.548476978E+02  4.263092081E+02  1.250000000E+02  0.00000E+00  9.000E+00
      25     1     1     2     0     0 -2.094849860E+02  2.698283019E+02 -1.396160827E+03  1.442768632E+03  1.250000000E+02  0.00000E+00  9.000E+00
      21     1     1     2   511   501  2.744802603E+00 -2.811423855E+01 -3.516763840E+02  3.528090467E+02  3.814697266E-06  0.00000E+00  9.000E+00
#rwgt            1           1   3.7487447448423403E-002           2       24167           0
</event>
<event>
      5   9999  3.19816E-02  4.02853E+01 -1.00000E+00  1.44649E-01
      21    -1     0     0   502   501  0.000000000E+00  0.000000000E+00  2.389485512E+02  2.389485512E+02  0.000000000E+00  0.00000E+00  9.000E+00
      21    -1     0     0   501   512  0.000000000E+00  0.000000000E+00 -2.243233193E+02  2.243233193E+02  0.000000000E+00  0.00000E+00  9.000E+00
      25     1     1     2     0     0  1.900282139E+01 -3.871827395E+01 -1.206699371E+02  1.790152108E+02  1.250000000E+02  0.00000E+00  9.000E+00
      25     1     1     2     0     0 -5.637660424E+01  2.368142838E+01  1.777427303E+02  2.257357077E+02  1.250000000E+02  0.00000E+00  9.000E+00
      21     1     1     2   502   512  3.737378285E+01  1.503684557E+01 -4.244756129E+01  5.852095205E+01  8.259061849E-07  0.00000E+00  9.000E+00
#rwgt            1           1   2.9559212294283637E-002           2       24278           0
</event>
<event>
      5   9999  3.19816E-02  4.92834E+02 -1.00000E+00  9.90304E-02
      21    -1     0     0   502   501  0.000000000E+00  0.000000000E+00  1.428976424E+03  1.428976424E+03  0.000000000E+00  0.00000E+00  9.000E+00
      21    -1     0     0   511   502  0.000000000E+00  0.000000000E+00 -3.921540105E+02  3.921540105E+02  0.000000000E+00  0.00000E+00  9.000E+00
      25     1     1     2     0     0  5.756487696E+02  2.286699109E+02  9.343613886E+02  1.127970584E+03  1.250000000E+02  0.00000E+00  9.000E+00
      25     1     1     2     0     0 -1.311131794E+02 -1.589465015E+01 -2.641161412E+01  1.837549430E+02  1.250000000E+02  0.00000E+00  9.000E+00
      21     1     1     2   511   501 -4.445355903E+02 -2.127752608E+02  1.288726389E+02  5.094049074E+02  7.629394531E-06  0.00000E+00  9.000E+00
#rwgt            2          11   2.5420506360819485E-003           2       24578           0
</event>
<event>
      5   9999  3.19816E-02  1.10731E+01 -1.00000E+00  1.90775E-01
      21    -1     0     0   502   512  0.000000000E+00  0.000000000E+00  1.327990512E+03  1.327990512E+03  0.000000000E+00  0.00000E+00  9.000E+00
      21    -1     0     0   501   502  0.000000000E+00  0.000000000E+00 -3.668131517E+01  3.668131517E+01  0.000000000E+00  0.00000E+00  9.000E+00
      25     1     1     2     0     0  9.174787977E+01  1.354870115E+02  4.653867869E+02  5.089049667E+02  1.250000000E+02  0.00000E+00  9.000E+00
      25     1     1     2     0     0 -1.023270344E+02 -1.387571983E+02  7.859175938E+02  8.142578500E+02  1.250000000E+02  0.00000E+00  9.000E+00
      21     1     1     2   501   512  1.057915466E+01  3.270186730E+00  4.000481628E+01  4.150901059E+01  4.768371582E-07  0.00000E+00  9.000E+00
#rwgt            1           1   2.8413794923769286E-002           2       24598           0
</event>
<event>
      5   9999  3.19816E-02  1.29194E+01 -1.00000E+00  1.83719E-01
      21    -1     0     0   502   511  0.000000000E+00  0.000000000E+00  2.389795393E+02  2.389795393E+02  0.000000000E+00  0.00000E+00  9.000E+00
      21    -1     0     0   501   502  0.000000000E+00  0.000000000E+00 -1.125216028E+02  1.125216028E+02  0.000000000E+00  0.00000E+00  9.000E+00
      25     1     1     2     0     0 -9.708291426E+01 -7.061221786E+00  3.764172163E+01  1.628399592E+02  1.250000000E+02  0.00000E+00  9.000E+00
      25     1     1     2     0     0  8.763773403E+01 -1.753506451E+00  7.630926480E+01  1.706796740E+02  1.250000000E+02  0.00000E+00  9.000E+00
      21     1     1     2   501   511  9.445180236E+00  8.814728237E+00  1.250695009E+01  1.798150895E+01  3.769728732E-07  0.00000E+00  9.000E+00
#rwgt            1           1   7.2087250881072665E-002           2       24831           0
</event>
<event>
      5   9999  3.19816E-02  5.12093E+01 -1.00000E+00  1.38486E-01
      21    -1     0     0   512   501  0.000000000E+00  0.000000000E+00  1.351888836E+02  1.351888836E+02  0.000000000E+00  0.00000E+00  9.000E+00
      21    -1     0     0   501   502  0.000000000E+00  0.000000000E+00 -5.862849154E+02  5.862849154E+02  0.000000000E+00  0.00000E+00  9.000E+00
      25     1     1     2     0     0 -1.442149129E+02  5.695500690E+01 -1.618796327E+02  2.566550787E+02  1.250000000E+02  0.00000E+00  9.000E+00
      25     1     1     2     0     0  1.901997964E+02 -7.948905047E+01 -3.233106070E+02  4.032979300E+02  1.250000000E+02  0.00000E+00  9.000E+00
      21     1     1     2   512   502 -4.598488354E+01  2.253404357E+01  3.409420790E+01  6.152079035E+01  9.536743164E-07  0.00000E+00  9.000E+00
#rwgt            1           1   2.7951679175604600E-002           2       24978           0
</event>
<event>
      5   9999  3.19816E-02  3.50502E+01 -1.00000E+00  1.48490E-01
      21    -1     0     0   502   511  0.000000000E+00  0.000000000E+00  3.735453152E+02  3.735453152E+02  0.000000000E+00  0.00000E+00  9.000E+00
      21    -1     0     0   501   502  0.000000000E+00  0.000000000E+00 -3.982804305E+02  3.982804305E+02  0.000000000E+00  0.00000E+00  9.000E+00
      25     1     1     2     0     0 -1.456110825E+02 -2.943114621E+02 -1.069125263E+02  3.672561944E+02  1.250000000E+02  0.00000E+00  9.000E+00
      25     1     1     2     0     0  1.774150130E+02  2.795797107E+02  5.085706285E+01  3.575644590E+02  1.250000000E+02  0.00000E+00  9.000E+00
      21     1     1     2   501   511 -3.180393055E+01  1.473175145E+01  3.132034815E+01  4.700509235E+01  1.118282261E-06  0.00000E+00  9.000E+00
#rwgt            1           1   3.0308744268876833E-002           2       25048           0
</event>
<event>
      5   9999  3.19816E-02  3.08852E+01 -1.00000E+00  1.52168E-01
      21    -1     0     0   502   512  0.000000000E+00  0.000000000E+00  1.084537820E+03  1.084537820E+03  0.000000000E+00  0.00000E+00  9.000E+00
      21    -1     0     0   501   502  0.000000000E+00  0.000000000E+00 -3.435143474E+02  3.435143474E+02  0.000000000E+00  0.00000E+00  9.000E+00
      25     1     1     2     0     0  3.886078406E+02  9.183523061E+01 -2.732141973E+01  4.193104141E+02  1.250000000E+02  0.00000E+00  9.000E+00
      25     1     1     2     0     0 -4.159059341E+02 -1.062819346E+02  2.978344510E+02  5.372187225E+02  1.250000000E+02  0.00000E+00  9.000E+00
      21     1     1     2   501   512  2.729809343E+01  1.444670399E+01  4.705104418E+02  4.715230313E+02  1.078959322E-05  0.00000E+00  9.000E+00
#rwgt            1           1   3.0825786366798745E-002           2       25136           0
</event>
<event>
      5   9999  3.19816E-02  1.93815E+02 -1.00000E+00  1.12147E-01
      -3    -1     0     0     0   501  0.000000000E+00  0.000000000E+00  2.901240403E+02  2.901240403E+02  0.000000000E+00  0.00000E+00  9.000E+00
      21    -1     0     0   501   502  0.000000000E+00  0.000000000E+00 -1.004668719E+03  1.004668719E+03  0.000000000E+00  0.00000E+00  9.000E+00
      25     1     1     2     0     0 -1.407578089E+02 -2.860987548E+01  1.111626398E+02  2.204845080E+02  1.250000000E+02  0.00000E+00  9.000E+00
      25     1     1     2     0     0  2.789561627E+02  1.644970972E+02 -8.083315398E+02  8.797162690E+02  1.250000000E+02  0.00000E+00  9.000E+00
      -3     1     1     2     0   502 -1.381983538E+02 -1.358872217E+02 -1.737577903E+01  1.945919826E+02  3.724217260E-06  0.00000E+00  9.000E+00
#rwgt            1           1   2.8850752638095133E-002           2       25313           0
</event>
<event>
      5   9999  3.19816E-02  3.70934E+01 -1.00000E+00  1.46902E-01
      21    -1     0     0   502   511  0.000000000E+00  0.000000000E+00  3.977680025E+02  3.977680025E+02  0.000000000E+00  0.00000E+00  9.000E+00
      21    -1     0     0   501   502  0.000000000E+00  0.000000000E+00 -3.465040657E+02  3.465040657E+02  0.000000000E+00  0.00000E+00  9.000E+00
      25     1     1     2     0     0  4.040017058E+01 -1.248398026E+02  1.066149058E+02  2.102590979E+02  1.250000000E+02  0.00000E+00  9.000E+00
      25     1     1     2     0     0 -6.313222088E+01  9.552812849E+01 -2.685684367E+02  3.175929877E+02  1.250000000E+02  0.00000E+00  9.000E+00
      21     1     1     2   501   511  2.273205030E+01  2.931167410E+01  2.132174677E+02  2.164199826E+02  0.000000000E+00  0.00000E+00  9.000E+00
#rwgt            1           1   2.8577695031213594E-002           2       25375           0
</event>
<event>
      5   9999  3.19816E-02  7.09353E+00 -1.00000E+00  2.14742E-01
      21    -1     0     0   502   501  0.000000000E+00  0.000000000E+00  3.693486490E+01  3.693486490E+01  0.000000000E+00  0.00000E+00  9.000E+00
      21    -1     0     0   512   502  0.000000000E+00  0.000000000E+00 -1.375582287E+03  1.375582287E+03  0.000000000E+00  0.00000E+00  9.000E+00
      25     1     1     2     0     0 -1.646385777E+02  5.570152586E+01 -5.873304627E+02  6.251324609E+02  1.250000000E+02  0.00000E+00  9.000E+00
      25     1     1     2     0     0  1.702372567E+02 -6.005732695E+01 -6.553458238E+02  6.911517597E+02  1.250000000E+02  0.00000E+00  9.000E+00
      21     1     1     2   512   501 -5.598678976E+00  4.355801090E+00 -9.597113600E+01  9.623293175E+01  1.907348633E-06  0.00000E+00  9.000E+00
#rwgt            1           1   2.6855574397131387E-002           2       25455           0
</event>
<event>
      5   9999  3.19816E-02  2.04310E+02 -1.00000E+00  1.11312E-01
      21    -1     0     0   502   501  0.000000000E+00  0.000000000E+00  1.277929768E+03  1.277929768E+03  0.000000000E+00  0.00000E+00  9.000E+00
       2    -1     0     0   501     0  0.000000000E+00  0.000000000E+00 -4.847923397E+02  4.847923397E+02  0.000000000E+00  0.00000E+00  9.000E+00
      25     1     1     2     0     0  2.018158272E+02 -6.410204340E+01  8.651602860E+02  8.994253836E+02  1.250000000E+02  0.00000E+00  9.000E+00
      25     1     1     2     0     0 -1.745969136E+02  2.665907234E+02  2.893134550E+02  4.481985847E+02  1.250000000E+02  0.00000E+00  9.000E+00
       2     1     1     2   502     0 -2.721891361E+01 -2.024886800E+02 -3.613363126E+02  4.150981397E+02  8.529922400E-06  0.00000E+00  9.000E+00
#rwgt            1           1   3.1123047252300057E-002           2       25720           0
</event>
<event>
      5   9999  3.19816E-02  4.68584E+01 -1.00000E+00  1.40703E-01
      21    -1     0     0   502   501  0.000000000E+00  0.000000000E+00  1.035681117E+02  1.035681117E+02  0.000000000E+00  0.00000E+00  9.000E+00
      21    -1     0     0   501   511  0.000000000E+00  0.000000000E+00 -1.218964275E+03  1.218964275E+03  0.000000000E+00  0.00000E+00  9.000E+00
      25     1     1     2     0     0  1.311521940E+02 -2.409354701E+02 -2.337324183E+02  3.814533288E+02  1.250000000E+02  0.00000E+00  9.000E+00
      25     1     1     2     0     0 -8.493664811E+01  2.332004707E+02 -8.004777781E+02  8.473407620E+02  1.250000000E+02  0.00000E+00  9.000E+00
      21     1     1     2   502   511 -4.621554587E+01  7.734999358E+00 -8.118596709E+01  9.373829605E+01  0.000000000E+00  0.00000E+00  9.000E+00
#rwgt            1           1   2.6396899510718927E-002           2       25823           0
</event>
<event>
      5   9999  3.19816E-02  4.42119E+02 -1.00000E+00  1.00394E-01
      21    -1     0     0   502   501  0.000000000E+00  0.000000000E+00  2.835811107E+02  2.835811107E+02  0.000000000E+00  0.00000E+00  9.000E+00
       2    -1     0     0   501     0  0.000000000E+00  0.000000000E+00 -3.478159486E+03  3.478159486E+03  0.000000000E+00  0.00000E+00  9.000E+00
      25     1     1     2     0     0 -3.991136026E+01 -2.279673955E+02 -1.459784479E+01  2.634390767E+02  1.250000000E+02  0.00000E+00  9.000E+00
      25     1     1     2     0     0  4.596545902E+02  8.909732896E+01 -2.696449716E+02  5.545755918E+02  1.250000000E+02  0.00000E+00  9.000E+00
       2     1     1     2   502     0 -4.197432299E+02  1.388700665E+02 -2.910335559E+03  2.943725929E+03  4.315837288E-05  0.00000E+00  9.000E+00
#rwgt            2          13   2.3344051899802484E-003           2       25913           0
</event>
<event>
      5   9999  3.19816E-02  2.01606E+02 -1.00000E+00  1.11522E-01
      21    -1     0     0   502   501  0.000000000E+00  0.000000000E+00  5.532142187E+02  5.532142187E+02  0.000000000E+00  0.00000E+00  9.000E+00
      21    -1     0     0   501   511  0.000000000E+00  0.000000000E+00 -3.410294305E+02  3.410294305E+02  0.000000000E+00  0.00000E+00  9.000E+00
      25     1     1     2     0     0  2.107175968E+02  1.553858473E+02 -7.059988516E+01  2.985900382E+02  1.250000000E+02  0.00000E+00  9.000E+00
      25     1     1     2     0     0 -2.813773709E+01 -2.408823734E+02  2.843023177E+02  3.940416956E+02  1.250000000E+02  0.00000E+00  9.000E+00
      21     1     1     2   502   511 -1.825798597E+02  8.549652607E+01 -1.517644271E+00  2.016119153E+02  2.187173740E-06  0.00000E+00  9.000E+00
#rwgt            1           1   2.6574579129261929E-002           2       25932           0
</event>
<event>
      5   9999  3.19816E-02  1.21527E+01 -1.00000E+00  1.86453E-01
      21    -1     0     0   512   501  0.000000000E+00  0.000000000E+00  1.038828123E+03  1.038828123E+03  0.000000000E+00  0.00000E+00  9.000E+00
      21    -1     0     0   501   502  0.000000000E+00  0.000000000E+00 -3.120051936E+02  3.120051936E+02  0.000000000E+00  0.00000E+00  9.000E+00
      25     1     1     2     0     0 -3.525659916E+02  2.490443606E+02  4.492037304E+02  6.354013404E+02  1.250000000E+02  0.00000E+00  9.000E+00
      25     1     1     2     0     0  3.625004417E+02 -2.560439660E+02  2.418733278E+01  4.617089016E+02  1.250000000E+02  0.00000E+00  9.000E+00
      21     1     1     2   512   502 -9.934450103E+00  6.999605407E+00  2.534318667E+02  2.537230751E+02  0.000000000E+00  0.00000E+00  9.000E+00
#rwgt            1           1   2.7805659324981379E-002           2       25977           0
</event>
<event>
      5   9999  3.19816E-02  3.25450E+01 -1.00000E+00  1.50624E-01
      21    -1     0     0   502   501  0.000000000E+00  0.000000000E+00  1.921289577E+03  1.921289577E+03  0.000000000E+00  0.00000E+00  9.000E+00
      21    -1     0     0   511   502  0.000000000E+00  0.000000000E+00 -5.086826729E+02  5.086826729E+02  0.000000000E+00  0.00000E+00  9.000E+00
      25     1     1     2     0     0 -3.666632881E+02 -4.561145026E+02 -2.329437006E+02  6.421605516E+02  1.250000000E+02  0.00000E+00  9.000E+00
      25     1     1     2     0     0  3.848383969E+02  4.291173743E+02  1.652441109E+03  1.754545220E+03  1.250000000E+02  0.00000E+00  9.000E+00
      21     1     1     2   511   501 -1.817510880E+01  2.699712835E+01 -6.890503907E+00  3.326647807E+01  3.862822472E-07  0.00000E+00  9.000E+00
#rwgt            1           1   3.2400297142118326E-002           2       26319           0
</event>
<event>
      5   9999  3.19816E-02  8.83261E+01 -1.00000E+00  1.26302E-01
      21    -1     0     0   502   501  0.000000000E+00  0.000000000E+00  2.112041278E+03  2.112041278E+03  0.000000000E+00  0.00000E+00  9.000E+00
      21    -1     0     0   512   502  0.000000000E+00  0.000000000E+00 -5.046465864E+02  5.046465864E+02  0.000000000E+00  0.00000E+00  9.000E+00
      25     1     1     2     0     0 -4.011237923E+02  8.123159038E+02  6.359371629E+02  1.113911352E+03  1.250000000E+02  0.00000E+00  9.000E+00
      25     1     1     2     0     0  4.359870081E+02 -8.934703866E+02  9.942356093E+02  1.411560643E+03  1.250000000E+02  0.00000E+00  9.000E+00
      21     1     1     2   512   501 -3.486321576E+01  8.115448280E+01 -2.277808045E+01  9.121586946E+01  1.719260824E-06  0.00000E+00  9.000E+00
#rwgt            2          11   1.1928514104598947E-002           2       26550           0
</event>
<event>
      5   9999  3.19816E-02  3.63994E+01 -1.00000E+00  1.47427E-01
      21    -1     0     0   502   501  0.000000000E+00  0.000000000E+00  5.972172149E+02  5.972172149E+02  0.000000000E+00  0.00000E+00  9.000E+00
      21    -1     0     0   501   511  0.000000000E+00  0.000000000E+00 -1.033133259E+03  1.033133259E+03  0.000000000E+00  0.00000E+00  9.000E+00
      25     1     1     2     0     0 -8.895089651E+01 -7.239586210E+01  6.276946612E+01  1.808823615E+02  1.250000000E+02  0.00000E+00  9.000E+00
      25     1     1     2     0     0  5.272955678E+01  6.879967380E+01  4.628698390E+02  4.872240646E+02  1.250000000E+02  0.00000E+00  9.000E+00
      21     1     1     2   502   511  3.622133973E+01  3.596188307E+00 -9.615553489E+02  9.622440476E+02  1.868812365E-05  0.00000E+00  9.000E+00
#rwgt            1           1   2.6372823883554171E-002           2       26570           0
</event>
<event>
      5   9999  3.19816E-02  2.29903E+02 -1.00000E+00  1.09489E-01
      21    -1     0     0   502   501  0.000000000E+00  0.000000000E+00  1.010098168E+02  1.010098168E+02  0.000000000E+00  0.00000E+00  9.000E+00
       2    -1     0     0   501     0  0.000000000E+00  0.000000000E+00 -2.057768214E+03  2.057768214E+03  0.000000000E+00  0.00000E+00  9.000E+00
      25     1     1     2     0     0  1.544201247E+02  3.323226846E+02 -4.942246154E+02  6.278271355E+02  1.250000000E+02  0.00000E+00  9.000E+00
      25     1     1     2     0     0  3.872606904E+00 -1.655933954E+02 -5.001965258E+02  5.415327636E+02  1.250000000E+02  0.00000E+00  9.000E+00
       2     1     1     2   502     0 -1.582927316E+02 -1.667292892E+02 -9.623372564E+02  9.894181320E+02  1.078959322E-05  0.00000E+00  9.000E+00
#rwgt            1           1   2.6569309345322277E-002           2       26686           0
</event>
<event>
      5   9999  3.19816E-02  1.17841E+02 -1.00000E+00  1.20704E-01
      -1    -1     0     0     0   501  0.000000000E+00  0.000000000E+00  8.152821055E+02  8.152821055E+02  0.000000000E+00  0.00000E+00  9.000E+00
      21    -1     0     0   501   502  0.000000000E+00  0.000000000E+00 -2.672128752E+02  2.672128752E+02  0.000000000E+00  0.00000E+00  9.000E+00
      25     1     1     2     0     0  5.512236995E+01  7.303636211E+01  3.709352860E+01  1.592912921E+02  1.250000000E+02  0.00000E+00  9.000E+00
      25     1     1     2     0     0 -1.685851527E+02 -1.048592130E+02 -1.322201478E+02  2.693020158E+02  1.250000000E+02  0.00000E+00  9.000E+00
      -1     1     1     2     0   502  1.134627827E+02  3.182285085E+01  6.431958495E+02  6.539016728E+02  1.078959322E-05  0.00000E+00  9.000E+00
#rwgt            1           1   2.6683198273365252E-002           2       26729           0
</event>
<event>
      5   9999  3.19816E-02  7.26860E+01 -1.00000E+00  1.30398E-01
      21    -1     0     0   511   501  0.000000000E+00  0.000000000E+00  7.614264519E+02  7.614264519E+02  0.000000000E+00  0.00000E+00  9.000E+00
      21    -1     0     0   501   502  0.000000000E+00  0.000000000E+00 -3.771601109E+02  3.771601109E+02  0.000000000E+00  0.00000E+00  9.000E+00
      25     1     1     2     0     0  3.051055923E+02 -3.064431245E+02 -3.349039143E+01  4.513794604E+02  1.250000000E+02  0.00000E+00  9.000E+00
      25     1     1     2     0     0 -2.635285015E+02  3.660635647E+02  3.271736309E+02  5.710668869E+02  1.250000000E+02  0.00000E+00  9.000E+00
      21     1     1     2   511   502 -4.157709073E+01 -5.962044021E+01  9.058310154E+01  1.161402155E+02  1.348699152E-06  0.00000E+00  9.000E+00
#rwgt            1           1   2.8777162146057376E-002           2       26770           0
</event>
<event>
      5   9999  3.19816E-02  1.61556E+02 -1.00000E+00  1.15130E-01
       2    -1     0     0   502     0  0.000000000E+00  0.000000000E+00  1.104551819E+03  1.104551819E+03  0.000000000E+00  0.00000E+00  9.000E+00
      21    -1     0     0   501   502  0.000000000E+00  0.000000000E+00 -7.341414457E+01  7.341414457E+01  0.000000000E+00  0.00000E+00  9.000E+00
      25     1     1     2     0     0 -9.963305661E+01 -8.928127896E+01  4.599210251E+02  4.950254964E+02  1.250000000E+02  0.00000E+00  9.000E+00
      25     1     1     2     0     0 -4.724195367E+00 -3.404663488E+01  5.287927325E+01  1.400096743E+02  1.250000000E+02  0.00000E+00  9.000E+00
       2     1     1     2   501     0  1.043572520E+02  1.233279138E+02  5.183373759E+02  5.429307927E+02  0.000000000E+00  0.00000E+00  9.000E+00
#rwgt            1           1   3.6419553496401684E-002           2       26920           0
</event>
<event>
      5   9999  3.19816E-02  3.27069E+01 -1.00000E+00  1.50479E-01
      21    -1     0     0   502   501  0.000000000E+00  0.000000000E+00  1.230687967E+03  1.230687967E+03  0.000000000E+00  0.00000E+00  9.000E+00
      21    -1     0     0   501   511  0.000000000E+00  0.000000000E+00 -5.596179618E+01  5.596179618E+01  0.000000000E+00  0.00000E+00  9.000E+00
      25     1     1     2     0     0  3.787655097E+01 -2.546417445E+01  4.521970679E+01  1.405449365E+02  1.250000000E+02  0.00000E+00  9.000E+00
      25     1     1     2     0     0 -1.273353623E+01  4.546027863E+00  1.076517145E+03  1.083834384E+03  1.250000000E+02  0.00000E+00  9.000E+00
      21     1     1     2   502   511 -2.514301475E+01  2.091814658E+01  5.298931874E+01  6.227044200E+01  6.743495762E-07  0.00000E+00  9.000E+00
#rwgt            1           1   3.0683799031514837E-002           2       26986           0
</event>
<event>
      5   9999  3.19816E-02  1.88873E+01 -1.00000E+00  1.68447E-01
      21    -1     0     0   502   512  0.000000000E+00  0.000000000E+00  3.073511175E+01  3.073511175E+01  0.000000000E+00  0.00000E+00  9.000E+00
      21    -1     0     0   501   502  0.000000000E+00  0.000000000E+00 -1.471505509E+03  1.471505509E+03  0.000000000E+00  0.00000E+00  9.000E+00
      25     1     1     2     0     0 -1.299955940E+02 -4.394656269E+00 -5.646120511E+02  5.927309134E+02  1.250000000E+02  0.00000E+00  9.000E+00
      25     1     1     2     0     0  1.487991272E+02  2.617712039E+00 -8.670043332E+02  8.885209881E+02  1.250000000E+02  0.00000E+00  9.000E+00
      21     1     1     2   501   512 -1.880353319E+01  1.776944230E+00 -9.154013447E+00  2.098871967E+01  4.298152060E-07  0.00000E+00  9.000E+00
#rwgt            1           1   2.7702420270139062E-002           2       27121           0
</event>
<event>
      5   9999  3.19816E-02  5.39956E+01 -1.00000E+00  1.37197E-01
      21    -1     0     0   511   501  0.000000000E+00  0.000000000E+00  6.208407668E+02  6.208407668E+02  0.000000000E+00  0.00000E+00  9.000E+00
      21    -1     0     0   501   502  0.000000000E+00  0.000000000E+00 -4.002228798E+02  4.002228798E+02  0.000000000E+00  0.00000E+00  9.000E+00
      25     1     1     2     0     0  3.440355825E+01  2.084262333E+02 -3.314483919E+02  4.124416759E+02  1.250000000E+02  0.00000E+00  9.000E+00
      25     1     1     2     0     0 -2.958078699E+01 -1.546464517E+02  4.575932842E+02  4.998071245E+02  1.250000000E+02  0.00000E+00  9.000E+00
      21     1     1     2   511   502 -4.822771256E+00 -5.377978158E+01  9.447299471E+01  1.088148462E+02  0.000000000E+00  0.00000E+00  9.000E+00
#rwgt            1           1   2.7761348612013535E-002           2       27198           0
</event>
<event>
      5   9999  3.19816E-02  3.28778E+01 -1.00000E+00  1.50327E-01
       2    -1     0     0   502     0  0.000000000E+00  0.000000000E+00  2.529394119E+02  2.529394119E+02  0.000000000E+00  0.00000E+00  9.000E+00
      21    -1     0     0   501   502  0.000000000E+00  0.000000000E+00 -2.339261043E+02  2.339261043E+02  0.000000000E+00  0.00000E+00  9.000E+00
      25     1     1     2     0     0  3.834146213E+01 -8.291943455E+01  1.346034620E+01  1.554087554E+02  1.250000000E+02  0.00000E+00  9.000E+00
      25     1     1     2     0     0 -5.978489528E+00  7.712384251E+01 -1.273845889E+02  1.945139144E+02  1.250000000E+02  0.00000E+00  9.000E+00
       2     1     1     2   501     0 -3.236297260E+01  5.795592042E+00  1.329375503E+02  1.369428464E+02  1.907348633E-06  0.00000E+00  9.000E+00
#rwgt            1           1   2.4683272571759639E-002           2       27290           0
</event>
<event>
      5   9999  3.19816E-02  1.31757E+02 -1.00000E+00  1.18670E-01
      21    -1     0     0   502   501  0.000000000E+00  0.000000000E+00  6.424537019E+02  6.424537019E+02  0.000000000E+00  0.00000E+00  9.000E+00
      21    -1     0     0   501   511  0.000000000E+00  0.000000000E+00 -5.323262186E+02  5.323262186E+02  0.000000000E+00  0.00000E+00  9.000E+00
      25     1     1     2     0     0  1.798201034E+02  2.326196284E+02  4.367708124E+02  5.411477651E+02  1.250000000E+02  0.00000E+00  9.000E+00
      25     1     1     2     0     0 -2.909263077E+02 -1.618005217E+02 -9.651200981E+01  3.684522946E+02  1.250000000E+02  0.00000E+00  9.000E+00
      21     1     1     2   502   511  1.111062043E+02 -7.081910671E+01 -2.301313192E+02  2.651798608E+02  0.000000000E+00  0.00000E+00  9.000E+00
#rwgt            1           1   2.8088150946019023E-002           2       27417           0
</event>
<event>
      5   9999  3.19816E-02  2.30189E+02 -1.00000E+00  1.09470E-01
      21    -1     0     0   502   501  0.000000000E+00  0.000000000E+00  8.475234289E+02  8.475234289E+02  0.000000000E+00  0.00000E+00  9.000E+00
       1    -1     0     0   501     0  0.000000000E+00  0.000000000E+00 -8.932446881E+02  8.932446881E+02  0.000000000E+00  0.00000E+00  9.000E+00
      25     1     1     2     0     0 -1.257090357E+02  2.515939868E+01  1.928681365E+02  2.631708097E+02  1.250000000E+02  0.00000E+00  9.000E+00
      25     1     1     2     0     0  3.456887247E+02 -9.295191064E+01  5.433011696E+02  6.625269149E+02  1.250000000E+02  0.00000E+00  9.000E+00
       1     1     1     2   502     0 -2.199796890E+02  6.779251196E+01 -7.818905654E+02  8.150703924E+02  0.000000000E+00  0.00000E+00  9.000E+00
#rwgt            1           1   2.6785881413776164E-002           2       27491           0
</event>
<event>
      5   9999  3.19816E-02  1.68939E+02 -1.00000E+00  1.14383E-01
      21    -1     0     0   502   511  0.000000000E+00  0.000000000E+00  1.161445523E+02  1.161445523E+02  0.000000000E+00  0.00000E+00  9.000E+00
      21    -1     0     0   501   502  0.000000000E+00  0.000000000E+00 -1.105931110E+03  1.105931110E+03  0.000000000E+00  0.00000E+00  9.000E+00
      25     1     1     2     0     0  1.562608644E+02  1.483042644E+02 -4.281123058E+02  4.952946183E+02  1.250000000E+02  0.00000E+00  9.000E+00
      25     1     1     2     0     0 -2.298730980E+02  3.754188655E+00 -4.610652140E+02  5.301526824E+02  1.250000000E+02  0.00000E+00  9.000E+00
      21     1     1     2   501   511  7.361223363E+01 -1.520584530E+02 -1.006090380E+02  1.966283617E+02  3.568322551E-06  0.00000E+00  9.000E+00
#rwgt            1           1   3.0465152369859246E-002           2       27535           0
</event>
<event>
      5   9999  3.19816E-02  1.37064E+01 -1.00000E+00  1.81155E-01
      21    -1     0     0   502   512  0.000000000E+00  0.000000000E+00  2.881238452E+02  2.881238452E+02  0.000000000E+00  0.00000E+00  9.000E+00
      21    -1     0     0   501   502  0.000000000E+00  0.000000000E+00 -6.315933862E+02  6.315933862E+02  0.000000000E+00  0.00000E+00  9.000E+00
      25     1     1     2     0     0 -1.560473359E+02 -9.688190992E+01 -4.412723244E+02  4.940477100E+02  1.250000000E+02  0.00000E+00  9.000E+00
      25     1     1     2     0     0  1.435775894E+02  9.119235855E+01 -9.564254598E+01  2.317392220E+02  1.250000000E+02  0.00000E+00  9.000E+00
      21     1     1     2   501   512  1.246974649E+01  5.689551365E+00  1.934453293E+02  1.939302994E+02  2.697398305E-06  0.00000E+00  9.000E+00
#rwgt            1           1   2.6543814167065489E-002           2       27580           0
</event>
<event>
      5   9999  3.19816E-02  7.90227E+01 -1.00000E+00  1.28608E-01
      21    -1     0     0   502   501  0.000000000E+00  0.000000000E+00  7.292908897E+01  7.292908897E+01  0.000000000E+00  0.00000E+00  9.000E+00
      21    -1     0     0   511   502  0.000000000E+00  0.000000000E+00 -1.523691272E+03  1.523691272E+03  0.000000000E+00  0.00000E+00  9.000E+00
      25     1     1     2     0     0 -2.231386825E+02  1.653165245E+01 -2.640389088E+02  3.679751520E+02  1.250000000E+02  0.00000E+00  9.000E+00
      25     1     1     2     0     0  1.501981476E+02  1.387010648E+01 -4.939388093E+02  5.313684322E+02  1.250000000E+02  0.00000E+00  9.000E+00
      21     1     1     2   511   501  7.294053488E+01 -3.040175894E+01 -6.927844645E+02  6.972767763E+02  0.000000000E+00  0.00000E+00  9.000E+00
#rwgt            1           1   2.6863690952275723E-002           2       27829           0
</event>
<event>
      5   9999  3.19816E-02  5.21335E+01 -1.00000E+00  1.38048E-01
      21    -1     0     0   502   501  0.000000000E+00  0.000000000E+00  8.591862921E+02  8.591862921E+02  0.000000000E+00  0.00000E+00  9.000E+00
      -1    -1     0     0     0   502  0.000000000E+00  0.000000000E+00 -2.366185317E+02  2.366185317E+02  0.000000000E+00  0.00000E+00  9.000E+00
      25     1     1     2     0     0 -3.535389221E+02 -3.129512595E+01  1.622675015E+02  4.097864034E+02  1.250000000E+02  0.00000E+00  9.000E+00
      25     1     1     2     0     0  4.055799967E+02  2.819293185E+01  4.690181064E+02  6.331610848E+02  1.250000000E+02  0.00000E+00  9.000E+00
      -1     1     1     2     0   501 -5.204107459E+01  3.102194094E+00 -8.717847510E+00  5.285733552E+01  1.025477084E-06  0.00000E+00  9.000E+00
#rwgt            1           1   2.7801800959724777E-002           2       27954           0
</event>
<event>
      5   9999  3.19816E-02  7.43618E+02 -1.00000E+00  9.41897E-02
       1    -1     0     0   502     0  0.000000000E+00  0.000000000E+00  1.619298108E+03  1.619298108E+03  0.000000000E+00  0.00000E+00  9.000E+00
      21    -1     0     0   501   502  0.000000000E+00  0.000000000E+00 -1.093817949E+03  1.093817949E+03  0.000000000E+00  0.00000E+00  9.000E+00
      25     1     1     2     0     0 -5.858322962E+01  5.015711714E+02 -7.890552573E+02  9.451131328E+02  1.250000000E+02  0.00000E+00  9.000E+00
      25     1     1     2     0     0 -3.095555842E+02  1.445262834E+02  1.662632565E+02  3.999762203E+02  1.250000000E+02  0.00000E+00  9.000E+00
       1     1     1     2   501     0  3.681388138E+02 -6.460974548E+02  1.148272161E+03  1.368026704E+03  1.525878906E-05  0.00000E+00  9.000E+00
#rwgt            2          17   6.9441356804610110E-004           2       28065           0
</event>
<event>
      5   9999  3.19816E-02  6.21776E+01 -1.00000E+00  1.33881E-01
      21    -1     0     0   502   501  0.000000000E+00  0.000000000E+00  7.640775495E+02  7.640775495E+02  0.000000000E+00  0.00000E+00  9.000E+00
       2    -1     0     0   501     0  0.000000000E+00  0.000000000E+00 -1.100660872E+03  1.100660872E+03  0.000000000E+00  0.00000E+00  9.000E+00
      25     1     1     2     0     0  7.793373090E+01 -4.027574447E+02  4.410119462E+02  6.151453181E+02  1.250000000E+02  0.00000E+00  9.000E+00
      25     1     1     2     0     0 -5.947278752E+01  3.433836116E+02  8.898991976E+01  3.807801505E+02  1.250000000E+02  0.00000E+00  9.000E+00
       2     1     1     2   502     0 -1.846094338E+01  5.937383306E+01 -8.665851884E+02  8.688129530E+02  1.078959322E-05  0.00000E+00  9.000E+00
#rwgt            1           1   2.5300769885315658E-002           2       28084           0
</event>
<event>
      5   9999  4.17408E-02  1.53487E+02 -1.00000E+00  1.15999E-01
      21    -1     0     0   511   501  0.000000000E+00  0.000000000E+00  6.669831272E+02  6.669831272E+02  0.000000000E+00  0.00000E+00  9.000E+00
      21    -1     0     0   501   502  0.000000000E+00  0.000000000E+00 -4.178505458E+02  4.178505458E+02  0.000000000E+00  0.00000E+00  9.000E+00
      25     1     1     2     0     0 -2.743656731E+02 -2.457702835E+02  6.909326135E+01  3.950676316E+02  1.250000000E+02  0.00000E+00  9.000E+00
      25     1     1     2     0     0  1.223759333E+02  2.243824443E+02 -1.530114774E+02  3.230493191E+02  1.250000000E+02  0.00000E+00  9.000E+00
      21     1     1     2   511   502  1.519897397E+02  2.138783921E+01  3.330507975E+02  3.667167222E+02  5.394796609E-06  0.00000E+00  9.000E+00
#rwgt            1           1   4.1005877468066075E-002           2       28151           0
</event>
<event>
      5   9999  3.19816E-02  5.84363E+01 -1.00000E+00  1.35319E-01
       1    -1     0     0   502     0  0.000000000E+00  0.000000000E+00  4.948282429E+02  4.948282429E+02  0.000000000E+00  0.00000E+00  9.000E+00
      21    -1     0     0   501   502  0.000000000E+00  0.000000000E+00 -6.444833236E+02  6.444833236E+02  0.000000000E+00  0.00000E+00  9.000E+00
      25     1     1     2     0     0 -1.072301342E+02  1.448169488E+02 -2.206906724E+02  3.111263782E+02  1.250000000E+02  0.00000E+00  9.000E+00
      25     1     1     2     0     0  9.186877427E+01 -2.011980498E+02 -3.336143072E+02  4.193376121E+02  1.250000000E+02  0.00000E+00  9.000E+00
       1     1     1     2   501     0  1.536135990E+01  5.638110097E+01  4.046498990E+02  4.088475763E+02  0.000000000E+00  0.00000E+00  9.000E+00
#rwgt            1           1   3.0612576479718323E-002           2       28243           0
</event>
<event>
      5   9999  3.19816E-02  4.60682E+01 -1.00000E+00  1.41136E-01
      21    -1     0     0   502   501  0.000000000E+00  0.000000000E+00  5.501098443E+02  5.501098443E+02  0.000000000E+00  0.00000E+00  9.000E+00
      21    -1     0     0   501   511  0.000000000E+00  0.000000000E+00 -1.298737557E+02  1.298737557E+02  0.000000000E+00  0.00000E+00  9.000E+00
      25     1     1     2     0     0 -1.837195967E+02 -6.860718543E+01  3.167666768E+02  3.929706905E+02  1.250000000E+02  0.00000E+00  9.000E+00
      25     1     1     2     0     0  1.428038380E+02  8.977734140E+01  1.151976591E+02  2.394752760E+02  1.250000000E+02  0.00000E+00  9.000E+00
      21     1     1     2   502   511  4.091575869E+01 -2.117015597E+01 -1.172824728E+01  4.753763349E+01  6.307962682E-07  0.00000E+00  9.000E+00
#rwgt            1           1   3.0973590412923118E-002           2       28319           0
</event>
<event>
      5   9999  3.19816E-02  2.10012E+02 -1.00000E+00  1.10881E-01
      21    -1     0     0   502   501  0.000000000E+00  0.000000000E+00  3.509509882E+02  3.509509882E+02  0.000000000E+00  0.00000E+00  9.000E+00
      21    -1     0     0   512   502  0.000000000E+00  0.000000000E+00 -9.087042576E+02  9.087042576E+02  0.000000000E+00  0.00000E+00  9.000E+00
      25     1     1     2     0     0  4.440703239E+02 -1.398726550E+02 -2.144751627E+01  4.825430635E+02  1.250000000E+02  0.00000E+00  9.000E+00
      25     1     1     2     0     0 -2.472822272E+02  2.132185415E+02 -3.715907434E+02  5.102110611E+02  1.250000000E+02  0.00000E+00  9.000E+00
      21     1     1     2   512   501 -1.967880967E+02 -7.334588650E+01 -1.647150098E+02  2.669011212E+02  3.814697266E-06  0.00000E+00  9.000E+00
#rwgt            2          11   4.1976616451487765E-003           2       28841           0
</event>
<event>
      5   9999  3.19816E-02  3.46206E+01 -1.00000E+00  1.48841E-01
      21    -1     0     0   502   501  0.000000000E+00  0.000000000E+00  8.083052791E+02  8.083052791E+02  0.000000000E+00  0.00000E+00  9.000E+00
      21    -1     0     0   501   511  0.000000000E+00  0.000000000E+00 -2.368072241E+02  2.368072241E+02  0.000000000E+00  0.00000E+00  9.000E+00
      25     1     1     2     0     0  3.309496069E+02 -9.464141986E+01  6.159678687E+01  3.713540155E+02  1.250000000E+02  0.00000E+00  9.000E+00
      25     1     1     2     0     0 -3.430445919E+02  1.270805786E+02  5.089462725E+02  6.391246935E+02  1.250000000E+02  0.00000E+00  9.000E+00
      21     1     1     2   502   511  1.209498500E+01 -3.243915879E+01  9.549956208E-01  3.463379422E+01  7.824173923E-07  0.00000E+00  9.000E+00
#rwgt            1           1   2.9304495565292396E-002           2       28861           0
</event>
<event>
      5   9999  3.19816E-02  3.46847E+01 -1.00000E+00  1.48788E-01
      21    -1     0     0   502   512  0.000000000E+00  0.000000000E+00  1.460735998E+03  1.460735998E+03  0.000000000E+00  0.00000E+00  9.000E+00
      21    -1     0     0   501   502  0.000000000E+00  0.000000000E+00 -3.211214143E+01  3.211214143E+01  0.000000000E+00  0.00000E+00  9.000E+00
      25     1     1     2     0     0  6.047256733E+01  1.285556934E+02  6.324017495E+02  6.601064085E+02  1.250000000E+02  0.00000E+00  9.000E+00
      25     1     1     2     0     0 -8.930349242E+01 -1.092734049E+02  4.976531914E+02  5.321649084E+02  1.250000000E+02  0.00000E+00  9.000E+00
      21     1     1     2   501   512  2.883092509E+01 -1.928228847E+01  2.985689152E+02  3.005768221E+02  5.394796609E-06  0.00000E+00  9.000E+00
#rwgt            1           1   2.8763458625522570E-002           2       29039           0
</event>
<event>
      5   9999  3.19816E-02  7.98334E+01 -1.00000E+00  1.28393E-01
      21    -1     0     0   502   511  0.000000000E+00  0.000000000E+00  2.494970367E+02  2.494970367E+02  0.000000000E+00  0.00000E+00  9.000E+00
      21    -1     0     0   501   502  0.000000000E+00  0.000000000E+00 -3.239703532E+02  3.239703532E+02  0.000000000E+00  0.00000E+00  9.000E+00
      25     1     1     2     0     0 -9.121489413E+01  1.315150951E+02 -9.906954603E+01  2.259560845E+02  1.250000000E+02  0.00000E+00  9.000E+00
      25     1     1     2     0     0  8.499245853E+01 -2.111056066E+02 -1.149910725E+01  2.598971424E+02  1.250000000E+02  0.00000E+00  9.000E+00
      21     1     1     2   501   511  6.222435602E+00  7.959051151E+01  3.609533674E+01  8.761416302E+01  1.507891493E-06  0.00000E+00  9.000E+00
#rwgt            1           1   2.8346630498670040E-002           2       29127           0
</event>
<event>
      5   9999  3.19816E-02  8.06079E+01 -1.00000E+00  1.28191E-01
      21    -1     0     0   502   501  0.000000000E+00  0.000000000E+00  8.039900561E+02  8.039900561E+02  0.000000000E+00  0.00000E+00  9.000E+00
       2    -1     0     0   501     0  0.000000000E+00  0.000000000E+00 -1.433782751E+03  1.433782751E+03  0.000000000E+00  0.00000E+00  9.000E+00
      25     1     1     2     0     0  1.435033859E+02  2.188047368E+02  7.348779592E+02  7.900249044E+02  1.250000000E+02  0.00000E+00  9.000E+00
      25     1     1     2     0     0 -7.330625208E+01 -1.791816115E+02 -2.916555617E+02  3.717093262E+02  1.250000000E+02  0.00000E+00  9.000E+00
       2     1     1     2   502     0 -7.019713380E+01 -3.962312535E+01 -1.073015092E+03  1.076038576E+03  1.525878906E-05  0.00000E+00  9.000E+00
#rwgt            1           1   2.9510610295847086E-002           2       29229           0
</event>
<event>
      5   9999  3.19816E-02  9.07785E+01 -1.00000E+00  1.25748E-01
      21    -1     0     0   511   501  0.000000000E+00  0.000000000E+00  3.974548910E+02  3.974548910E+02  0.000000000E+00  0.00000E+00  9.000E+00
      21    -1     0     0   501   502  0.000000000E+00  0.000000000E+00 -9.336461312E+02  9.336461312E+02  0.000000000E+00  0.00000E+00  9.000E+00
      25     1     1     2     0     0 -3.699020791E+02 -2.984249122E+02  8.442406349E+01  4.986355371E+02  1.250000000E+02  0.00000E+00  9.000E+00
      25     1     1     2     0     0  3.166733793E+02  2.248895881E+02 -6.193579687E+02  7.416782654E+02  1.250000000E+02  0.00000E+00  9.000E+00
      21     1     1     2   511   502  5.322869977E+01  7.353532416E+01 -1.257335020E+00  9.078721975E+01  9.555351461E-07  0.00000E+00  9.000E+00
#rwgt            1           1   2.4101486377782616E-002           2       29344           0
</event>
<event>
      5   9999  3.19816E-02  4.15471E+01 -1.00000E+00  1.43825E-01
      21    -1     0     0   502   501  0.000000000E+00  0.000000000E+00  2.151975982E+02  2.151975982E+02  0.000000000E+00  0.00000E+00  9.000E+00
      21    -1     0     0   512   502  0.000000000E+00  0.000000000E+00 -4.884128714E+02  4.884128714E+02  0.000000000E+00  0.00000E+00  9.000E+00
      25     1     1     2     0     0  4.985971699E+01  2.736964672E+02 -2.041182933E+02  3.669945847E+02  1.250000000E+02  0.00000E+00  9.000E+00
      25     1     1     2     0     0 -7.908545478E+01 -2.441665082E+02 -4.624187619E+01  2.891973444E+02  1.250000000E+02  0.00000E+00  9.000E+00
      21     1     1     2   512   501  2.922573779E+01 -2.952995899E+01 -2.285510372E+01  4.741854061E+01  8.259061849E-07  0.00000E+00  9.000E+00
#rwgt            1           1   2.7691106784969180E-002           2       29455           0
</event>
<event>
      5   9999  3.19816E-02  1.96489E+01 -1.00000E+00  1.67006E-01
      21    -1     0     0   502   511  0.000000000E+00  0.000000000E+00  2.742676010E+02  2.742676010E+02  0.000000000E+00  0.00000E+00  9.000E+00
      21    -1     0     0   501   502  0.000000000E+00  0.000000000E+00 -1.019795148E+03  1.019795148E+03  0.000000000E+00  0.00000E+00  9.000E+00
      25     1     1     2     0     0 -1.481561233E+02  2.946544228E+02  1.016409402E+02  3.670522394E+02  1.250000000E+02  0.00000E+00  9.000E+00
      25     1     1     2     0     0  1.319988009E+02 -2.834732574E+02 -8.417715443E+02  9.066339415E+02  1.250000000E+02  0.00000E+00  9.000E+00
      21     1     1     2   501   511  1.615732241E+01 -1.118116532E+01 -5.396942697E+00  2.037656781E+01  1.460009660E-07  0.00000E+00  9.000E+00
#rwgt            1           1   2.9527533163456895E-002           2       29569           0
</event>
<event>
      5   9999  3.19816E-02  1.39850E+01 -1.00000E+00  1.80299E-01
      21    -1     0     0   502   501  0.000000000E+00  0.000000000E+00  1.593106222E+02  1.593106222E+02  0.000000000E+00  0.00000E+00  9.000E+00
      21    -1     0     0   501   512  0.000000000E+00  0.000000000E+00 -5.176046173E+02  5.176046173E+02  0.000000000E+00  0.00000E+00  9.000E+00
      25     1     1     2     0     0  3.423864098E+01 -1.305459336E+02 -3.268834755E+02  3.750897651E+02  1.250000000E+02  0.00000E+00  9.000E+00
      25     1     1     2     0     0 -2.055611145E+01  1.276530813E+02  7.474302930E+01  1.947546747E+02  1.250000000E+02  0.00000E+00  9.000E+00
      21     1     1     2   502   512 -1.368252953E+01  2.892852304E+00 -1.061535488E+02  1.070707997E+02  1.348699152E-06  0.00000E+00  9.000E+00
#rwgt            2          11   8.2530885789704135E-004           2       29781           0
</event>
<event>
      5   9999  3.19816E-02  1.12472E+01 -1.00000E+00  1.90036E-01
      21    -1     0     0   502   501  0.000000000E+00  0.000000000E+00  3.774056868E+02  3.774056868E+02  0.000000000E+00  0.00000E+00  9.000E+00
      21    -1     0     0   511   502  0.000000000E+00  0.000000000E+00 -2.620263376E+02  2.620263376E+02  0.000000000E+00  0.00000E+00  9.000E+00
      25     1     1     2     0     0  1.291871084E+02  2.234157914E+02  5.500514982E+01  2.919837176E+02  1.250000000E+02  0.00000E+00  9.000E+00
      25     1     1     2     0     0 -1.268916767E+02 -2.124053701E+02  1.087564839E+02  2.977759420E+02  1.250000000E+02  0.00000E+00  9.000E+00
      21     1     1     2   511   501 -2.295431649E+00 -1.101042134E+01 -4.838228448E+01  4.967236491E+01  0.000000000E+00  0.00000E+00  9.000E+00
#rwgt            1           1   2.5942260048558086E-002           2       29831           0
</event>
<event>
      5   9999  3.19816E-02  2.72322E+02 -1.00000E+00  1.06976E-01
       2    -1     0     0   502     0  0.000000000E+00  0.000000000E+00  2.212394418E+03  2.212394418E+03  0.000000000E+00  0.00000E+00  9.000E+00
      21    -1     0     0   501   502  0.000000000E+00  0.000000000E+00 -2.697392986E+02  2.697392986E+02  0.000000000E+00  0.00000E+00  9.000E+00
      25     1     1     2     0     0  1.943214573E+02  1.229517530E+02  5.946016351E+01  2.683998386E+02  1.250000000E+02  0.00000E+00  9.000E+00
      25     1     1     2     0     0 -4.656916495E+02 -1.457045568E+02  2.581097701E+02  5.659895615E+02  1.250000000E+02  0.00000E+00  9.000E+00
       2     1     1     2   501     0  2.713701922E+02  2.275280385E+01  1.625085186E+03  1.647744316E+03  2.157918644E-05  0.00000E+00  9.000E+00
#rwgt            2          18   2.2520087729136253E-003           2       30157           0
</event>
<event>
      5   9999  3.19816E-02  1.06764E+02 -1.00000E+00  1.22563E-01
      21    -1     0     0   502   501  0.000000000E+00  0.000000000E+00  7.336670403E+02  7.336670403E+02  0.000000000E+00  0.00000E+00  9.000E+00
      21    -1     0     0   501   511  0.000000000E+00  0.000000000E+00 -4.484428201E+02  4.484428201E+02  0.000000000E+00  0.00000E+00  9.000E+00
      25     1     1     2     0     0 -4.834168172E+02 -1.173916754E+01  2.548083084E+02  5.606976915E+02  1.250000000E+02  0.00000E+00  9.000E+00
      25     1     1     2     0     0  4.129626229E+02 -6.847775850E+01  1.492540463E+02  4.616590751E+02  1.250000000E+02  0.00000E+00  9.000E+00
      21     1     1     2   502   511  7.045419435E+01  8.021692605E+01 -1.188381346E+02  1.597530937E+02  2.697398305E-06  0.00000E+00  9.000E+00
#rwgt            1           1   2.5178388839946296E-002           2       30176           0
</event>
<event>
      5   9999  3.19816E-02  8.18408E+01 -1.00000E+00  1.27873E-01
      21    -1     0     0   512   501  0.000000000E+00  0.000000000E+00  6.342290088E+02  6.342290088E+02  0.000000000E+00  0.00000E+00  9.000E+00
      21    -1     0     0   501   502  0.000000000E+00  0.000000000E+00 -3.401814166E+02  3.401814166E+02  0.000000000E+00  0.00000E+00  9.000E+00
      25     1     1     2     0     0  2.041230120E+02 -1.596693646E+02 -6.453280555E+01  2.948728421E+02  1.250000000E+02  0.00000E+00  9.000E+00
      25     1     1     2     0     0 -1.248902418E+02  1.801655126E+02 -5.471519196E+01  2.582168404E+02  1.250000000E+02  0.00000E+00  9.000E+00
      21     1     1     2   512   502 -7.923277017E+01 -2.049614795E+01  4.132955897E+02  4.213207430E+02  5.394796609E-06  0.00000E+00  9.000E+00
#rwgt            1           1   2.7422397779660015E-002           2       30295           0
</event>
<event>
      5   9999  3.19816E-02  3.98375E+01 -1.00000E+00  1.44950E-01
      21    -1     0     0   502   501  0.000000000E+00  0.000000000E+00  1.749200141E+02  1.749200141E+02  0.000000000E+00  0.00000E+00  9.000E+00
      21    -1     0     0   501   511  0.000000000E+00  0.000000000E+00 -1.248710321E+03  1.248710321E+03  0.000000000E+00  0.00000E+00  9.000E+00
      25     1     1     2     0     0  2.312287077E+02  1.546112190E+02 -4.656493204E+01  3.084876614E+02  1.250000000E+02  0.00000E+00  9.000E+00
      25     1     1     2     0     0 -2.606820413E+02 -1.277872456E+02 -5.356601718E+02  6.219658563E+02  1.250000000E+02  0.00000E+00  9.000E+00
      21     1     1     2   502   511  2.945333352E+01 -2.682397340E+01 -4.915652027E+02  4.931768171E+02  9.344061824E-06  0.00000E+00  9.000E+00
#rwgt            1           1   2.8228169617749998E-002           2       30360           0
</event>
<event>
      5   9999  3.19816E-02  6.85490E+01 -1.00000E+00  1.31683E-01
      21    -1     0     0   502   501  0.000000000E+00  0.000000000E+00  1.076439570E+03  1.076439570E+03  0.000000000E+00  0.00000E+00  9.000E+00
       4    -1     0     0   501     0  0.000000000E+00  0.000000000E+00 -1.710847335E+02  1.710847335E+02  0.000000000E+00  0.00000E+00  9.000E+00
      25     1     1     2     0     0  2.507437421E+02  8.264816804E+01  3.456978083E+02  4.525871392E+02  1.250000000E+02  0.00000E+00  9.000E+00
      25     1     1     2     0     0 -2.055432666E+02 -3.111292531E+01  6.428778912E+02  6.871193722E+02  1.250000000E+02  0.00000E+00  9.000E+00
       4     1     1     2   502     0 -4.520047555E+01 -5.153524274E+01 -8.322086304E+01  1.078177920E+02  1.348699152E-06  0.00000E+00  9.000E+00
#rwgt            1           1   2.7344892958574004E-002           2       30494           0
</event>
<event>
      5   9999  3.19816E-02  3.73693E+01 -1.00000E+00  1.46697E-01
      21    -1     0     0   502   501  0.000000000E+00  0.000000000E+00  1.606084553E+02  1.606084553E+02  0.000000000E+00  0.00000E+00  9.000E+00
      21    -1     0     0   501   511  0.000000000E+00  0.000000000E+00 -1.315932906E+03  1.315932906E+03  0.000000000E+00  0.00000E+00  9.000E+00
      25     1     1     2     0     0 -8.413739464E+01 -1.302912744E+02 -3.016561463E+02  3.614918366E+02  1.250000000E+02  0.00000E+00  9.000E+00
      25     1     1     2     0     0  1.007198320E+02  1.637798838E+02  2.938373668E+01  2.312071341E+02  1.250000000E+02  0.00000E+00  9.000E+00
      21     1     1     2   502   511 -1.658243737E+01 -3.348860938E+01 -8.830520406E+02  8.838423901E+02  1.525878906E-05  0.00000E+00  9.000E+00
#rwgt            1           1   2.9233005911615109E-002           2       30561           0
</event>
<event>
      5   9999  3.19816E-02  8.47892E+02 -1.00000E+00  9.27450E-02
      21    -1     0     0   502   501  0.000000000E+00  0.000000000E+00  1.011797880E+03  1.011797880E+03  0.000000000E+00  0.00000E+00  9.000E+00
       2    -1     0     0   501     0  0.000000000E+00  0.000000000E+00 -2.290335425E+03  2.290335425E+03  0.000000000E+00  0.00000E+00  9.000E+00
      25     1     1     2     0     0 -7.511196637E+02 -1.535674739E+01  7.103159383E+02  1.041436657E+03  1.250000000E+02  0.00000E+00  9.000E+00
      25     1     1     2     0     0 -8.792613462E+01 -1.067999619E+02 -1.633099982E+02  2.478555880E+02  1.250000000E+02  0.00000E+00  9.000E+00
       2     1     1     2   502     0  8.390457983E+02  1.221567093E+02 -1.825543486E+03  2.012841060E+03  2.157918644E-05  0.00000E+00  9.000E+00
#rwgt            2          13   2.5070979857122898E-003           2       30759           0
</event>
<event>
      5   9999  3.19816E-02  1.68518E+02 -1.00000E+00  1.14425E-01
      21    -1     0     0   502   501  0.000000000E+00  0.000000000E+00  1.890892903E+03  1.890892903E+03  0.000000000E+00  0.00000E+00  9.000E+00
      21    -1     0     0   501   511  0.000000000E+00  0.000000000E+00 -1.313490013E+03  1.313490013E+03  0.000000000E+00  0.00000E+00  9.000E+00
      25     1     1     2     0     0 -8.849109748E+02  1.211425268E+03  5.171448639E+02  1.591754511E+03  1.250000000E+02  0.00000E+00  9.000E+00
      25     1     1     2     0     0  9.652587841E+02 -1.063294917E+03  3.275152987E+01  1.441880114E+03  1.250000000E+02  0.00000E+00  9.000E+00
      21     1     1     2   502   511 -8.034780931E+01 -1.481303518E+02  2.750649566E+01  1.707482910E+02  2.821006671E-06  0.00000E+00  9.000E+00
#rwgt            1           1   4.0263136686205035E-002           2       30793           0
</event>
<event>
      5   9999  3.19816E-02  3.98157E+00 -1.00000E+00  2.63944E-01
      21    -1     0     0   502   501  0.000000000E+00  0.000000000E+00  6.686713926E+02  6.686713926E+02  0.000000000E+00  0.00000E+00  9.000E+00
      21    -1     0     0   501   512  0.000000000E+00  0.000000000E+00 -3.314306270E+01  3.314306270E+01  0.000000000E+00  0.00000E+00  9.000E+00
      25     1     1     2     0     0  3.688959408E+01 -6.565031422E+01  3.043297297E+02  3.375090966E+02  1.250000000E+02  0.00000E+00  9.000E+00
      25     1     1     2     0     0 -3.542654714E+01  6.935333569E+01  3.262707897E+02  3.579700457E+02  1.250000000E+02  0.00000E+00  9.000E+00
      21     1     1     2   502   512 -1.463046937E+00 -3.703021468E+00  4.927810520E+00  6.335313004E+00  1.460009660E-07  0.00000E+00  9.000E+00
#rwgt            1           1   3.9057873633222037E-002           2       30914           0
</event>
<event>
      5   9999  3.19816E-02  3.80552E+01 -1.00000E+00  1.46196E-01
      21    -1     0     0   502   501  0.000000000E+00  0.000000000E+00  5.775486261E+01  5.775486261E+01  0.000000000E+00  0.00000E+00  9.000E+00
      21    -1     0     0   511   502  0.000000000E+00  0.000000000E+00 -1.317026613E+03  1.317026613E+03  0.000000000E+00  0.00000E+00  9.000E+00
      25     1     1     2     0     0  2.974096528E+01 -1.859183196E+02 -2.431806094E+02  3.319818600E+02  1.250000000E+02  0.00000E+00  9.000E+00
      25     1     1     2     0     0 -3.248870641E+01  1.479624591E+02 -8.583877101E+02  8.805696260E+02  1.250000000E+02  0.00000E+00  9.000E+00
      21     1     1     2   511   501  2.747741129E+00  3.795586049E+01 -1.577034307E+02  1.622299895E+02  1.907348633E-06  0.00000E+00  9.000E+00
#rwgt            1           1   3.0477470794503636E-002           2       31191           0
</event>
<event>
      5   9999  3.19816E-02  6.54878E+02 -1.00000E+00  9.56330E-02
      21    -1     0     0   502   501  0.000000000E+00  0.000000000E+00  1.128893179E+03  1.128893179E+03  0.000000000E+00  0.00000E+00  9.000E+00
      21    -1     0     0   501   512  0.000000000E+00  0.000000000E+00 -1.301755936E+03  1.301755936E+03  0.000000000E+00  0.00000E+00  9.000E+00
      25     1     1     2     0     0 -6.702045124E+01 -7.152904613E+02  5.390230007E+02  9.068092303E+02  1.250000000E+02  0.00000E+00  9.000E+00
      25     1     1     2     0     0 -4.940195759E+02  3.775043385E+02 -1.290902031E+02  6.471894217E+02  1.250000000E+02  0.00000E+00  9.000E+00
      21     1     1     2   502   512  5.610400272E+02  3.377861228E+02 -5.827955547E+02  8.766504636E+02  1.321449896E-05  0.00000E+00  9.000E+00
#rwgt            2          11   1.6355308250204014E-003           2       31635           0
</event>
<event>
      5   9999  3.19816E-02  1.41739E+01 -1.00000E+00  1.79733E-01
      21    -1     0     0   502   511  0.000000000E+00  0.000000000E+00  2.272909429E+02  2.272909429E+02  0.000000000E+00  0.00000E+00  9.000E+00
      21    -1     0     0   501   502  0.000000000E+00  0.000000000E+00 -2.513627994E+02  2.513627994E+02  0.000000000E+00  0.00000E+00  9.000E+00
      25     1     1     2     0     0  6.418187038E+01  5.358591336E+01  1.560417854E+02  2.167136391E+02  1.250000000E+02  0.00000E+00  9.000E+00
      25     1     1     2     0     0 -5.784384516E+01 -4.090804594E+01 -1.944532530E+02  2.417776794E+02  1.250000000E+02  0.00000E+00  9.000E+00
      21     1     1     2   501   511 -6.338025219E+00 -1.267786742E+01  1.433961110E+01  2.016242378E+01  1.685873940E-07  0.00000E+00  9.000E+00
#rwgt            1           1   3.0636639127003377E-002           2       31655           0
</event>
<event>
      5   9999  3.19816E-02  5.84351E+00 -1.00000E+00  2.27269E-01
      21    -1     0     0   502   501  0.000000000E+00  0.000000000E+00  1.107856782E+02  1.107856782E+02  0.000000000E+00  0.00000E+00  9.000E+00
      21    -1     0     0   501   512  0.000000000E+00  0.000000000E+00 -5.283562705E+02  5.283562705E+02  0.000000000E+00  0.00000E+00  9.000E+00
      25     1     1     2     0     0 -1.640174079E+02 -1.097520529E+02 -2.198341541E+02  3.207791741E+02  1.250000000E+02  0.00000E+00  9.000E+00
      25     1     1     2     0     0  1.647884928E+02  1.155444627E+02 -1.740861893E+02  2.940013121E+02  1.250000000E+02  0.00000E+00  9.000E+00
      21     1     1     2   502   512 -7.710848858E-01 -5.792409738E+00 -2.365024892E+01  2.436146253E+01  0.000000000E+00  0.00000E+00  9.000E+00
#rwgt            1           1   2.7614710016921749E-002           2       31893           0
</event>
<event>
      5   9999  3.19816E-02  7.34878E+01 -1.00000E+00  1.30160E-01
      21    -1     0     0   502   501  0.000000000E+00  0.000000000E+00  1.374399545E+03  1.374399545E+03  0.000000000E+00  0.00000E+00  9.000E+00
      21    -1     0     0   511   502  0.000000000E+00  0.000000000E+00 -1.876396237E+02  1.876396237E+02  0.000000000E+00  0.00000E+00  9.000E+00
      25     1     1     2     0     0 -6.072843713E+01 -1.588292582E+02  1.286072038E+03  1.303273173E+03  1.250000000E+02  0.00000E+00  9.000E+00
      25     1     1     2     0     0  9.750892684E+00  1.058976667E+02 -5.570043940E+01  1.733116692E+02  1.250000000E+02  0.00000E+00  9.000E+00
      21     1     1     2   511   501  5.097754444E+01  5.293159149E+01 -4.361167774E+01  8.545432611E+01  4.768371582E-07  0.00000E+00  9.000E+00
#rwgt            1           1   3.2931459371172783E-002           2       32121           0
</event>
<event>
      5   9999  3.19816E-02  1.31119E+02 -1.00000E+00  1.18757E-01
       1    -1     0     0   502     0  0.000000000E+00  0.000000000E+00  2.554118974E+03  2.554118974E+03  0.000000000E+00  0.00000E+00  9.000E+00
      21    -1     0     0   501   502  0.000000000E+00  0.000000000E+00 -4.459010632E+01  4.459010632E+01  0.000000000E+00  0.00000E+00  9.000E+00
      25     1     1     2     0     0 -2.023388532E+02  1.035482322E+00  4.992766205E+02  5.530318504E+02  1.250000000E+02  0.00000E+00  9.000E+00
      25     1     1     2     0     0  1.697871435E+02  1.259782284E+02  1.198981794E+03  1.223879295E+03  1.250000000E+02  0.00000E+00  9.000E+00
       1     1     1     2   501     0  3.255170977E+01 -1.270137107E+02  8.112704537E+02  8.217979348E+02  0.000000000E+00  0.00000E+00  9.000E+00
#rwgt            1           1   4.6569390784596772E-002           2       32179           0
</event>
<event>
      5   9999  3.19816E-02  4.49343E+01 -1.00000E+00  1.41775E-01
      21    -1     0     0   502   501  0.000000000E+00  0.000000000E+00  1.125390664E+03  1.125390664E+03  0.000000000E+00  0.00000E+00  9.000E+00
      -2    -1     0     0     0   502  0.000000000E+00  0.000000000E+00 -3.501883590E+02  3.501883590E+02  0.000000000E+00  0.00000E+00  9.000E+00
      25     1     1     2     0     0 -1.091199365E+02 -1.264791692E+02  1.110760300E+02  2.363620638E+02  1.250000000E+02  0.00000E+00  9.000E+00
      25     1     1     2     0     0  6.447403766E+01  1.315615693E+02  9.400923607E+02  9.596165873E+02  1.250000000E+02  0.00000E+00  9.000E+00
      -2     1     1     2     0   501  4.464589883E+01 -5.082400095E+00 -2.759660861E+02  2.796003715E+02  0.000000000E+00  0.00000E+00  9.000E+00
#rwgt            1           1   2.3637724578554425E-002           2       32242           0
</event>
<event>
      5   9999  3.19816E-02  3.79871E+01 -1.00000E+00  1.46245E-01
      21    -1     0     0   502   501  0.000000000E+00  0.000000000E+00  9.221013279E+02  9.221013279E+02  0.000000000E+00  0.00000E+00  9.000E+00
      21    -1     0     0   501   511  0.000000000E+00  0.000000000E+00 -1.181242844E+03  1.181242844E+03  0.000000000E+00  0.00000E+00  9.000E+00
      25     1     1     2     0     0 -1.981361076E+02 -9.777205084E+02  7.734322569E+01  1.008366146E+03  1.250000000E+02  0.00000E+00  9.000E+00
      25     1     1     2     0     0  1.642759485E+02  9.605011245E+02 -2.707527408E+02  1.019058901E+03  1.250000000E+02  0.00000E+00  9.000E+00
      21     1     1     2   502   511  3.386015916E+01  1.721938385E+01 -6.573200130E+01  7.591912508E+01  1.348699152E-06  0.00000E+00  9.000E+00
#rwgt            1           1   3.2509548002302116E-002           2       32456           0
</event>
<event>
      5   9999  3.19816E-02  5.22377E+01 -1.00000E+00  1.37999E-01
      21    -1     0     0   502   512  0.000000000E+00  0.000000000E+00  3.019054248E+02  3.019054248E+02  0.000000000E+00  0.00000E+00  9.000E+00
      21    -1     0     0   501   502  0.000000000E+00  0.000000000E+00 -1.119101080E+03  1.119101080E+03  0.000000000E+00  0.00000E+00  9.000E+00
      25     1     1     2     0     0 -2.473063361E+02 -4.677644749E+02 -5.178582222E+02  7.508436362E+02  1.250000000E+02  0.00000E+00  9.000E+00
      25     1     1     2     0     0  2.939504350E+02  4.442462794E+02 -2.780052112E+02  6.137373318E+02  1.250000000E+02  0.00000E+00  9.000E+00
      21     1     1     2   501   512 -4.664409885E+01  2.351819548E+01 -2.133222141E+01  5.642553630E+01  5.331201500E-07  0.00000E+00  9.000E+00
#rwgt            1           1   3.1037778235579412E-002           2       32640           0
</event>
<event>
      5   9999  3.19816E-02  2.26021E+01 -1.00000E+00  1.62102E-01
      21    -1     0     0   502   501  0.000000000E+00  0.000000000E+00  4.582091944E+02  4.582091944E+02  0.000000000E+00  0.00000E+00  9.000E+00
      21    -1     0     0   511   502  0.000000000E+00  0.000000000E+00 -5.257575616E+02  5.257575616E+02  0.000000000E+00  0.00000E+00  9.000E+00
      25     1     1     2     0     0  3.796110950E+02  4.005511204E+01  6.753375816E+01  4.073018585E+02  1.250000000E+02  0.00000E+00  9.000E+00
      25     1     1     2     0     0 -3.606903280E+02 -5.241873729E+01  5.147691006E+01  3.887416996E+02  1.250000000E+02  0.00000E+00  9.000E+00
      21     1     1     2   511   501 -1.892076701E+01  1.236362525E+01 -1.865590354E+02  1.879231980E+02  0.000000000E+00  0.00000E+00  9.000E+00
#rwgt            1           1   2.9015790707581507E-002           2       32745           0
</event>
<event>
      5   9999  3.19816E-02  3.19354E+01 -1.00000E+00  1.51178E-01
      21    -1     0     0   502   512  0.000000000E+00  0.000000000E+00  1.168995845E+02  1.168995845E+02  0.000000000E+00  0.00000E+00  9.000E+00
      21    -1     0     0   501   502  0.000000000E+00  0.000000000E+00 -1.410703526E+03  1.410703526E+03  0.000000000E+00  0.00000E+00  9.000E+00
      25     1     1     2     0     0  1.797166370E+02  3.037219860E+02 -5.746214787E+02  6.858279363E+02  1.250000000E+02  0.00000E+00  9.000E+00
      25     1     1     2     0     0 -1.993174088E+02 -3.289347169E+02 -6.806490094E+02  7.917282055E+02  1.250000000E+02  0.00000E+00  9.000E+00
      21     1     1     2   501   512  1.960077184E+01  2.521273083E+01 -3.853345359E+01  5.004696892E+01  0.000000000E+00  0.00000E+00  9.000E+00
#rwgt            1           1   3.0763510861678355E-002           2       32926           0
</event>
<event>
      5   9999  3.19816E-02  5.36070E+02 -1.00000E+00  9.80001E-02
      21    -1     0     0   502   501  0.000000000E+00  0.000000000E+00  2.420744406E+02  2.420744406E+02  0.000000000E+00  0.00000E+00  9.000E+00
      21    -1     0     0   511   502  0.000000000E+00  0.000000000E+00 -1.495579468E+03  1.495579468E+03  0.000000000E+00  0.00000E+00  9.000E+00
      25     1     1     2     0     0  1.641986161E+02  5.474585292E+01 -1.802370635E+02  2.794077540E+02  1.250000000E+02  0.00000E+00  9.000E+00
      25     1     1     2     0     0  3.293798255E+02 -2.639147974E+02 -3.773237528E+02  5.797760811E+02  1.250000000E+02  0.00000E+00  9.000E+00
      21     1     1     2   511   501 -4.935784415E+02  2.091689445E+02 -6.959442113E+02  8.784700738E+02  1.321449896E-05  0.00000E+00  9.000E+00
#rwgt            2          11   2.8085571779351368E-003           2       33261           0
</event>
<event>
      5   9999  3.19816E-02  4.72941E+01 -1.00000E+00  1.40468E-01
      21    -1     0     0   512   501  0.000000000E+00  0.000000000E+00  1.919268903E+03  1.919268903E+03  0.000000000E+00  0.00000E+00  9.000E+00
      21    -1     0     0   501   502  0.000000000E+00  0.000000000E+00 -1.810105162E+02  1.810105162E+02  0.000000000E+00  0.00000E+00  9.000E+00
      25     1     1     2     0     0 -2.607774149E+02  2.715170880E+02  6.946797752E+02  7.999571109E+02  1.250000000E+02  0.00000E+00  9.000E+00
      25     1     1     2     0     0  2.706494791E+02 -2.252647657E+02  1.454807621E+02  4.009800585E+02  1.250000000E+02  0.00000E+00  9.000E+00
      21     1     1     2   512   502 -9.872064238E+00 -4.625232229E+01  8.980978493E+02  8.993422496E+02  0.000000000E+00  0.00000E+00  9.000E+00
#rwgt            1           1   2.8086644750937414E-002           2       33281           0
</event>
<event>
      5   9999  3.19816E-02  6.05817E+01 -1.00000E+00  1.34480E-01
      21    -1     0     0   511   501  0.000000000E+00  0.000000000E+00  1.868940919E+03  1.868940919E+03  0.000000000E+00  0.00000E+00  9.000E+00
      21    -1     0     0   501   502  0.000000000E+00  0.000000000E+00 -2.093563825E+02  2.093563825E+02  0.000000000E+00  0.00000E+00  9.000E+00
      25     1     1     2     0     0 -3.441897386E+02  1.192918050E+02  5.541630603E+01  3.890926340E+02  1.250000000E+02  0.00000E+00  9.000E+00
      25     1     1     2     0     0  3.811612187E+02 -7.129960230E+01  9.691876812E+02  1.051340701E+03  1.250000000E+02  0.00000E+00  9.000E+00
      21     1     1     2   511   502 -3.697148009E+01 -4.799220267E+01  6.349805489E+02  6.378639661E+02  1.078959322E-05  0.00000E+00  9.000E+00
#rwgt            1           1   3.2337695489293952E-002           2       33414           0
</event>
<event>
      5   9999  3.19816E-02  5.32878E+01 -1.00000E+00  1.37516E-01
      21    -1     0     0   502   501  0.000000000E+00  0.000000000E+00  2.145567327E+02  2.145567327E+02  0.000000000E+00  0.00000E+00  9.000E+00
      21    -1     0     0   501   512  0.000000000E+00  0.000000000E+00 -1.205451605E+03  1.205451605E+03  0.000000000E+00  0.00000E+00  9.000E+00
      25     1     1     2     0     0 -6.088900136E+01 -4.407298577E+02 -5.027293717E+02  6.828704849E+02  1.250000000E+02  0.00000E+00  9.000E+00
      25     1     1     2     0     0  1.049709103E+02  4.706693606E+02 -4.281156007E+02  6.568534895E+02  1.250000000E+02  0.00000E+00  9.000E+00
      21     1     1     2   502   512 -4.408190897E+01 -2.993950291E+01 -6.004989980E+01  8.028436335E+01  6.743495762E-07  0.00000E+00  9.000E+00
#rwgt            1           1   2.9840769178702993E-002           2       33529           0
</event>
<event>
      5   9999  3.19816E-02  8.37599E+01 -1.00000E+00  1.27391E-01
      21    -1     0     0   511   501  0.000000000E+00  0.000000000E+00  5.290808439E+02  5.290808439E+02  0.000000000E+00  0.00000E+00  9.000E+00
      21    -1     0     0   501   502  0.000000000E+00  0.000000000E+00 -9.733311427E+02  9.733311427E+02  0.000000000E+00  0.00000E+00  9.000E+00
      25     1     1     2     0     0  2.735486068E+02  4.246939589E+02 -4.020335229E+02  6.576091184E+02  1.250000000E+02  0.00000E+00  9.000E+00
      25     1     1     2     0     0 -1.905643868E+02 -4.360665351E+02 -2.982842489E+02  5.753844816E+02  1.250000000E+02  0.00000E+00  9.000E+00
      21     1     1     2   511   502 -8.298422007E+01  1.137257617E+01  2.560674731E+02  2.694183866E+02  3.814697266E-06  0.00000E+00  9.000E+00
#rwgt            1           1   2.4907189900728589E-002           2       33653           0
</event>
<event>
      5   9999  3.19816E-02  1.55701E+02 -1.00000E+00  1.15755E-01
      21    -1     0     0   502   501  0.000000000E+00  0.000000000E+00  3.654740498E+02  3.654740498E+02  0.000000000E+00  0.00000E+00  9.000E+00
      -3    -1     0     0     0   502  0.000000000E+00  0.000000000E+00 -9.115848310E+02  9.115848310E+02  0.000000000E+00  0.00000E+00  9.000E+00
      25     1     1     2     0     0  1.406140973E+02 -5.070993346E+01 -6.096127471E+00  1.949512361E+02  1.250000000E+02  0.00000E+00  9.000E+00
      25     1     1     2     0     0 -1.568273248E+02 -1.041445620E+02  2.145748650E+02  3.116220022E+02  1.250000000E+02  0.00000E+00  9.000E+00
      -3     1     1     2     0   501  1.621322750E+01  1.548544955E+02 -7.545895187E+02  7.704856424E+02  1.078959322E-05  0.00000E+00  9.000E+00
#rwgt            1           1   2.5395858276268262E-002           2       33724           0
</event>
<event>
      5   9999  3.19816E-02  4.78882E+01 -1.00000E+00  1.40153E-01
       1    -1     0     0   502     0  0.000000000E+00  0.000000000E+00  1.017356053E+03  1.017356053E+03  0.000000000E+00  0.00000E+00  9.000E+00
      21    -1     0     0   501   502  0.000000000E+00  0.000000000E+00 -3.495498457E+02  3.495498457E+02  0.000000000E+00  0.00000E+00  9.000E+00
      25     1     1     2     0     0 -1.289701689E+01  8.676316324E+01 -2.564893491E+02  2.985062239E+02  1.250000000E+02  0.00000E+00  9.000E+00
      25     1     1     2     0     0 -2.740156837E+01 -1.126341517E+02  3.033160146E+01  1.731539896E+02  1.250000000E+02  0.00000E+00  9.000E+00
       1     1     1     2   501     0  4.029858526E+01  2.587098847E+01  8.939639548E+02  8.952456850E+02  1.078959322E-05  0.00000E+00  9.000E+00
#rwgt            1           1   2.6166738321759444E-002           2       33757           0
</event>
<event>
      5   9999  3.19816E-02  9.08902E+00 -1.00000E+00  2.00678E-01
      21    -1     0     0   502   501  0.000000000E+00  0.000000000E+00  4.127980972E+02  4.127980972E+02  0.000000000E+00  0.00000E+00  9.000E+00
      21    -1     0     0   501   511  0.000000000E+00  0.000000000E+00 -9.351908627E+01  9.351908627E+01  0.000000000E+00  0.00000E+00  9.000E+00
      25     1     1     2     0     0 -1.114535392E+02 -8.284149769E+01  1.996093850E+02  2.734108844E+02  1.250000000E+02  0.00000E+00  9.000E+00
      25     1     1     2     0     0  1.104947709E+02  9.187980921E+01  1.165677041E+02  2.233025378E+02  1.250000000E+02  0.00000E+00  9.000E+00
      21     1     1     2   502   511  9.587682552E-01 -9.038311514E+00  3.101921928E+00  9.603761307E+00  1.685873940E-07  0.00000E+00  9.000E+00
#rwgt            1           1   2.8704958186750697E-002           2       33808           0
</event>
<event>
      5   9999  3.27373E-02  4.74112E+01 -1.00000E+00  1.40406E-01
      21    -1     0     0   502   501  0.000000000E+00  0.000000000E+00  6.033277043E+02  6.033277043E+02  0.000000000E+00  0.00000E+00  9.000E+00
       1    -1     0     0   501     0  0.000000000E+00  0.000000000E+00 -2.311685091E+02  2.311685091E+02  0.000000000E+00  0.00000E+00  9.000E+00
      25     1     1     2     0     0 -1.619827615E+02  9.518652236E+01  1.821182823E+02  2.899844096E+02  1.250000000E+02  0.00000E+00  9.000E+00
      25     1     1     2     0     0  1.794642944E+02 -5.111588145E+01  3.286234794E+02  3.980435372E+02  1.250000000E+02  0.00000E+00  9.000E+00
       1     1     1     2   502     0 -1.748153289E+01 -4.407064090E+01 -1.385825664E+02  1.464682665E+02  0.000000000E+00  0.00000E+00  9.000E+00
#rwgt            1           1   2.7479137015742131E-002           2       34005           0
</event>
<event>
      5   9999  3.19816E-02  5.49936E+01 -1.00000E+00  1.36757E-01
      21    -1     0     0   511   501  0.000000000E+00  0.000000000E+00  3.330961928E+02  3.330961928E+02  0.000000000E+00  0.00000E+00  9.000E+00
      21    -1     0     0   501   502  0.000000000E+00  0.000000000E+00 -1.524091226E+03  1.524091226E+03  0.000000000E+00  0.00000E+00  9.000E+00
      25     1     1     2     0     0  6.879257381E+01  4.031746521E+02 -5.106548770E+02  6.660898000E+02  1.250000000E+02  0.00000E+00  9.000E+00
      25     1     1     2     0     0 -8.484609652E+01 -4.557729129E+02 -8.699559482E+02  9.936680331E+02  1.250000000E+02  0.00000E+00  9.000E+00
      21     1     1     2   511   502  1.605352271E+01  5.259826084E+01  1.896157921E+02  1.974295855E+02  2.697398305E-06  0.00000E+00  9.000E+00
#rwgt            1           1   3.1085333116424616E-002           2       34089           0
</event>
<event>
      5   9999  3.19816E-02  5.61407E+01 -1.00000E+00  1.36265E-01
      21    -1     0     0   512   501  0.000000000E+00  0.000000000E+00  4.969574582E+02  4.969574582E+02  0.000000000E+00  0.00000E+00  9.000E+00
      21    -1     0     0   501   502  0.000000000E+00  0.000000000E+00 -1.324387748E+03  1.324387748E+03  0.000000000E+00  0.00000E+00  9.000E+00
      25     1     1     2     0     0  5.658458644E+02  2.228472139E+02 -1.637806189E+02  6.420993024E+02  1.250000000E+02  0.00000E+00  9.000E+00
      25     1     1     2     0     0 -5.846973896E+02 -2.757282164E+02 -7.974520085E+02  1.034143023E+03  1.250000000E+02  0.00000E+00  9.000E+00
      21     1     1     2   512   502  1.885152518E+01  5.288100244E+01  1.338023376E+02  1.451028806E+02  1.907348633E-06  0.00000E+00  9.000E+00
#rwgt            1           1   2.7168466835502367E-002           2       34195           0
</event>
<event>
      5   9999  3.19816E-02  9.65682E+01 -1.00000E+00  1.24514E-01
      -2    -1     0     0     0   501  0.000000000E+00  0.000000000E+00  9.965506058E+02  9.965506058E+02  0.000000000E+00  0.00000E+00  9.000E+00
      21    -1     0     0   501   502  0.000000000E+00  0.000000000E+00 -6.130560776E+02  6.130560776E+02  0.000000000E+00  0.00000E+00  9.000E+00
      25     1     1     2     0     0  4.490764840E+01 -1.228552523E+01 -5.751209612E+02  5.903869502E+02  1.250000000E+02  0.00000E+00  9.000E+00
      25     1     1     2     0     0  5.080386708E+01 -5.491210182E-01  1.382218647E+02  1.931621556E+02  1.250000000E+02  0.00000E+00  9.000E+00
      -2     1     1     2     0   502 -9.571151548E+01  1.283464624E+01  8.203936246E+02  8.260575777E+02  1.078959322E-05  0.00000E+00  9.000E+00
#rwgt            1           1   2.7589513649787564E-002           2       34315           0
</event>
<event>
      5   9999  3.19816E-02  3.93096E+01 -1.00000E+00  1.45311E-01
      21    -1     0     0   502   501  0.000000000E+00  0.000000000E+00  5.471412723E+02  5.471412723E+02  0.000000000E+00  0.00000E+00  9.000E+00
      21    -1     0     0   501   511  0.000000000E+00  0.000000000E+00 -1.423001471E+02  1.423001471E+02  0.000000000E+00  0.00000E+00  9.000E+00
      25     1     1     2     0     0 -3.008178151E+01  8.394472164E+01 -6.054501526E+01  1.650525030E+02  1.250000000E+02  0.00000E+00  9.000E+00
      25     1     1     2     0     0  2.396455215E+01 -4.511402876E+01  4.659013949E+02  4.850759581E+02  1.250000000E+02  0.00000E+00  9.000E+00
      21     1     1     2   502   511  6.117229358E+00 -3.883069287E+01 -5.152544845E-01  3.931295831E+01  5.690312339E-07  0.00000E+00  9.000E+00
#rwgt            2          11   2.1420404514866354E-003           2       34405           0
</event>
<event>
      5   9999  3.19816E-02  1.04424E+01 -1.00000E+00  1.93608E-01
      21    -1     0     0   502   501  0.000000000E+00  0.000000000E+00  7.504156600E+02  7.504156600E+02  0.000000000E+00  0.00000E+00  9.000E+00
      21    -1     0     0   501   512  0.000000000E+00  0.000000000E+00 -1.699466699E+02  1.699466699E+02  0.000000000E+00  0.00000E+00  9.000E+00
      25     1     1     2     0     0 -1.589520143E+02 -7.108542326E+01 -6.294878617E+01  2.233974707E+02  1.250000000E+02  0.00000E+00  9.000E+00
      25     1     1     2     0     0  1.485447778E+02  7.194224560E+01  6.515976635E+02  6.837000459E+02  1.250000000E+02  0.00000E+00  9.000E+00
      21     1     1     2   502   512  1.040723654E+01 -8.568223469E-01 -8.179887216E+00  1.326481330E+01  2.384185791E-07  0.00000E+00  9.000E+00
#rwgt            1           1   2.7919198527477901E-002           2       34485           0
</event>
<event>
      5   9999  3.19816E-02  5.64743E+01 -1.00000E+00  1.36124E-01
      21    -1     0     0   502   501  0.000000000E+00  0.000000000E+00  2.568154549E+02  2.568154549E+02  0.000000000E+00  0.00000E+00  9.000E+00
       3    -1     0     0   501     0  0.000000000E+00  0.000000000E+00 -9.529647056E+02  9.529647056E+02  0.000000000E+00  0.00000E+00  9.000E+00
      25     1     1     2     0     0 -2.358322905E+02 -3.155041294E+02 -2.294253703E+02  4.726740160E+02  1.250000000E+02  0.00000E+00  9.000E+00
      25     1     1     2     0     0  2.900045701E+02  2.995444521E+02 -2.271581364E+02  4.909738775E+02  1.250000000E+02  0.00000E+00  9.000E+00
       3     1     1     2   502     0 -5.417227962E+01  1.595967729E+01 -2.395657440E+02  2.461322670E+02  4.672030912E-06  0.00000E+00  9.000E+00
#rwgt            1           1   3.2188566287979510E-002           2       34753           0
</event>
<event>
      5   9999  3.19816E-02  2.46471E+01 -1.00000E+00  1.59215E-01
      21    -1     0     0   511   501  0.000000000E+00  0.000000000E+00  3.063032402E+02  3.063032402E+02  0.000000000E+00  0.00000E+00  9.000E+00
      21    -1     0     0   501   502  0.000000000E+00  0.000000000E+00 -1.345564575E+03  1.345564575E+03  0.000000000E+00  0.00000E+00  9.000E+00
      25     1     1     2     0     0  3.562482494E+01  2.371717596E+02 -1.254490049E+03  1.283312065E+03  1.250000000E+02  0.00000E+00  9.000E+00
      25     1     1     2     0     0 -3.754528068E+01 -2.125996270E+02  1.329848054E+02  2.826980863E+02  1.250000000E+02  0.00000E+00  9.000E+00
      21     1     1     2   511   502  1.920455738E+00 -2.457213259E+01  8.224390927E+01  8.585766396E+01  1.651812370E-06  0.00000E+00  9.000E+00
#rwgt            1           1   3.2416853487598291E-002           2       34868           0
</event>
<event>
      5   9999  3.19816E-02  4.94597E+01 -1.00000E+00  1.39345E-01
       2    -1     0     0   502     0  0.000000000E+00  0.000000000E+00  1.468766381E+03  1.468766381E+03  0.000000000E+00  0.00000E+00  9.000E+00
      21    -1     0     0   501   502  0.000000000E+00  0.000000000E+00 -1.138299626E+02  1.138299626E+02  0.000000000E+00  0.00000E+00  9.000E+00
      25     1     1     2     0     0  9.269686068E+01  3.461749889E+01  1.540396948E+01  1.601666678E+02  1.250000000E+02  0.00000E+00  9.000E+00
      25     1     1     2     0     0 -4.470418701E+01 -2.266085356E+01  6.971274845E+01  1.516471098E+02  1.250000000E+02  0.00000E+00  9.000E+00
       2     1     1     2   501     0 -4.799267368E+01 -1.195664533E+01  1.269819701E+03  1.270782566E+03  1.525878906E-05  0.00000E+00  9.000E+00
#rwgt            1           1   3.7327348723219057E-002           2       35067           0
</event>
<event>
      5   9999  3.19816E-02  1.24203E+02 -1.00000E+00  1.19737E-01
      21    -1     0     0   502   501  0.000000000E+00  0.000000000E+00  6.402011446E+02  6.402011446E+02  0.000000000E+00  0.00000E+00  9.000E+00
      21    -1     0     0   501   511  0.000000000E+00  0.000000000E+00 -7.227138461E+02  7.227138461E+02  0.000000000E+00  0.00000E+00  9.000E+00
      25     1     1     2     0     0  3.028985420E+02 -3.078652892E+02  1.696924974E+02  4.805716458E+02  1.250000000E+02  0.00000E+00  9.000E+00
      25     1     1     2     0     0 -1.793378928E+02  3.204785993E+02  1.835976333E+02  4.291872591E+02  1.250000000E+02  0.00000E+00  9.000E+00
      21     1     1     2   502   511 -1.235606491E+02 -1.261331002E+01 -4.358028323E+02  4.531560859E+02  0.000000000E+00  0.00000E+00  9.000E+00
#rwgt            2          11   2.8329602421568001E-003           2       35187           0
</event>
<event>
      5   9999  3.19816E-02  8.41389E+00 -1.00000E+00  2.04847E-01
      21    -1     0     0   512   501  0.000000000E+00  0.000000000E+00  1.257256654E+03  1.257256654E+03  0.000000000E+00  0.00000E+00  9.000E+00
      21    -1     0     0   501   502  0.000000000E+00  0.000000000E+00 -6.524478255E+01  6.524478255E+01  0.000000000E+00  0.00000E+00  9.000E+00
      25     1     1     2     0     0 -9.178506272E+00 -2.250084835E+02  5.929054533E+02  6.464324707E+02  1.250000000E+02  0.00000E+00  9.000E+00
      25     1     1     2     0     0  9.882345369E-01  2.230815713E+02  3.873525026E+02  4.641479563E+02  1.250000000E+02  0.00000E+00  9.000E+00
      21     1     1     2   512   502  8.190271735E+00  1.926912192E+00  2.117539151E+02  2.119210092E+02  2.697398305E-06  0.00000E+00  9.000E+00
#rwgt            1           1   3.3069504532359496E-002           2       35207           0
</event>
<event>
      5   9999  3.19816E-02  1.11591E+02 -1.00000E+00  1.21723E-01
      21    -1     0     0   502   501  0.000000000E+00  0.000000000E+00  1.141617869E+03  1.141617869E+03  0.000000000E+00  0.00000E+00  9.000E+00
      21    -1     0     0   511   502  0.000000000E+00  0.000000000E+00 -1.526867469E+03  1.526867469E+03  0.000000000E+00  0.00000E+00  9.000E+00
      25     1     1     2     0     0 -4.816001393E+02 -1.040601136E+03  1.696677393E+02  1.165848001E+03  1.250000000E+02  0.00000E+00  9.000E+00
      25     1     1     2     0     0  4.801582493E+02  1.152183260E+03 -4.100832125E+02  1.319799777E+03  1.250000000E+02  0.00000E+00  9.000E+00
      21     1     1     2   511   501  1.441889969E+00 -1.115821239E+02 -1.448341265E+02  1.828375608E+02  2.697398305E-06  0.00000E+00  9.000E+00
#rwgt            1           1   7.1930802729676765E-002           2       35436           0
</event>
<event>
      5   9999  3.19816E-02  1.60327E+01 -1.00000E+00  1.74702E-01
      21    -1     0     0   502   501  0.000000000E+00  0.000000000E+00  3.389133950E+02  3.389133950E+02  0.000000000E+00  0.00000E+00  9.000E+00
      21    -1     0     0   501   512  0.000000000E+00  0.000000000E+00 -4.914671564E+02  4.914671564E+02  0.000000000E+00  0.00000E+00  9.000E+00
      25     1     1     2     0     0  4.882246304E+00 -3.644756751E+02  8.862174617E+00  3.854476517E+02  1.250000000E+02  0.00000E+00  9.000E+00
      25     1     1     2     0     0 -4.352065238E+00  3.484517323E+02 -1.028906070E+02  3.842512554E+02  1.250000000E+02  0.00000E+00  9.000E+00
      21     1     1     2   502   512 -5.301810661E-01  1.602394272E+01 -5.852532896E+01  6.068164436E+01  0.000000000E+00  0.00000E+00  9.000E+00
#rwgt            1           1   2.8722545784380445E-002           2       35544           0
</event>
<event>
      5   9999  3.19816E-02  2.24745E+01 -1.00000E+00  1.62295E-01
      21    -1     0     0   502   501  0.000000000E+00  0.000000000E+00  1.136306057E+03  1.136306057E+03  0.000000000E+00  0.00000E+00  9.000E+00
      21    -1     0     0   511   502  0.000000000E+00  0.000000000E+00 -1.975854367E+02  1.975854367E+02  0.000000000E+00  0.00000E+00  9.000E+00
      25     1     1     2     0     0  1.228782013E+02 -1.863807326E+02 -7.991105703E+01  2.680440391E+02  1.250000000E+02  0.00000E+00  9.000E+00
      25     1     1     2     0     0 -1.110437536E+02  1.672744263E+02  1.016063704E+03  1.043226677E+03  1.250000000E+02  0.00000E+00  9.000E+00
      21     1     1     2   511   501 -1.183444765E+01  1.910630633E+01  2.567973272E+00  2.262077760E+01  4.578319638E-07  0.00000E+00  9.000E+00
#rwgt            1           1   2.9261979191445894E-002           2       35704           0
</event>
<event>
      5   9999  3.19816E-02  3.42389E+02 -1.00000E+00  1.03760E-01
      21    -1     0     0   512   501  0.000000000E+00  0.000000000E+00  1.781674993E+02  1.781674993E+02  0.000000000E+00  0.00000E+00  9.000E+00
      21    -1     0     0   501   502  0.000000000E+00  0.000000000E+00 -1.538340812E+03  1.538340812E+03  0.000000000E+00  0.00000E+00  9.000E+00
      25     1     1     2     0     0  5.327330411E+01  1.399619821E+02 -2.883431945E+02  3.481295724E+02  1.250000000E+02  0.00000E+00  9.000E+00
      25     1     1     2     0     0 -3.946953533E+02 -1.656712388E+02 -8.515635067E+02  9.612579192E+02  1.250000000E+02  0.00000E+00  9.000E+00
      21     1     1     2   512   502  3.414220492E+02  2.570925678E+01 -2.202666110E+02  4.071208193E+02  7.629394531E-06  0.00000E+00  9.000E+00
#rwgt            1           1   3.1874673005375748E-002           2       35899           0
</event>
<event>
      5   9999  3.19816E-02  6.61722E+01 -1.00000E+00  1.32470E-01
      21    -1     0     0   511   501  0.000000000E+00  0.000000000E+00  1.456409159E+02  1.456409159E+02  0.000000000E+00  0.00000E+00  9.000E+00
      21    -1     0     0   501   502  0.000000000E+00  0.000000000E+00 -4.254828354E+02  4.254828354E+02  0.000000000E+00  0.00000E+00  9.000E+00
      25     1     1     2     0     0 -1.152311589E+02  1.149030594E+02 -5.423423970E+01  2.122434588E+02  1.250000000E+02  0.00000E+00  9.000E+00
      25     1     1     2     0     0  1.563213655E+02 -6.303440145E+01 -1.930308240E+02  2.851238400E+02  1.250000000E+02  0.00000E+00  9.000E+00
      21     1     1     2   511   502 -4.109020665E+01 -5.186865796E+01 -3.257685574E+01  7.375645254E+01  6.743495762E-07  0.00000E+00  9.000E+00
#rwgt            1           1   2.6608306283688564E-002           2       35932           0
</event>
<event>
      5   9999  3.19816E-02  4.92564E+01 -1.00000E+00  1.39448E-01
      21    -1     0     0   502   501  0.000000000E+00  0.000000000E+00  3.019602315E+02  3.019602315E+02  0.000000000E+00  0.00000E+00  9.000E+00
       2    -1     0     0   501     0  0.000000000E+00  0.000000000E+00 -4.524013756E+02  4.524013756E+02  0.000000000E+00  0.00000E+00  9.000E+00
      25     1     1     2     0     0  1.100844707E+02 -8.215279227E+01 -7.956216153E+01  2.020465528E+02  1.250000000E+02  0.00000E+00  9.000E+00
      25     1     1     2     0     0 -7.465682480E+01  4.793183893E+01  2.139862173E+02  2.632227268E+02  1.250000000E+02  0.00000E+00  9.000E+00
       2     1     1     2   502     0 -3.542764587E+01  3.422095334E+01 -2.848651999E+02  2.890923276E+02  3.814697266E-06  0.00000E+00  9.000E+00
#rwgt            1           1   2.9739248201427759E-002           2       35993           0
</event>
<event>
      5   9999  3.19816E-02  5.31924E+01 -1.00000E+00  1.37559E-01
      21    -1     0     0   502   501  0.000000000E+00  0.000000000E+00  5.055544827E+02  5.055544827E+02  0.000000000E+00  0.00000E+00  9.000E+00
      21    -1     0     0   501   511  0.000000000E+00  0.000000000E+00 -4.460059341E+02  4.460059341E+02  0.000000000E+00  0.00000E+00  9.000E+00
      25     1     1     2     0     0  1.293635796E+02 -1.123850378E+02  4.015468623E+02  4.541257701E+02  1.250000000E+02  0.00000E+00  9.000E+00
      25     1     1     2     0     0 -1.637703295E+02  1.529511443E+02 -1.478703105E+02  2.961509786E+02  1.250000000E+02  0.00000E+00  9.000E+00
      21     1     1     2   502   511  3.440674992E+01 -4.056610649E+01 -1.941280032E+02  2.012836681E+02  0.000000000E+00  0.00000E+00  9.000E+00
#rwgt            1           1   2.9767850238786930E-002           2       36078           0
</event>
<event>
      5   9999  3.19816E-02  5.58056E+02 -1.00000E+00  9.75153E-02
       3    -1     0     0   502     0  0.000000000E+00  0.000000000E+00  3.734753055E+03  3.734753055E+03  0.000000000E+00  0.00000E+00  9.000E+00
      21    -1     0     0   501   502  0.000000000E+00  0.000000000E+00 -5.351675934E+02  5.351675934E+02  0.000000000E+00  0.00000E+00  9.000E+00
      25     1     1     2     0     0  5.847788486E+01 -1.725111744E+02  1.578976644E+03  1.594356299E+03  1.250000000E+02  0.00000E+00  9.000E+00
      25     1     1     2     0     0 -5.447232062E+02 -1.013360919E+02 -3.230103169E+02  6.534164367E+02  1.250000000E+02  0.00000E+00  9.000E+00
       3     1     1     2   501     0  4.862453214E+02  2.738472663E+02  1.943619135E+03  2.022147913E+03  3.051757812E-05  0.00000E+00  9.000E+00
#rwgt            1           1   2.6639851585524187E-002           2       36151           0
</event>
<event>
      5   9999  3.19816E-02  3.52300E+02 -1.00000E+00  1.03373E-01
      21    -1     0     0   502   501  0.000000000E+00  0.000000000E+00  4.388442460E+02  4.388442460E+02  0.000000000E+00  0.00000E+00  9.000E+00
       2    -1     0     0   501     0  0.000000000E+00  0.000000000E+00 -1.109496161E+03  1.109496161E+03  0.000000000E+00  0.00000E+00  9.000E+00
      25     1     1     2     0     0  3.795459592E+02  7.222244947E+01  1.854279749E+02  4.464076066E+02  1.250000000E+02  0.00000E+00  9.000E+00
      25     1     1     2     0     0 -9.885897523E+01 -2.851308247E+02 -5.259394957E+02  6.191203738E+02  1.250000000E+02  0.00000E+00  9.000E+00
       2     1     1     2   502     0 -2.806869840E+02  2.129083752E+02 -3.301403939E+02  4.828124262E+02  5.394796609E-06  0.00000E+00  9.000E+00
#rwgt            2          13   7.4442423795168303E-004           2       36190           0
</event>
<event>
      5   9999  3.19816E-02  1.19746E+01 -1.00000E+00  1.87125E-01
      21    -1     0     0   502   501  0.000000000E+00  0.000000000E+00  7.547970179E+02  7.547970179E+02  0.000000000E+00  0.00000E+00  9.000E+00
      21    -1     0     0   501   511  0.000000000E+00  0.000000000E+00 -5.437481151E+01  5.437481151E+01  0.000000000E+00  0.00000E+00  9.000E+00
      25     1     1     2     0     0 -6.107636223E+01  6.785431277E+01  1.153644529E+02  1.930504773E+02  1.250000000E+02  0.00000E+00  9.000E+00
      25     1     1     2     0     0  5.969294853E+01 -5.595992239E+01  5.853788276E+02  6.041424772E+02  1.250000000E+02  0.00000E+00  9.000E+00
      21     1     1     2   502   511  1.383413698E+00 -1.189439038E+01 -3.210740535E-01  1.197887493E+01  1.424893103E-07  0.00000E+00  9.000E+00
#rwgt            1           1   1.9376579983861140E-002           2       36224           0
</event>
<event>
      5   9999  3.19816E-02  2.91374E+01 -1.00000E+00  1.53925E-01
      21    -1     0     0   512   501  0.000000000E+00  0.000000000E+00  6.501032874E+02  6.501032874E+02  0.000000000E+00  0.00000E+00  9.000E+00
      21    -1     0     0   501   502  0.000000000E+00  0.000000000E+00 -7.870071562E+02  7.870071562E+02  0.000000000E+00  0.00000E+00  9.000E+00
      25     1     1     2     0     0 -8.854106824E-01  1.684419051E+02 -4.798125773E+02  5.236588286E+02  1.250000000E+02  0.00000E+00  9.000E+00
      25     1     1     2     0     0 -3.796569359E+00 -1.396831529E+02 -2.540730229E+02  3.157592407E+02  1.250000000E+02  0.00000E+00  9.000E+00
      21     1     1     2   512   502  4.681980041E+00 -2.875875221E+01  5.969817314E+02  5.976923744E+02  7.629394531E-06  0.00000E+00  9.000E+00
#rwgt            1           1   3.3559956164146143E-002           2       36384           0
</event>
<event>
      5   9999  3.19816E-02  2.66803E+02 -1.00000E+00  1.07274E-01
      21    -1     0     0   502   501  0.000000000E+00  0.000000000E+00  1.775495410E+02  1.775495410E+02  0.000000000E+00  0.00000E+00  9.000E+00
       1    -1     0     0   501     0  0.000000000E+00  0.000000000E+00 -3.100167031E+03  3.100167031E+03  0.000000000E+00  0.00000E+00  9.000E+00
      25     1     1     2     0     0 -4.315849337E+02 -1.483506314E+02 -2.702968584E+02  5.449393145E+02  1.250000000E+02  0.00000E+00  9.000E+00
      25     1     1     2     0     0  1.749949989E+02  7.523966863E+01 -3.672435292E+02  4.321771247E+02  1.250000000E+02  0.00000E+00  9.000E+00
       1     1     1     2   502     0  2.565899348E+02  7.311096274E+01 -2.285077102E+03  2.300600133E+03  3.051757812E-05  0.00000E+00  9.000E+00
#rwgt            2          12   4.9346728971945918E-004           2       36462           0
</event>
<event>
      5   9999  3.19816E-02  8.44751E+01 -1.00000E+00  1.27216E-01
      21    -1     0     0   511   501  0.000000000E+00  0.000000000E+00  6.864423839E+02  6.864423839E+02  0.000000000E+00  0.00000E+00  9.000E+00
      21    -1     0     0   501   502  0.000000000E+00  0.000000000E+00 -7.067418155E+02  7.067418155E+02  0.000000000E+00  0.00000E+00  9.000E+00
      25     1     1     2     0     0  5.436394781E+02 -1.863387208E+02 -2.090392806E+02  6.241701866E+02  1.250000000E+02  0.00000E+00  9.000E+00
      25     1     1     2     0     0 -4.889769489E+02  2.507440689E+02  1.454143526E+00  5.635584789E+02  1.250000000E+02  0.00000E+00  9.000E+00
      21     1     1     2   511   502 -5.466252919E+01 -6.440534806E+01  1.872857054E+02  2.054555339E+02  0.000000000E+00  0.00000E+00  9.000E+00
#rwgt            1           1   2.8478460360533378E-002           2       36511           0
</event>
<event>
      5   9999  3.19816E-02  2.99561E+01 -1.00000E+00  1.53084E-01
      21    -1     0     0   512   501  0.000000000E+00  0.000000000E+00  2.406405946E+02  2.406405946E+02  0.000000000E+00  0.00000E+00  9.000E+00
      21    -1     0     0   501   502  0.000000000E+00  0.000000000E+00 -5.927766767E+02  5.927766767E+02  0.000000000E+00  0.00000E+00  9.000E+00
      25     1     1     2     0     0 -1.501437045E+02  1.657461024E+01  1.301653108E+02  2.353420019E+02  1.250000000E+02  0.00000E+00  9.000E+00
      25     1     1     2     0     0  1.626345054E+02 -4.380230839E+01 -5.135837952E+02  5.547629577E+02  1.250000000E+02  0.00000E+00  9.000E+00
      21     1     1     2   512   502 -1.249080093E+01  2.722769814E+01  3.128240220E+01  4.331231166E+01  5.840038640E-07  0.00000E+00  9.000E+00
#rwgt            1           1   3.0590641995612750E-002           2       36632           0
</event>
<event>
      5   9999  3.19816E-02  5.75671E+02 -1.00000E+00  9.71438E-02
      21    -1     0     0   502   501  0.000000000E+00  0.000000000E+00  1.304910450E+03  1.304910450E+03  0.000000000E+00  0.00000E+00  9.000E+00
       2    -1     0     0   501     0  0.000000000E+00  0.000000000E+00 -4.489163237E+02  4.489163237E+02  0.000000000E+00  0.00000E+00  9.000E+00
      25     1     1     2     0     0 -2.474610635E+02 -1.136222708E+02  9.674595660E+01  3.148519946E+02  1.250000000E+02  0.00000E+00  9.000E+00
      25     1     1     2     0     0 -6.015030658E+01  6.002142748E+02  5.519033987E+02  8.271019264E+02  1.250000000E+02  0.00000E+00  9.000E+00
       2     1     1     2   502     0  3.076113701E+02 -4.865920040E+02  2.073447705E+02  6.118728522E+02  1.705984480E-05  0.00000E+00  9.000E+00
#rwgt            2          13   2.0999682081352465E-004           2       37180           0
</event>
<event>
      5   9999  3.19816E-02  3.64185E+02 -1.00000E+00  1.02926E-01
      21    -1     0     0   502   501  0.000000000E+00  0.000000000E+00  1.796943702E+03  1.796943702E+03  0.000000000E+00  0.00000E+00  9.000E+00
       2    -1     0     0   501     0  0.000000000E+00  0.000000000E+00 -1.139981653E+03  1.139981653E+03  0.000000000E+00  0.00000E+00  9.000E+00
      25     1     1     2     0     0  1.559230869E+02 -2.808298306E+02 -1.006715337E+02  3.590782094E+02  1.250000000E+02  0.00000E+00  9.000E+00
      25     1     1     2     0     0 -3.493673653E+02  5.893912861E+02  1.553575005E+03  1.702545136E+03  1.250000000E+02  0.00000E+00  9.000E+00
       2     1     1     2   502     0  1.934442784E+02 -3.085614555E+02 -7.959414219E+02  8.753020094E+02  1.525878906E-05  0.00000E+00  9.000E+00
#rwgt            2          13   2.2981406189914121E-003           2       37379           0
</event>
<event>
      5   9999  3.19816E-02  2.12489E+02 -1.00000E+00  1.10699E-01
      21    -1     0     0   502   501  0.000000000E+00  0.000000000E+00  1.230854550E+03  1.230854550E+03  0.000000000E+00  0.00000E+00  9.000E+00
      21    -1     0     0   501   511  0.000000000E+00  0.000000000E+00 -1.244778093E+03  1.244778093E+03  0.000000000E+00  0.00000E+00  9.000E+00
      25     1     1     2     0     0  3.059197376E+02 -8.693037845E+02  4.967946998E+02  1.054374663E+03  1.250000000E+02  0.00000E+00  9.000E+00
      25     1     1     2     0     0 -4.736884093E+02  9.997087630E+02 -4.436414926E+02  1.198432766E+03  1.250000000E+02  0.00000E+00  9.000E+00
      21     1     1     2   502   511  1.677686718E+02 -1.304049785E+02 -6.707674985E+01  2.228252141E+02  4.264961200E-06  0.00000E+00  9.000E+00
#rwgt            1           1   2.9478492670690686E-002           2       37398           0
</event>
<event>
      5   9999  3.19816E-02  6.95677E+00 -1.00000E+00  2.15935E-01
      21    -1     0     0   502   501  0.000000000E+00  0.000000000E+00  9.316965614E+02  9.316965614E+02  0.000000000E+00  0.00000E+00  9.000E+00
      21    -1     0     0   501   512  0.000000000E+00  0.000000000E+00 -1.568193987E+02  1.568193987E+02  0.000000000E+00  0.00000E+00  9.000E+00
      25     1     1     2     0     0 -2.623469823E+01  1.688454548E+02  5.049111311E+02  5.475009565E+02  1.250000000E+02  0.00000E+00  9.000E+00
      25     1     1     2     0     0  3.166912375E+01 -1.731886927E+02  3.766248078E+02  4.341295919E+02  1.250000000E+02  0.00000E+00  9.000E+00
      21     1     1     2   502   512 -5.434425523E+00  4.343237864E+00 -1.066587762E+02  1.068854117E+02  2.336015456E-06  0.00000E+00  9.000E+00
#rwgt            1           1   3.1263950471286633E-002           2       37561           0
</event>
<event>
      5   9999  3.19816E-02  5.79680E+01 -1.00000E+00  1.35508E-01
      21    -1     0     0   502   511  0.000000000E+00  0.000000000E+00  1.374529494E+02  1.374529494E+02  0.000000000E+00  0.00000E+00  9.000E+00
      21    -1     0     0   501   502  0.000000000E+00  0.000000000E+00 -2.733254655E+03  2.733254655E+03  0.000000000E+00  0.00000E+00  9.000E+00
      25     1     1     2     0     0 -2.661157130E+01  8.685263616E+01 -2.596279411E+03  2.600873572E+03  1.250000000E+02  0.00000E+00  9.000E+00
      25     1     1     2     0     0 -3.135172849E+01 -8.759309395E+01 -7.640561841E+01  1.735462460E+02  1.250000000E+02  0.00000E+00  9.000E+00
      21     1     1     2   501   511  5.796329979E+01  7.404577890E-01  7.688332375E+01  9.628778671E+01  4.862803949E-06  0.00000E+00  9.000E+00
#rwgt            1           1   5.7074661840667978E-002           2       37808           0
</event>
<event>
      5   9999  3.19816E-02  6.20289E+00 -1.00000E+00  2.23252E-01
      21    -1     0     0   502   501  0.000000000E+00  0.000000000E+00  1.569591515E+02  1.569591515E+02  0.000000000E+00  0.00000E+00  9.000E+00
      21    -1     0     0   501   512  0.000000000E+00  0.000000000E+00 -5.065846321E+02  5.065846321E+02  0.000000000E+00  0.00000E+00  9.000E+00
      25     1     1     2     0     0 -1.856145699E+02 -1.558205297E+02 -1.259824549E+02  3.003820650E+02  1.250000000E+02  0.00000E+00  9.000E+00
      25     1     1     2     0     0  1.799258068E+02  1.582931428E+02 -1.935609169E+02  3.324467530E+02  1.250000000E+02  0.00000E+00  9.000E+00
      21     1     1     2   502   512  5.688763058E+00 -2.472613007E+00 -3.008210882E+01  3.071496559E+01  0.000000000E+00  0.00000E+00  9.000E+00
#rwgt            1           1   2.5911773708084028E-002           2       37896           0
</event>
<event>
      5   9999  3.19816E-02  1.50266E+02 -1.00000E+00  1.16363E-01
      21    -1     0     0   502   501  0.000000000E+00  0.000000000E+00  7.153878681E+02  7.153878681E+02  0.000000000E+00  0.00000E+00  9.000E+00
       2    -1     0     0   501     0  0.000000000E+00  0.000000000E+00 -2.744977741E+03  2.744977741E+03  0.000000000E+00  0.00000E+00  9.000E+00
      25     1     1     2     0     0 -9.648066579E+01  8.575740602E+01 -4.960605767E+02  5.276020729E+02  1.250000000E+02  0.00000E+00  9.000E+00
      25     1     1     2     0     0  1.944168663E+02 -1.997245654E+02  6.635838288E+02  7.305178422E+02  1.250000000E+02  0.00000E+00  9.000E+00
       2     1     1     2   502     0 -9.793620049E+01  1.139671594E+02 -2.197113125E+03  2.202245694E+03  0.000000000E+00  0.00000E+00  9.000E+00
#rwgt            1           1   3.6153910395190815E-002           2       38199           0
</event>
<event>
      5   9999  3.19816E-02  9.61305E+00 -1.00000E+00  1.97759E-01
       2    -1     0     0   502     0  0.000000000E+00  0.000000000E+00  4.121993501E+02  4.121993501E+02  0.000000000E+00  0.00000E+00  9.000E+00
      21    -1     0     0   501   502  0.000000000E+00  0.000000000E+00 -1.272658746E+03  1.272658746E+03  0.000000000E+00  0.00000E+00  9.000E+00
      25     1     1     2     0     0  6.105462789E+02 -1.725623427E+02 -4.936159460E+02  8.135270265E+02  1.250000000E+02  0.00000E+00  9.000E+00
      25     1     1     2     0     0 -6.197230082E+02  1.696990552E+02 -4.456850110E+02  7.919056164E+02  1.250000000E+02  0.00000E+00  9.000E+00
       2     1     1     2   501     0  9.176729339E+00  2.863287528E+00  7.884156131E+01  7.942545289E+01  1.651812370E-06  0.00000E+00  9.000E+00
#rwgt            1           1   2.7879485840255271E-002           2       38266           0
</event>
<event>
      5   9999  3.19816E-02  5.75863E+01 -1.00000E+00  1.35663E-01
      21    -1     0     0   511   501  0.000000000E+00  0.000000000E+00  7.718215199E+02  7.718215199E+02  0.000000000E+00  0.00000E+00  9.000E+00
      21    -1     0     0   501   502  0.000000000E+00  0.000000000E+00 -4.827481512E+02  4.827481512E+02  0.000000000E+00  0.00000E+00  9.000E+00
      25     1     1     2     0     0  1.929773992E+02  2.091425672E+02 -2.760236346E+02  4.156861038E+02  1.250000000E+02  0.00000E+00  9.000E+00
      25     1     1     2     0     0 -2.501597920E+02 -2.159513630E+02  9.582388502E+01  3.660903299E+02  1.250000000E+02  0.00000E+00  9.000E+00
      21     1     1     2   511   502  5.718239289E+01  6.808795800E+00  4.692731184E+02  4.727932374E+02  0.000000000E+00  0.00000E+00  9.000E+00
#rwgt            1           1   2.9749211538763348E-002           2       38642           0
</event>
<event>
      5   9999  3.19816E-02  1.02742E+02 -1.00000E+00  1.23302E-01
      21    -1     0     0   512   501  0.000000000E+00  0.000000000E+00  2.991317137E+02  2.991317137E+02  0.000000000E+00  0.00000E+00  9.000E+00
      21    -1     0     0   501   502  0.000000000E+00  0.000000000E+00 -5.250641318E+02  5.250641318E+02  0.000000000E+00  0.00000E+00  9.000E+00
      25     1     1     2     0     0 -6.360573883E+01 -8.545766369E+01 -2.453203026E+02  2.952215323E+02  1.250000000E+02  0.00000E+00  9.000E+00
      25     1     1     2     0     0  1.497131693E+02  2.940862759E+01 -2.035892120E+02  2.834651084E+02  1.250000000E+02  0.00000E+00  9.000E+00
      21     1     1     2   512   502 -8.610743045E+01  5.604903609E+01  2.229770966E+02  2.455092048E+02  6.031565972E-06  0.00000E+00  9.000E+00
#rwgt            1           1   2.9744015185277316E-002           2       38750           0
</event>
<event>
      5   9999  3.19816E-02  6.39236E+01 -1.00000E+00  1.33250E-01
      21    -1     0     0   502   511  0.000000000E+00  0.000000000E+00  1.546359831E+03  1.546359831E+03  0.000000000E+00  0.00000E+00  9.000E+00
      21    -1     0     0   501   502  0.000000000E+00  0.000000000E+00 -3.475328558E+02  3.475328558E+02  0.000000000E+00  0.00000E+00  9.000E+00
      25     1     1     2     0     0  2.310035566E+02  2.541172275E+02 -2.025054117E+02  4.178177237E+02  1.250000000E+02  0.00000E+00  9.000E+00
      25     1     1     2     0     0 -2.711315552E+02 -2.043581044E+02  8.894882919E+02  9.602546415E+02  1.250000000E+02  0.00000E+00  9.000E+00
      21     1     1     2   501   511  4.012799860E+01 -4.975912307E+01  5.118440954E+02  5.158203220E+02  0.000000000E+00  0.00000E+00  9.000E+00
#rwgt            1           1   2.9648860113192819E-002           2       38810           0
</event>
<event>
      5   9999  3.19816E-02  2.15699E+01 -1.00000E+00  1.63706E-01
      21    -1     0     0   502   501  0.000000000E+00  0.000000000E+00  6.227664399E+02  6.227664399E+02  0.000000000E+00  0.00000E+00  9.000E+00
      21    -1     0     0   501   512  0.000000000E+00  0.000000000E+00 -5.815310330E+02  5.815310330E+02  0.000000000E+00  0.00000E+00  9.000E+00
      25     1     1     2     0     0  3.610003223E+02  4.072004094E+02  1.643412230E+02  5.820364625E+02  1.250000000E+02  0.00000E+00  9.000E+00
      25     1     1     2     0     0 -3.598505194E+02 -3.856611948E+02 -4.809501618E+01  5.442105145E+02  1.250000000E+02  0.00000E+00  9.000E+00
      21     1     1     2   502   512 -1.149802913E+00 -2.153921465E+01 -7.501079987E+01  7.805049591E+01  9.536743164E-07  0.00000E+00  9.000E+00
#rwgt            1           1   3.0704029826679684E-002           2       39134           0
</event>
<event>
      5   9999  3.19816E-02  2.07439E+01 -1.00000E+00  1.65071E-01
      21    -1     0     0   511   501  0.000000000E+00  0.000000000E+00  2.948982328E+02  2.948982328E+02  0.000000000E+00  0.00000E+00  9.000E+00
      21    -1     0     0   501   502  0.000000000E+00  0.000000000E+00 -3.580690048E+02  3.580690048E+02  0.000000000E+00  0.00000E+00  9.000E+00
      25     1     1     2     0     0  1.052093037E+02 -2.298448644E+02 -9.811625065E+01  2.985790648E+02  1.250000000E+02  0.00000E+00  9.000E+00
      25     1     1     2     0     0 -9.125979612E+01  2.144916217E+02 -4.805957627E+01  2.688302978E+02  1.250000000E+02  0.00000E+00  9.000E+00
      21     1     1     2   511   502 -1.394950760E+01  1.535324271E+01  8.300505491E+01  8.555787494E+01  9.536743164E-07  0.00000E+00  9.000E+00
#rwgt            1           1   2.8514087178331669E-002           2       39328           0
</event>
<event>
      5   9999  3.19816E-02  5.98818E+01 -1.00000E+00  1.34749E-01
      21    -1     0     0   502   501  0.000000000E+00  0.000000000E+00  1.153474942E+02  1.153474942E+02  0.000000000E+00  0.00000E+00  9.000E+00
      21    -1     0     0   501   512  0.000000000E+00  0.000000000E+00 -8.203693534E+02  8.203693534E+02  0.000000000E+00  0.00000E+00  9.000E+00
      25     1     1     2     0     0 -1.042310811E+02  1.233760960E+02 -2.629054783E+01  2.059173918E+02  1.250000000E+02  0.00000E+00  9.000E+00
      25     1     1     2     0     0  5.003147207E+01 -1.488364341E+02 -4.389961242E+02  4.826986942E+02  1.250000000E+02  0.00000E+00  9.000E+00
      21     1     1     2   502   512  5.419960907E+01  2.546033815E+01 -2.397351872E+02  2.471007617E+02  2.697398305E-06  0.00000E+00  9.000E+00
#rwgt            1           1   2.7561446137623683E-002           2       39472           0
</event>
<event>
      5   9999  3.19816E-02  5.75881E+01 -1.00000E+00  1.35663E-01
      21    -1     0     0   511   501  0.000000000E+00  0.000000000E+00  5.176110792E+02  5.176110792E+02  0.000000000E+00  0.00000E+00  9.000E+00
      21    -1     0     0   501   502  0.000000000E+00  0.000000000E+00 -3.100190289E+02  3.100190289E+02  0.000000000E+00  0.00000E+00  9.000E+00
      25     1     1     2     0     0 -5.293094450E+01  1.093220905E+02  4.135657325E+02  4.487924013E+02  1.250000000E+02  0.00000E+00  9.000E+00
      25     1     1     2     0     0  3.697656148E+00 -7.944783389E+01 -2.604014773E+02  2.995989992E+02  1.250000000E+02  0.00000E+00  9.000E+00
      21     1     1     2   511   502  4.923328835E+01 -2.987425664E+01  5.442779506E+01  7.923870750E+01  1.168007728E-06  0.00000E+00  9.000E+00
#rwgt            1           1   2.8195518622190219E-002           2       39588           0
</event>
<event>
      5   9999  3.19816E-02  2.56220E+01 -1.00000E+00  1.57956E-01
      21    -1     0     0   502   501  0.000000000E+00  0.000000000E+00  4.421752774E+02  4.421752774E+02  0.000000000E+00  0.00000E+00  9.000E+00
      21    -1     0     0   512   502  0.000000000E+00  0.000000000E+00 -4.395199530E+02  4.395199530E+02  0.000000000E+00  0.00000E+00  9.000E+00
      25     1     1     2     0     0  3.455682476E+02  1.299368037E+02  5.360046684E+01  3.934450365E+02  1.250000000E+02  0.00000E+00  9.000E+00
      25     1     1     2     0     0 -3.445078089E+02 -1.043367868E+02  4.980956609E+01  3.842886784E+02  1.250000000E+02  0.00000E+00  9.000E+00
      21     1     1     2   512   501 -1.060438650E+00 -2.560001694E+01 -1.007547085E+02  1.039615154E+02  1.348699152E-06  0.00000E+00  9.000E+00
#rwgt            1           1   2.8978829051481501E-002           2       39672           0
</event>
<event>
      5   9999  3.19816E-02  3.40964E+02 -1.00000E+00  1.03817E-01
      21    -1     0     0   502   511  0.000000000E+00  0.000000000E+00  6.059430103E+02  6.059430103E+02  0.000000000E+00  0.00000E+00  9.000E+00
      21    -1     0     0   501   502  0.000000000E+00  0.000000000E+00 -9.133081422E+02  9.133081422E+02  0.000000000E+00  0.00000E+00  9.000E+00
      25     1     1     2     0     0 -3.904809894E+02 -1.929373481E+02 -2.234566867E+02  5.052307534E+02  1.250000000E+02  0.00000E+00  9.000E+00
      25     1     1     2     0     0  3.243919176E+02  5.274352060E+02 -1.852733263E+02  6.583078445E+02  1.250000000E+02  0.00000E+00  9.000E+00
      21     1     1     2   501   511  6.608907186E+01 -3.344978579E+02  1.013648811E+02  3.557125546E+02  0.000000000E+00  0.00000E+00  9.000E+00
#rwgt            2          11   3.2446748264656623E-003           2       39805           0
</event>
<event>
      5   9999  3.19816E-02  2.32852E+02 -1.00000E+00  1.09295E-01
       2    -1     0     0   502     0  0.000000000E+00  0.000000000E+00  5.896870241E+02  5.896870241E+02  0.000000000E+00  0.00000E+00  9.000E+00
      21    -1     0     0   501   502  0.000000000E+00  0.000000000E+00 -2.923592105E+02  2.923592105E+02  0.000000000E+00  0.00000E+00  9.000E+00
      25     1     1     2     0     0 -1.259701820E+02 -2.936224367E+02  1.877315995E+01  3.435986811E+02  1.250000000E+02  0.00000E+00  9.000E+00
      25     1     1     2     0     0  1.496588822E+02  6.197804158E+01  2.156041184E+02  2.972359241E+02  1.250000000E+02  0.00000E+00  9.000E+00
       2     1     1     2   501     0 -2.368870026E+01  2.316443952E+02  6.295053522E+01  2.412116295E+02  4.815819234E-06  0.00000E+00  9.000E+00
#rwgt            1           1   3.2028186948919034E-002           2       39825           0
</event>
<event>
      5   9999  3.19816E-02  4.12930E+01 -1.00000E+00  1.43988E-01
      21    -1     0     0   511   501  0.000000000E+00  0.000000000E+00  9.727896156E+02  9.727896156E+02  0.000000000E+00  0.00000E+00  9.000E+00
      21    -1     0     0   501   502  0.000000000E+00  0.000000000E+00 -3.271722400E+02  3.271722400E+02  0.000000000E+00  0.00000E+00  9.000E+00
      25     1     1     2     0     0  4.104428252E+02 -1.244076157E+02 -5.416427168E+01  4.499992622E+02  1.250000000E+02  0.00000E+00  9.000E+00
      25     1     1     2     0     0 -3.726451641E+02  1.077807996E+02  4.956533147E+02  6.416995617E+02  1.250000000E+02  0.00000E+00  9.000E+00
      21     1     1     2   511   502 -3.779766113E+01  1.662681610E+01  2.041283326E+02  2.082630317E+02  0.000000000E+00  0.00000E+00  9.000E+00
#rwgt            2          11   1.7506890708571933E-003           2       39869           0
</event>
<event>
      5   9999  3.19816E-02  5.59667E+01 -1.00000E+00  1.36338E-01
      21    -1     0     0   502   501  0.000000000E+00  0.000000000E+00  3.553419129E+02  3.553419129E+02  0.000000000E+00  0.00000E+00  9.000E+00
       2    -1     0     0   501     0  0.000000000E+00  0.000000000E+00 -1.173465664E+03  1.173465664E+03  0.000000000E+00  0.00000E+00  9.000E+00
      25     1     1     2     0     0 -2.878461337E+02  4.436049043E+02 -4.062260104E+02  6.784432765E+02  1.250000000E+02  0.00000E+00  9.000E+00
      25     1     1     2     0     0  3.322464404E+02 -4.776766764E+02 -1.948578322E+02  6.262246235E+02  1.250000000E+02  0.00000E+00  9.000E+00
       2     1     1     2   502     0 -4.440030666E+01  3.407177210E+01 -2.170399089E+02  2.241396773E+02  2.697398305E-06  0.00000E+00  9.000E+00
#rwgt            1           1   3.0317522792904616E-002           2       39904           0
</event>
<event>
      5   9999  3.50617E-02  6.55735E+01 -1.00000E+00  1.32674E-01
      21    -1     0     0   502   501  0.000000000E+00  0.000000000E+00  1.541855964E+03  1.541855964E+03  0.000000000E+00  0.00000E+00  9.000E+00
      21    -1     0     0   511   502  0.000000000E+00  0.000000000E+00 -9.331758207E+02  9.331758207E+02  0.000000000E+00  0.00000E+00  9.000E+00
      25     1     1     2     0     0 -1.145561599E+03  1.267442360E+02  5.657459071E+02  1.289987950E+03  1.250000000E+02  0.00000E+00  9.000E+00
      25     1     1     2     0     0  1.089476672E+03 -1.607201513E+02  7.726150716E+01  1.111028679E+03  1.250000000E+02  0.00000E+00  9.000E+00
      21     1     1     2   511   501  5.608492691E+01  3.397591525E+01 -3.432727053E+01  7.401515618E+01  1.719260824E-06  0.00000E+00  9.000E+00
#rwgt            1           1   8.0566316302730784E-002           2       39955           0
</event>
<event>
      5   9999  3.19816E-02  1.25336E+02 -1.00000E+00  1.19572E-01
      21    -1     0     0   502   501  0.000000000E+00  0.000000000E+00  1.644701896E+03  1.644701896E+03  0.000000000E+00  0.00000E+00  9.000E+00
      21    -1     0     0   512   502  0.000000000E+00  0.000000000E+00 -2.388708999E+02  2.388708999E+02  0.000000000E+00  0.00000E+00  9.000E+00
      25     1     1     2     0     0  1.454997618E+02  4.700388873E+02  1.012656958E+03  1.132786763E+03  1.250000000E+02  0.00000E+00  9.000E+00
      25     1     1     2     0     0 -2.512134129E+02 -4.027054872E+02  3.874523756E+02  6.253193037E+02  1.250000000E+02  0.00000E+00  9.000E+00
      21     1     1     2   512   501  1.057136511E+02 -6.733340006E+01  5.721663095E+00  1.254667295E+02  2.571993948E-06  0.00000E+00  9.000E+00
#rwgt            1           1   2.8043402004500423E-002           2       40151           0
</event>
<event>
      5   9999  3.19816E-02  5.83062E+02 -1.00000E+00  9.69921E-02
      21    -1     0     0   502   511  0.000000000E+00  0.000000000E+00  1.850375463E+03  1.850375463E+03  0.000000000E+00  0.00000E+00  9.000E+00
      21    -1     0     0   501   502  0.000000000E+00  0.000000000E+00 -5.974055464E+02  5.974055464E+02  0.000000000E+00  0.00000E+00  9.000E+00
      25     1     1     2     0     0  3.580818206E+02  7.995380395E+02  6.863761285E+02  1.119920022E+03  1.250000000E+02  0.00000E+00  9.000E+00
      25     1     1     2     0     0  9.561796189E+01 -4.333169635E+02 -6.808866207E+01  4.660122868E+02  1.250000000E+02  0.00000E+00  9.000E+00
      21     1     1     2   501   511 -4.536997825E+02 -3.662210759E+02  6.346824497E+02  8.618486997E+02  7.629394531E-06  0.00000E+00  9.000E+00
#rwgt            2          11   1.5419266963981307E-003           2       40308           0
</event>
<event>
      5   9999  3.19816E-02  2.21566E+02 -1.00000E+00  1.10053E-01
      21    -1     0     0   502   501  0.000000000E+00  0.000000000E+00  1.676730124E+03  1.676730124E+03  0.000000000E+00  0.00000E+00  9.000E+00
       2    -1     0     0   501     0  0.000000000E+00  0.000000000E+00 -1.013127875E+03  1.013127875E+03  0.000000000E+00  0.00000E+00  9.000E+00
      25     1     1     2     0     0  2.749152185E+02 -3.292332485E+02  1.320547199E+03  1.394074178E+03  1.250000000E+02  0.00000E+00  9.000E+00
      25     1     1     2     0     0 -7.727175504E+01  2.290914805E+02  2.455007197E+02  3.665370840E+02  1.250000000E+02  0.00000E+00  9.000E+00
       2     1     1     2   502     0 -1.976434634E+02  1.001417681E+02 -9.024456695E+02  9.292467373E+02  1.078959322E-05  0.00000E+00  9.000E+00
#rwgt            1           1   3.0540893018840873E-002           2       40328           0
</event>
<event>
      5   9999  3.19816E-02  3.29482E+02 -1.00000E+00  1.04286E-01
      21    -1     0     0   502   501  0.000000000E+00  0.000000000E+00  1.742598539E+03  1.742598539E+03  0.000000000E+00  0.00000E+00  9.000E+00
      21    -1     0     0   501   511  0.000000000E+00  0.000000000E+00 -2.280014400E+02  2.280014400E+02  0.000000000E+00  0.00000E+00  9.000E+00
      25     1     1     2     0     0 -3.519312122E+02 -1.841792162E+02  2.881544295E+02  5.063946456E+02  1.250000000E+02  0.00000E+00  9.000E+00
      25     1     1     2     0     0  2.926008953E+02 -1.399174010E+02  1.014620529E+03  1.072507333E+03  1.250000000E+02  0.00000E+00  9.000E+00
      21     1     1     2   502   511  5.933031695E+01  3.240966172E+02  2.118221405E+02  3.916979998E+02  9.344061824E-06  0.00000E+00  9.000E+00
#rwgt            1           1   2.8479796145991880E-002           2       40418           0
</event>
<event>
      5   9999  3.19816E-02  2.11629E+01 -1.00000E+00  1.64369E-01
      21    -1     0     0   502   512  0.000000000E+00  0.000000000E+00  2.937393583E+01  2.937393583E+01  0.000000000E+00  0.00000E+00  9.000E+00
      21    -1     0     0   501   502  0.000000000E+00  0.000000000E+00 -1.216472452E+03  1.216472452E+03  0.000000000E+00  0.00000E+00  9.000E+00
      25     1     1     2     0     0  3.273321080E+01 -5.019791724E+01 -2.504609950E+02  2.862638713E+02  1.250000000E+02  0.00000E+00  9.000E+00
      25     1     1     2     0     0 -1.235688758E+01  5.591392751E+01 -9.255204048E+02  9.356773374E+02  1.250000000E+02  0.00000E+00  9.000E+00
      21     1     1     2   501   512 -2.037632322E+01 -5.716010265E+00 -1.111711662E+01  2.390517942E+01  5.717076687E-07  0.00000E+00  9.000E+00
#rwgt            1           1   3.5250427325368788E-002           2       40464           0
</event>
<event>
      5   9999  3.88763E-02  6.16191E+01 -1.00000E+00  1.34088E-01
      21    -1     0     0   502   511  0.000000000E+00  0.000000000E+00  2.543224407E+02  2.543224407E+02  0.000000000E+00  0.00000E+00  9.000E+00
      21    -1     0     0   501   502  0.000000000E+00  0.000000000E+00 -1.744305193E+03  1.744305193E+03  0.000000000E+00  0.00000E+00  9.000E+00
      25     1     1     2     0     0 -2.757482771E+01 -1.114943922E+02 -1.358148343E+03  1.368715929E+03  1.250000000E+02  0.00000E+00  9.000E+00
      25     1     1     2     0     0 -3.383581285E+01  1.165589888E+02 -3.565815140E+02  3.968705535E+02  1.250000000E+02  0.00000E+00  9.000E+00
      21     1     1     2   501   511  6.141064056E+01 -5.064596545E+00  2.247471053E+02  2.330411514E+02  8.092194914E-06  0.00000E+00  9.000E+00
#rwgt            1           1  0.11823430119985312                2       40607           0
</event>
<event>
      5   9999  3.19816E-02  1.72803E+01 -1.00000E+00  1.71783E-01
      21    -1     0     0   502   501  0.000000000E+00  0.000000000E+00  4.372278558E+02  4.372278558E+02  0.000000000E+00  0.00000E+00  9.000E+00
      21    -1     0     0   512   502  0.000000000E+00  0.000000000E+00 -5.807566231E+02  5.807566231E+02  0.000000000E+00  0.00000E+00  9.000E+00
      25     1     1     2     0     0 -2.672552520E+01  2.366779475E+02  3.562133492E+02  4.463671747E+02  1.250000000E+02  0.00000E+00  9.000E+00
      25     1     1     2     0     0  3.915973477E+01 -2.246780358E+02 -4.728029902E+02  5.396122424E+02  1.250000000E+02  0.00000E+00  9.000E+00
      21     1     1     2   512   501 -1.243420957E+01 -1.199991161E+01 -2.693912629E+01  3.200506166E+01  5.840038640E-07  0.00000E+00  9.000E+00
#rwgt            1           1   2.8872038893542298E-002           2       40697           0
</event>
<event>
      5   9999  3.19816E-02  3.00816E+01 -1.00000E+00  1.52958E-01
      21    -1     0     0   502   501  0.000000000E+00  0.000000000E+00  8.329502239E+02  8.329502239E+02  0.000000000E+00  0.00000E+00  9.000E+00
      21    -1     0     0   511   502  0.000000000E+00  0.000000000E+00 -3.355718055E+03  3.355718055E+03  0.000000000E+00  0.00000E+00  9.000E+00
      25     1     1     2     0     0 -8.137812780E+01 -1.531560829E+03 -1.742378266E+03  2.324609213E+03  1.250000000E+02  0.00000E+00  9.000E+00
      25     1     1     2     0     0  6.180842279E+01  1.508715089E+03 -5.199356917E+02  1.601873785E+03  1.250000000E+02  0.00000E+00  9.000E+00
      21     1     1     2   511   501  1.956970501E+01  2.284573986E+01 -2.604538739E+02  2.621852811E+02  5.394796609E-06  0.00000E+00  9.000E+00
#rwgt            1           1   3.4481889964412427E-002           2       40892           0
</event>
<event>
      5   9999  3.19816E-02  4.55169E+01 -1.00000E+00  1.41444E-01
      21    -1     0     0   502   512  0.000000000E+00  0.000000000E+00  6.176531975E+02  6.176531975E+02  0.000000000E+00  0.00000E+00  9.000E+00
      21    -1     0     0   501   502  0.000000000E+00  0.000000000E+00 -1.722540347E+03  1.722540347E+03  0.000000000E+00  0.00000E+00  9.000E+00
      25     1     1     2     0     0 -7.294872196E+02  3.886289047E+01 -2.319477052E+01  7.415018039E+02  1.250000000E+02  0.00000E+00  9.000E+00
      25     1     1     2     0     0  6.843008562E+02 -3.338728658E+01 -1.246423365E+03  1.427788002E+03  1.250000000E+02  0.00000E+00  9.000E+00
      21     1     1     2   501   512  4.518636341E+01 -5.475603888E+00  1.647309869E+02  1.709037382E+02  3.814697266E-06  0.00000E+00  9.000E+00
#rwgt            1           1   3.0158364990156238E-002           2       41089           0
</event>
<event>
      5   9999  3.19816E-02  7.93762E+01 -1.00000E+00  1.28514E-01
      21    -1     0     0   502   501  0.000000000E+00  0.000000000E+00  2.727153166E+03  2.727153166E+03  0.000000000E+00  0.00000E+00  9.000E+00
      21    -1     0     0   511   502  0.000000000E+00  0.000000000E+00 -6.720319099E+02  6.720319099E+02  0.000000000E+00  0.00000E+00  9.000E+00
      25     1     1     2     0     0 -1.899622085E+02 -7.808331791E+02 -1.879267777E+02  8.347020834E+02  1.250000000E+02  0.00000E+00  9.000E+00
      25     1     1     2     0     0  1.168380247E+02  7.499555294E+02  2.325866506E+03  2.449768238E+03  1.250000000E+02  0.00000E+00  9.000E+00
      21     1     1     2   511   501  7.312418377E+01  3.087764971E+01 -8.281847185E+01  1.147147540E+02  1.651812370E-06  0.00000E+00  9.000E+00
#rwgt            1           1   6.0655391105263440E-002           2       41235           0
</event>
<event>
      5   9999  3.19816E-02  3.47352E+01 -1.00000E+00  1.48747E-01
      21    -1     0     0   502   501  0.000000000E+00  0.000000000E+00  9.957290250E+02  9.957290250E+02  0.000000000E+00  0.00000E+00  9.000E+00
      21    -1     0     0   501   512  0.000000000E+00  0.000000000E+00 -2.279331130E+02  2.279331130E+02  0.000000000E+00  0.00000E+00  9.000E+00
      25     1     1     2     0     0  3.497810168E+02  4.386799113E+01  3.689510092E+02  5.253770147E+02  1.250000000E+02  0.00000E+00  9.000E+00
      25     1     1     2     0     0 -3.571266306E+02 -7.781755984E+01  4.763846560E+02  6.133207509E+02  1.250000000E+02  0.00000E+00  9.000E+00
      21     1     1     2   502   512  7.345613865E+00  3.394956870E+01 -7.753975327E+01  8.496437251E+01  1.651812370E-06  0.00000E+00  9.000E+00
#rwgt            1           1   2.8655095902055550E-002           2       41363           0
</event>
<event>
      5   9999  3.19816E-02  1.75125E+01 -1.00000E+00  1.71273E-01
      21    -1     0     0   502   501  0.000000000E+00  0.000000000E+00  3.143372646E+02  3.143372646E+02  0.000000000E+00  0.00000E+00  9.000E+00
      21    -1     0     0   501   511  0.000000000E+00  0.000000000E+00 -2.444974857E+02  2.444974857E+02  0.000000000E+00  0.00000E+00  9.000E+00
      25     1     1     2     0     0 -1.791625559E+02 -1.360925017E+01  1.765409409E+02  2.812047954E+02  1.250000000E+02  0.00000E+00  9.000E+00
      25     1     1     2     0     0  1.878832510E+02  2.879599697E+01 -7.175905716E+01  2.385449386E+02  1.250000000E+02  0.00000E+00  9.000E+00
      21     1     1     2   502   511 -8.720695129E+00 -1.518674680E+01 -3.494210490E+01  3.908501627E+01  0.000000000E+00  0.00000E+00  9.000E+00
#rwgt            1           1   2.9646455601938352E-002           2       41619           0
</event>
<event>
      5   9999  3.19816E-02  3.49446E+01 -1.00000E+00  1.48576E-01
      21    -1     0     0   512   501  0.000000000E+00  0.000000000E+00  3.071748314E+03  3.071748314E+03  0.000000000E+00  0.00000E+00  9.000E+00
      21    -1     0     0   501   502  0.000000000E+00  0.000000000E+00 -3.325101053E+02  3.325101053E+02  0.000000000E+00  0.00000E+00  9.000E+00
      25     1     1     2     0     0  6.452005235E+02  5.086802570E+02  7.354234479E+02  1.109735089E+03  1.250000000E+02  0.00000E+00  9.000E+00
      25     1     1     2     0     0 -6.767945124E+02 -4.937488070E+02  1.091818948E+03  1.381858282E+03  1.250000000E+02  0.00000E+00  9.000E+00
      21     1     1     2   512   502  3.159398890E+01 -1.493145000E+01  9.119958127E+02  9.126650485E+02  0.000000000E+00  0.00000E+00  9.000E+00
#rwgt            1           1   2.2396312674087992E-002           2       41778           0
</event>
<event>
      5   9999  3.19816E-02  1.02972E+02 -1.00000E+00  1.23258E-01
      21    -1     0     0   502   501  0.000000000E+00  0.000000000E+00  1.109769578E+03  1.109769578E+03  0.000000000E+00  0.00000E+00  9.000E+00
      21    -1     0     0   511   502  0.000000000E+00  0.000000000E+00 -2.039888303E+02  2.039888303E+02  0.000000000E+00  0.00000E+00  9.000E+00
      25     1     1     2     0     0 -6.533139233E+01 -9.713274218E+01  9.361659015E+02  9.517008750E+02  1.250000000E+02  0.00000E+00  9.000E+00
      25     1     1     2     0     0  1.681260584E+02  1.031812387E+02 -8.117703893E+01  2.472396634E+02  1.250000000E+02  0.00000E+00  9.000E+00
      21     1     1     2   511   501 -1.027946660E+02 -6.048496562E+00  5.079188562E+01  1.148178702E+02  6.743495762E-07  0.00000E+00  9.000E+00
#rwgt            1           1   2.7237392235960028E-002           2       41974           0
</event>
<event>
      5   9999  3.19816E-02  1.06359E+02 -1.00000E+00  1.22636E-01
      21    -1     0     0   502   512  0.000000000E+00  0.000000000E+00  1.626978746E+03  1.626978746E+03  0.000000000E+00  0.00000E+00  9.000E+00
      21    -1     0     0   501   502  0.000000000E+00  0.000000000E+00 -3.102837690E+02  3.102837690E+02  0.000000000E+00  0.00000E+00  9.000E+00
      25     1     1     2     0     0 -1.232039181E+02  2.896197042E+02  1.357031483E+03  1.398648714E+03  1.250000000E+02  0.00000E+00  9.000E+00
      25     1     1     2     0     0  2.619505314E+01 -3.332257741E+02 -1.488565599E+02  3.866637723E+02  1.250000000E+02  0.00000E+00  9.000E+00
      21     1     1     2   501   512  9.700886499E+01  4.360606989E+01  1.085200543E+02  1.519500293E+02  1.348699152E-06  0.00000E+00  9.000E+00
#rwgt            1           1   2.6596020597682839E-002           2       42016           0
</event>
<event>
      5   9999  3.19816E-02  5.75490E+01 -1.00000E+00  1.35679E-01
      21    -1     0     0   502   501  0.000000000E+00  0.000000000E+00  6.296530069E+02  6.296530069E+02  0.000000000E+00  0.00000E+00  9.000E+00
      21    -1     0     0   511   502  0.000000000E+00  0.000000000E+00 -1.318937496E+02  1.318937496E+02  0.000000000E+00  0.00000E+00  9.000E+00
      25     1     1     2     0     0 -7.737924728E+01  1.137576588E+02  1.152698108E+00  1.858888957E+02  1.250000000E+02  0.00000E+00  9.000E+00
      25     1     1     2     0     0  6.463796253E+01 -5.763679375E+01  4.952733444E+02  5.180933814E+02  1.250000000E+02  0.00000E+00  9.000E+00
      21     1     1     2   511   501  1.274128474E+01 -5.612086501E+01  1.333214749E+00  5.756447940E+01  1.028072137E-06  0.00000E+00  9.000E+00
#rwgt            1           1   2.1408953389930176E-002           2       42105           0
</event>
<event>
      5   9999  3.19816E-02  8.16769E+02 -1.00000E+00  9.31521E-02
       2    -1     0     0   502     0  0.000000000E+00  0.000000000E+00  1.649716185E+03  1.649716185E+03  0.000000000E+00  0.00000E+00  9.000E+00
      21    -1     0     0   501   502  0.000000000E+00  0.000000000E+00 -1.306913290E+03  1.306913290E+03  0.000000000E+00  0.00000E+00  9.000E+00
      25     1     1     2     0     0 -9.740927628E+01 -8.964342784E+01 -7.120677191E+02  7.349761546E+02  1.250000000E+02  0.00000E+00  9.000E+00
      25     1     1     2     0     0  9.026582160E+02 -4.705079650E+01  3.247350143E+01  9.130636126E+02  1.250000000E+02  0.00000E+00  9.000E+00
       2     1     1     2   501     0 -8.052489397E+02  1.366942243E+02  1.022397113E+03  1.308589708E+03  1.525878906E-05  0.00000E+00  9.000E+00
#rwgt            2          18   1.2743080695488906E-003           2       42202           0
</event>
<event>
      5   9999  3.19816E-02  1.20521E+02 -1.00000E+00  1.20288E-01
      21    -1     0     0   502   501  0.000000000E+00  0.000000000E+00  8.405101374E+02  8.405101374E+02  0.000000000E+00  0.00000E+00  9.000E+00
      21    -1     0     0   511   502  0.000000000E+00  0.000000000E+00 -2.355113857E+02  2.355113857E+02  0.000000000E+00  0.00000E+00  9.000E+00
      25     1     1     2     0     0 -3.707012388E+01 -2.581477700E+02  3.889498293E+02  4.846869453E+02  1.250000000E+02  0.00000E+00  9.000E+00
      25     1     1     2     0     0  6.566709371E+01  3.752269956E+02  2.416695739E+02  4.681203354E+02  1.250000000E+02  0.00000E+00  9.000E+00
      21     1     1     2   511   501 -2.859696983E+01 -1.170792257E+02 -2.562065144E+01  1.232142425E+02  1.390207266E-06  0.00000E+00  9.000E+00
#rwgt            1           1   2.9170543366442373E-002           2       42236           0
</event>
<event>
      5   9999  3.19816E-02  3.80502E+02 -1.00000E+00  1.02343E-01
      21    -1     0     0   512   501  0.000000000E+00  0.000000000E+00  9.438211832E+02  9.438211832E+02  0.000000000E+00  0.00000E+00  9.000E+00
      21    -1     0     0   501   502  0.000000000E+00  0.000000000E+00 -8.114171036E+02  8.114171036E+02  0.000000000E+00  0.00000E+00  9.000E+00
      25     1     1     2     0     0  1.082593244E+02  3.858157168E+02 -6.522643687E+02  7.756594970E+02  1.250000000E+02  0.00000E+00  9.000E+00
      25     1     1     2     0     0  5.312363022E+01 -4.123244064E+01  4.693632143E+01  1.495000084E+02  1.250000000E+02  0.00000E+00  9.000E+00
      21     1     1     2   512   502 -1.613829546E+02 -3.445832761E+02  7.377321269E+02  8.300787814E+02  1.078959322E-05  0.00000E+00  9.000E+00
#rwgt            2          11   5.3559445478333478E-003           2       42460           0
</event>
<event>
      5   9999  3.19816E-02  2.22056E+02 -1.00000E+00  1.10019E-01
      21    -1     0     0   502   511  0.000000000E+00  0.000000000E+00  8.111979102E+02  8.111979102E+02  0.000000000E+00  0.00000E+00  9.000E+00
      21    -1     0     0   501   502  0.000000000E+00  0.000000000E+00 -6.317438625E+02  6.317438625E+02  0.000000000E+00  0.00000E+00  9.000E+00
      25     1     1     2     0     0  1.872404609E+02 -5.667732799E+02 -1.522689577E+02  6.285712183E+02  1.250000000E+02  0.00000E+00  9.000E+00
      25     1     1     2     0     0  2.285179482E+01  4.948690299E+02  1.657331969E+02  5.371313190E+02  1.250000000E+02  0.00000E+00  9.000E+00
      21     1     1     2   501   511 -2.100922558E+02  7.190425003E+01  1.659898084E+02  2.772392353E+02  5.394796609E-06  0.00000E+00  9.000E+00
#rwgt            1           1   3.0765335597328452E-002           2       42480           0
</event>
<event>
      5   9999  3.19816E-02  4.33969E+01 -1.00000E+00  1.42678E-01
      21    -1     0     0   502   512  0.000000000E+00  0.000000000E+00  8.263069612E+02  8.263069612E+02  0.000000000E+00  0.00000E+00  9.000E+00
      21    -1     0     0   501   502  0.000000000E+00  0.000000000E+00 -2.840207864E+02  2.840207864E+02  0.000000000E+00  0.00000E+00  9.000E+00
      25     1     1     2     0     0 -1.250306320E+02 -4.469581404E+01 -1.516236158E+02  2.371604849E+02  1.250000000E+02  0.00000E+00  9.000E+00
      25     1     1     2     0     0  1.080796961E+02  8.464523887E+01  7.947698926E+00  1.858338050E+02  1.250000000E+02  0.00000E+00  9.000E+00
      21     1     1     2   501   512  1.695093588E+01 -3.994942484E+01  6.859620917E+02  6.873334577E+02  0.000000000E+00  0.00000E+00  9.000E+00
#rwgt            1           1   2.4675133014467318E-002           2       42542           0
</event>
<event>
      5   9999  3.19816E-02  8.41006E+01 -1.00000E+00  1.27307E-01
      21    -1     0     0   511   501  0.000000000E+00  0.000000000E+00  1.895122893E+02  1.895122893E+02  0.000000000E+00  0.00000E+00  9.000E+00
      21    -1     0     0   501   502  0.000000000E+00  0.000000000E+00 -3.099375060E+02  3.099375060E+02  0.000000000E+00  0.00000E+00  9.000E+00
      25     1     1     2     0     0 -5.891049290E+00 -1.533026360E+02 -1.012801552E+02  2.223040092E+02  1.250000000E+02  0.00000E+00  9.000E+00
      25     1     1     2     0     0  5.700017315E+01  8.651365163E+01 -7.222665284E+01  1.776944598E+02  1.250000000E+02  0.00000E+00  9.000E+00
      21     1     1     2   511   502 -5.110912386E+01  6.678898439E+01  5.308159127E+01  9.945132633E+01  1.507891493E-06  0.00000E+00  9.000E+00
#rwgt            1           1   3.0150818460338423E-002           2       42641           0
</event>
<event>
      5   9999  3.19816E-02  1.95152E+01 -1.00000E+00  1.67253E-01
      21    -1     0     0   502   512  0.000000000E+00  0.000000000E+00  2.066799160E+02  2.066799160E+02  0.000000000E+00  0.00000E+00  9.000E+00
      21    -1     0     0   501   502  0.000000000E+00  0.000000000E+00 -3.828607215E+02  3.828607215E+02  0.000000000E+00  0.00000E+00  9.000E+00
      25     1     1     2     0     0  1.013937443E+00 -9.174146661E+01 -3.176387355E+02  3.534641298E+02  1.250000000E+02  0.00000E+00  9.000E+00
      25     1     1     2     0     0 -1.120529554E+01  1.083841499E+02  1.097808900E+02  1.988706273E+02  1.250000000E+02  0.00000E+00  9.000E+00
      21     1     1     2   501   512  1.019135810E+01 -1.664268326E+01  3.167703994E+01  3.720588052E+01  4.768371582E-07  0.00000E+00  9.000E+00
#rwgt            1           1   3.1853464974063196E-002           2       42687           0
</event>
<event>
      5   9999  3.19816E-02  8.37957E+01 -1.00000E+00  1.27383E-01
      21    -1     0     0   502   501  0.000000000E+00  0.000000000E+00  6.407213158E+02  6.407213158E+02  0.000000000E+00  0.00000E+00  9.000E+00
      21    -1     0     0   501   511  0.000000000E+00  0.000000000E+00 -2.596873233E+02  2.596873233E+02  0.000000000E+00  0.00000E+00  9.000E+00
      25     1     1     2     0     0  1.813573514E+02  4.612522858E+01  6.753059927E+01  2.349540539E+02  1.250000000E+02  0.00000E+00  9.000E+00
      25     1     1     2     0     0 -2.298372936E+02 -1.144729450E+02  4.334906523E+02  5.191034408E+02  1.250000000E+02  0.00000E+00  9.000E+00
      21     1     1     2   502   511  4.847994220E+01  6.834771645E+01 -1.199872591E+02  1.463511444E+02  0.000000000E+00  0.00000E+00  9.000E+00
#rwgt            1           1   2.7686383393093129E-002           2       42825           0
</event>
<event>
      5   9999  3.19816E-02  1.11519E+01 -1.00000E+00  1.90438E-01
      21    -1     0     0   502   501  0.000000000E+00  0.000000000E+00  1.917345302E+03  1.917345302E+03  0.000000000E+00  0.00000E+00  9.000E+00
      21    -1     0     0   512   502  0.000000000E+00  0.000000000E+00 -2.769426044E+01  2.769426044E+01  0.000000000E+00  0.00000E+00  9.000E+00
      25     1     1     2     0     0  4.445058260E+01  5.323707433E+01  1.020738452E+03  1.030699775E+03  1.250000000E+02  0.00000E+00  9.000E+00
      25     1     1     2     0     0 -5.066210932E+01 -6.249891196E+01  8.835333615E+02  8.959514296E+02  1.250000000E+02  0.00000E+00  9.000E+00
      21     1     1     2   512   501  6.211526720E+00  9.261837629E+00 -1.462077199E+01  1.838835703E+01  9.536743164E-07  0.00000E+00  9.000E+00
#rwgt            1           1   7.6186562176239897E-002           2       42901           0
</event>
<event>
      5   9999  3.19816E-02  8.09208E+00 -1.00000E+00  2.07023E-01
      21    -1     0     0   502   501  0.000000000E+00  0.000000000E+00  2.495768300E+02  2.495768300E+02  0.000000000E+00  0.00000E+00  9.000E+00
      21    -1     0     0   511   502  0.000000000E+00  0.000000000E+00 -7.143645278E+02  7.143645278E+02  0.000000000E+00  0.00000E+00  9.000E+00
      25     1     1     2     0     0  9.984621199E+01  3.676708397E+02 -3.690340748E+02  5.449424381E+02  1.250000000E+02  0.00000E+00  9.000E+00
      25     1     1     2     0     0 -9.341254030E+01 -3.627627130E+02 -8.243459729E+01  4.034143669E+02  1.250000000E+02  0.00000E+00  9.000E+00
      21     1     1     2   511   501 -6.433671690E+00 -4.908126744E+00 -1.331902574E+01  1.558455281E+01  2.920019320E-07  0.00000E+00  9.000E+00
#rwgt            1           1   2.4592573097624040E-002           2       43029           0
</event>
<event>
      5   9999  3.19816E-02  2.59637E+01 -1.00000E+00  1.57530E-01
      21    -1     0     0   502   501  0.000000000E+00  0.000000000E+00  2.404687719E+03  2.404687719E+03  0.000000000E+00  0.00000E+00  9.000E+00
      -1    -1     0     0     0   502  0.000000000E+00  0.000000000E+00 -2.380758094E+02  2.380758094E+02  0.000000000E+00  0.00000E+00  9.000E+00
      25     1     1     2     0     0 -4.082562412E+02 -3.562655319E+02  8.609759363E+02  1.024940413E+03  1.250000000E+02  0.00000E+00  9.000E+00
      25     1     1     2     0     0  4.192295094E+02  3.327347247E+02  1.408391020E+03  1.511838630E+03  1.250000000E+02  0.00000E+00  9.000E+00
      -1     1     1     2     0   501 -1.097326819E+01  2.353080724E+01 -1.027550465E+02  1.059844852E+02  3.303624740E-06  0.00000E+00  9.000E+00
#rwgt            1           1   2.6345360528543093E-002           2       43289           0
</event>
<event>
      5   9999  3.19816E-02  3.15927E+01 -1.00000E+00  1.51496E-01
      21    -1     0     0   502   511  0.000000000E+00  0.000000000E+00  1.625665446E+02  1.625665446E+02  0.000000000E+00  0.00000E+00  9.000E+00
      21    -1     0     0   501   502  0.000000000E+00  0.000000000E+00 -1.004009792E+03  1.004009792E+03  0.000000000E+00  0.00000E+00  9.000E+00
      25     1     1     2     0     0  2.215505731E+02 -2.679196815E+02 -3.160939913E+02  4.862160256E+02  1.250000000E+02  0.00000E+00  9.000E+00
      25     1     1     2     0     0 -2.528050483E+02  2.725298958E+02 -5.145570001E+02  6.469751486E+02  1.250000000E+02  0.00000E+00  9.000E+00
      21     1     1     2   501   511  3.125447521E+01 -4.610214242E+00 -1.079225621E+01  3.338516272E+01  7.725644944E-07  0.00000E+00  9.000E+00
#rwgt            1           1   2.9577760661462185E-002           2       43433           0
</event>
<event>
      5   9999  3.19816E-02  1.85542E+02 -1.00000E+00  1.12847E-01
      21    -1     0     0   502   501  0.000000000E+00  0.000000000E+00  9.966706369E+02  9.966706369E+02  0.000000000E+00  0.00000E+00  9.000E+00
       1    -1     0     0   501     0  0.000000000E+00  0.000000000E+00 -8.557344787E+02  8.557344787E+02  0.000000000E+00  0.00000E+00  9.000E+00
      25     1     1     2     0     0 -1.016690837E+02  4.380794241E+02  4.371235585E+02  6.394936981E+02  1.250000000E+02  0.00000E+00  9.000E+00
      25     1     1     2     0     0 -6.437823687E+01 -3.552893927E+02  3.636485730E+02  5.274849709E+02  1.250000000E+02  0.00000E+00  9.000E+00
       1     1     1     2   502     0  1.660473206E+02 -8.279003143E+01 -6.598359733E+02  6.854264466E+02  1.078959322E-05  0.00000E+00  9.000E+00
#rwgt            1           1   2.7944436768641789E-002           2       43573           0
</event>
<event>
      5   9999  3.19816E-02  7.60243E+01 -1.00000E+00  1.29430E-01
      21    -1     0     0   502   511  0.000000000E+00  0.000000000E+00  6.623657612E+02  6.623657612E+02  0.000000000E+00  0.00000E+00  9.000E+00
      21    -1     0     0   501   502  0.000000000E+00  0.000000000E+00 -1.448599743E+03  1.448599743E+03  0.000000000E+00  0.00000E+00  9.000E+00
      25     1     1     2     0     0 -3.110754652E+01 -8.222255070E+02 -6.217535081E+02  1.038857492E+03  1.250000000E+02  0.00000E+00  9.000E+00
      25     1     1     2     0     0  8.321649264E+01  7.668689111E+02 -3.614482011E+02  8.609777660E+02  1.250000000E+02  0.00000E+00  9.000E+00
      21     1     1     2   501   511 -5.210894613E+01  5.535659594E+01  1.969677277E+02  2.111302459E+02  2.697398305E-06  0.00000E+00  9.000E+00
#rwgt            1           1   3.7986488190715498E-002           2       43619           0
</event>
<event>
      5   9999  3.19816E-02  2.06943E+02 -1.00000E+00  1.11111E-01
      21    -1     0     0   502   512  0.000000000E+00  0.000000000E+00  2.838697585E+02  2.838697585E+02  0.000000000E+00  0.00000E+00  9.000E+00
      21    -1     0     0   501   502  0.000000000E+00  0.000000000E+00 -4.137090378E+02  4.137090378E+02  0.000000000E+00  0.00000E+00  9.000E+00
      25     1     1     2     0     0  3.632295882E+01 -7.170991823E+01  9.069258248E+01  1.741028840E+02  1.250000000E+02  0.00000E+00  9.000E+00
      25     1     1     2     0     0 -2.147550855E+02 -3.311155749E+01 -1.894372585E+02  3.142094794E+02  1.250000000E+02  0.00000E+00  9.000E+00
      21     1     1     2   501   512  1.784321267E+02  1.048214757E+02 -3.109460318E+01  2.092664329E+02  2.023048729E-06  0.00000E+00  9.000E+00
#rwgt            1           1   3.0944288796341094E-002           2       43704           0
</event>
<event>
      5   9999  3.19816E-02  8.24904E+01 -1.00000E+00  1.27708E-01
      21    -1     0     0   502   501  0.000000000E+00  0.000000000E+00  4.332481781E+02  4.332481781E+02  0.000000000E+00  0.00000E+00  9.000E+00
      21    -1     0     0   511   502  0.000000000E+00  0.000000000E+00 -4.645868011E+02  4.645868011E+02  0.000000000E+00  0.00000E+00  9.000E+00
      25     1     1     2     0     0  2.415272341E+02 -1.658175582E+02  1.731765234E-01  3.185214237E+02  1.250000000E+02  0.00000E+00  9.000E+00
      25     1     1     2     0     0 -3.044761228E+02  2.191289280E+02  1.144632650E+02  4.116430923E+02  1.250000000E+02  0.00000E+00  9.000E+00
      21     1     1     2   511   501  6.294888871E+01 -5.331136986E+01 -1.459750645E+02  1.676704631E+02  3.814697266E-06  0.00000E+00  9.000E+00
#rwgt            1           1   2.6269632325593099E-002           2       43748           0
</event>
<event>
      5   9999  3.19816E-02  5.45931E+01 -1.00000E+00  1.36932E-01
      21    -1     0     0   502   501  0.000000000E+00  0.000000000E+00  8.683116411E+02  8.683116411E+02  0.000000000E+00  0.00000E+00  9.000E+00
      21    -1     0     0   512   502  0.000000000E+00  0.000000000E+00 -1.313633606E+02  1.313633606E+02  0.000000000E+00  0.00000E+00  9.000E+00
      25     1     1     2     0     0  9.948465065E+01  1.531103948E+02  3.559841549E+02  4.191535604E+02  1.250000000E+02  0.00000E+00  9.000E+00
      25     1     1     2     0     0 -1.390976191E+02 -1.906766469E+02  4.306229324E+02  5.067216605E+02  1.250000000E+02  0.00000E+00  9.000E+00
      21     1     1     2   512   501  3.961296845E+01  3.756625210E+01 -4.965880673E+01  7.379978084E+01  1.348699152E-06  0.00000E+00  9.000E+00
#rwgt            1           1   2.9377218150931320E-002           2       43831           0
</event>
<event>
      5   9999  3.19816E-02  2.08187E+01 -1.00000E+00  1.64944E-01
       2    -1     0     0   502     0  0.000000000E+00  0.000000000E+00  4.082854137E+02  4.082854137E+02  0.000000000E+00  0.00000E+00  9.000E+00
      21    -1     0     0   501   502  0.000000000E+00  0.000000000E+00 -1.449490525E+02  1.449490525E+02  0.000000000E+00  0.00000E+00  9.000E+00
      25     1     1     2     0     0  2.883376251E+01  1.281891119E+01  4.644264269E+01  1.370314906E+02  1.250000000E+02  0.00000E+00  9.000E+00
      25     1     1     2     0     0 -2.156019175E+01 -3.232561544E+01 -5.610122890E+01  1.424153614E+02  1.250000000E+02  0.00000E+00  9.000E+00
       2     1     1     2   501     0 -7.273570757E+00  1.950670425E+01  2.729949475E+02  2.737876142E+02  0.000000000E+00  0.00000E+00  9.000E+00
#rwgt            1           1   1.5479580780866056E-002           2       43933           0
</event>
<event>
      5   9999  3.19816E-02  1.13860E+02 -1.00000E+00  1.21344E-01
       1    -1     0     0   502     0  0.000000000E+00  0.000000000E+00  2.985266279E+02  2.985266279E+02  0.000000000E+00  0.00000E+00  9.000E+00
      21    -1     0     0   501   502  0.000000000E+00  0.000000000E+00 -6.887011100E+02  6.887011100E+02  0.000000000E+00  0.00000E+00  9.000E+00
      25     1     1     2     0     0 -1.305310715E+01  4.820237809E+01 -6.061345601E+02  6.209009243E+02  1.250000000E+02  0.00000E+00  9.000E+00
      25     1     1     2     0     0 -9.994347856E+01 -6.220004492E+01  8.129279589E+01  1.899764805E+02  1.250000000E+02  0.00000E+00  9.000E+00
       1     1     1     2   501     0  1.129965857E+02  1.399766683E+01  1.346672822E+02  1.763503330E+02  2.697398305E-06  0.00000E+00  9.000E+00
#rwgt            1           1   2.1503782238698515E-002           2       44076           0
</event>
<event>
      5   9999  3.19816E-02  2.78907E+02 -1.00000E+00  1.06631E-01
      21    -1     0     0   511   501  0.000000000E+00  0.000000000E+00  4.859014257E+02  4.859014257E+02  0.000000000E+00  0.00000E+00  9.000E+00
      21    -1     0     0   501   502  0.000000000E+00  0.000000000E+00 -3.737236948E+02  3.737236948E+02  0.000000000E+00  0.00000E+00  9.000E+00
      25     1     1     2     0     0  3.789127285E+01 -2.322060800E+01  9.197898338E+01  1.614313432E+02  1.250000000E+02  0.00000E+00  9.000E+00
      25     1     1     2     0     0  5.085111004E+01  2.876330259E+02 -1.702597493E+02  3.604607818E+02  1.250000000E+02  0.00000E+00  9.000E+00
      21     1     1     2   511   502 -8.874238289E+01 -2.644124179E+02  1.904584968E+02  3.377329955E+02  6.031565972E-06  0.00000E+00  9.000E+00
#rwgt            2          11   3.5359062142818628E-003           2       44243           0
</event>
<event>
      5   9999  3.19816E-02  7.58610E+01 -1.00000E+00  1.29476E-01
      21    -1     0     0   512   501  0.000000000E+00  0.000000000E+00  2.523541877E+02  2.523541877E+02  0.000000000E+00  0.00000E+00  9.000E+00
      21    -1     0     0   501   502  0.000000000E+00  0.000000000E+00 -8.888820900E+02  8.888820900E+02  0.000000000E+00  0.00000E+00  9.000E+00
      25     1     1     2     0     0 -2.501744126E+02  3.712871679E+02 -2.572290424E+02  5.312562264E+02  1.250000000E+02  0.00000E+00  9.000E+00
      25     1     1     2     0     0  2.367923982E+02 -2.966157624E+02 -3.393287134E+02  5.242332745E+02  1.250000000E+02  0.00000E+00  9.000E+00
      21     1     1     2   512   502  1.338201442E+01 -7.467140550E+01 -3.997014652E+01  8.574677675E+01  0.000000000E+00  0.00000E+00  9.000E+00
#rwgt            1           1   2.9795806268041618E-002           2       44263           0
</event>
<event>
      5   9999  3.19816E-02  7.58019E+01 -1.00000E+00  1.29493E-01
      21    -1     0     0   502   511  0.000000000E+00  0.000000000E+00  2.807692858E+02  2.807692858E+02  0.000000000E+00  0.00000E+00  9.000E+00
      21    -1     0     0   501   502  0.000000000E+00  0.000000000E+00 -3.547595743E+02  3.547595743E+02  0.000000000E+00  0.00000E+00  9.000E+00
      25     1     1     2     0     0  7.056006643E+01 -1.121824317E+02 -2.683942409E+02  3.243826283E+02  1.250000000E+02  0.00000E+00  9.000E+00
      25     1     1     2     0     0  5.211000393E+00  1.100204544E+02  1.430081431E+02  2.195631661E+02  1.250000000E+02  0.00000E+00  9.000E+00
      21     1     1     2   501   511 -7.577106682E+01  2.161977303E+00  5.139580925E+01  9.158306569E+01  1.651812370E-06  0.00000E+00  9.000E+00
#rwgt            1           1   3.1802929837880578E-002           2       44359           0
</event>
<event>
      5   9999  3.19816E-02  9.19393E+01 -1.00000E+00  1.25492E-01
      21    -1     0     0   502   501  0.000000000E+00  0.000000000E+00  1.937581073E+02  1.937581073E+02  0.000000000E+00  0.00000E+00  9.000E+00
      21    -1     0     0   501   512  0.000000000E+00  0.000000000E+00 -9.949133767E+02  9.949133767E+02  0.000000000E+00  0.00000E+00  9.000E+00
      25     1     1     2     0     0  9.402561716E+01 -1.936459840E+02  3.468727285E+01  2.513320328E+02  1.250000000E+02  0.00000E+00  9.000E+00
      25     1     1     2     0     0 -8.834550030E+01  2.854096778E+02 -7.196894947E+02  7.892031300E+02  1.250000000E+02  0.00000E+00  9.000E+00
      21     1     1     2   502   512 -5.680116864E+00 -9.176369376E+01 -1.161530475E+02  1.481363212E+02  2.336015456E-06  0.00000E+00  9.000E+00
#rwgt            1           1   2.8306694186632966E-002           2       44445           0
</event>
<event>
      5   9999  3.19816E-02  1.23451E+02 -1.00000E+00  1.19848E-01
      21    -1     0     0   502   501  0.000000000E+00  0.000000000E+00  1.208414418E+02  1.208414418E+02  0.000000000E+00  0.00000E+00  9.000E+00
      21    -1     0     0   511   502  0.000000000E+00  0.000000000E+00 -8.768217326E+02  8.768217326E+02  0.000000000E+00  0.00000E+00  9.000E+00
      25     1     1     2     0     0  1.652864318E+01 -2.059701271E+02 -3.576992714E+02  4.315908456E+02  1.250000000E+02  0.00000E+00  9.000E+00
      25     1     1     2     0     0 -1.060810510E+02  1.209967766E+02 -7.016818154E+01  2.155040209E+02  1.250000000E+02  0.00000E+00  9.000E+00
      21     1     1     2   511   501  8.955240784E+01  8.497335043E+01 -3.281128379E+02  3.505683078E+02  5.394796609E-06  0.00000E+00  9.000E+00
#rwgt            2          11   2.1032122822141068E-003           2       44803           0
</event>
<event>
      5   9999  3.86614E-02  2.22102E+01 -1.00000E+00  1.62699E-01
      21    -1     0     0   502   512  0.000000000E+00  0.000000000E+00  1.759315574E+03  1.759315574E+03  0.000000000E+00  0.00000E+00  9.000E+00
      21    -1     0     0   501   502  0.000000000E+00  0.000000000E+00 -1.842925081E+01  1.842925081E+01  0.000000000E+00  0.00000E+00  9.000E+00
      25     1     1     2     0     0  3.439877080E+01  7.748400099E+01  1.180647344E+03  1.190268960E+03  1.250000000E+02  0.00000E+00  9.000E+00
      25     1     1     2     0     0 -1.252846362E+01 -8.135457448E+01  4.287033351E+02  4.540782738E+02  1.250000000E+02  0.00000E+00  9.000E+00
      21     1     1     2   501   512 -2.187030718E+01  3.870573494E+00  1.315356446E+02  1.333975917E+02  1.907348633E-06  0.00000E+00  9.000E+00
#rwgt            1           1  0.10854417625877591                2       44823           0
</event>
<event>
      5   9999  3.19816E-02  2.40710E+01 -1.00000E+00  1.59993E-01
      21    -1     0     0   502   501  0.000000000E+00  0.000000000E+00  8.960530589E+01  8.960530589E+01  0.000000000E+00  0.00000E+00  9.000E+00
      21    -1     0     0   511   502  0.000000000E+00  0.000000000E+00 -5.509335798E+02  5.509335798E+02  0.000000000E+00  0.00000E+00  9.000E+00
      25     1     1     2     0     0  6.891756238E+01  1.117882254E+02 -3.081337745E+02  3.575159587E+02  1.250000000E+02  0.00000E+00  9.000E+00
      25     1     1     2     0     0 -7.090871661E+01 -1.357767367E+02 -9.358834916E+01  2.187399081E+02  1.250000000E+02  0.00000E+00  9.000E+00
      21     1     1     2   511   501  1.991154231E+00  2.398851123E+01 -5.960615019E+01  6.428301880E+01  6.743495762E-07  0.00000E+00  9.000E+00
#rwgt            1           1   2.6791679215554906E-002           2       44939           0
</event>
<event>
      5   9999  3.19816E-02  1.94146E+01 -1.00000E+00  1.67441E-01
      21    -1     0     0   502   501  0.000000000E+00  0.000000000E+00  1.744218750E+02  1.744218750E+02  0.000000000E+00  0.00000E+00  9.000E+00
      21    -1     0     0   501   512  0.000000000E+00  0.000000000E+00 -2.066236175E+02  2.066236175E+02  0.000000000E+00  0.00000E+00  9.000E+00
      25     1     1     2     0     0 -3.617304352E+01 -8.761865647E+01  5.694001080E+01  1.668912307E+02  1.250000000E+02  0.00000E+00  9.000E+00
      25     1     1     2     0     0  1.990460235E+01  9.821421816E+01 -4.574528588E+01  1.666128957E+02  1.250000000E+02  0.00000E+00  9.000E+00
      21     1     1     2   502   512  1.626844117E+01 -1.059556168E+01 -4.339646745E+01  4.754136613E+01  6.743495762E-07  0.00000E+00  9.000E+00
#rwgt            1           1   2.8296644090637715E-002           2       45047           0
</event>
<event>
      5   9999  3.19816E-02  2.84335E+02 -1.00000E+00  1.06354E-01
      21    -1     0     0   502   501  0.000000000E+00  0.000000000E+00  2.098582971E+03  2.098582971E+03  0.000000000E+00  0.00000E+00  9.000E+00
       1    -1     0     0   501     0  0.000000000E+00  0.000000000E+00 -6.223452880E+02  6.223452880E+02  0.000000000E+00  0.00000E+00  9.000E+00
      25     1     1     2     0     0  1.273133986E+02  2.271888539E+01 -1.322338660E+02  2.232389853E+02  1.250000000E+02  0.00000E+00  9.000E+00
      25     1     1     2     0     0  1.019564521E+02 -1.908899278E+02  1.999030647E+03  2.014592418E+03  1.250000000E+02  0.00000E+00  9.000E+00
       1     1     1     2   502     0 -2.292698507E+02  1.681710425E+02 -3.905590975E+02  4.830968563E+02  1.078959322E-05  0.00000E+00  9.000E+00
#rwgt            2          12   7.8814641736451988E-004           2       45219           0
</event>
<event>
      5   9999  3.19816E-02  5.46628E+01 -1.00000E+00  1.36902E-01
      21    -1     0     0   502   501  0.000000000E+00  0.000000000E+00  6.469021760E+02  6.469021760E+02  0.000000000E+00  0.00000E+00  9.000E+00
      21    -1     0     0   501   511  0.000000000E+00  0.000000000E+00 -4.392689932E+02  4.392689932E+02  0.000000000E+00  0.00000E+00  9.000E+00
      25     1     1     2     0     0 -3.432151170E+02  2.616879854E+02  2.882973938E+02  5.338704015E+02  1.250000000E+02  0.00000E+00  9.000E+00
      25     1     1     2     0     0  3.536702764E+02 -3.153415789E+02 -8.539488566E+01  4.974336762E+02  1.250000000E+02  0.00000E+00  9.000E+00
      21     1     1     2   502   511 -1.045515934E+01  5.365359345E+01  4.730674723E+00  5.486709151E+01  1.255947799E-06  0.00000E+00  9.000E+00
#rwgt            1           1   2.7532542303163175E-002           2       45253           0
</event>
<event>
      5   9999  3.19816E-02  3.30609E+02 -1.00000E+00  1.04239E-01
       2    -1     0     0   502     0  0.000000000E+00  0.000000000E+00  2.111623696E+03  2.111623696E+03  0.000000000E+00  0.00000E+00  9.000E+00
      21    -1     0     0   501   502  0.000000000E+00  0.000000000E+00 -2.452040436E+02  2.452040436E+02  0.000000000E+00  0.00000E+00  9.000E+00
      25     1     1     2     0     0 -3.099059762E+02  2.893862362E+01 -4.254141638E+01  3.381034311E+02  1.250000000E+02  0.00000E+00  9.000E+00
      25     1     1     2     0     0  1.496579026E+02  2.602375783E+02  8.968414332E+02  9.539762268E+02  1.250000000E+02  0.00000E+00  9.000E+00
       2     1     1     2   501     0  1.602480736E+02 -2.891762019E+02  1.012119635E+03  1.064748082E+03  1.525878906E-05  0.00000E+00  9.000E+00
#rwgt            1           1   2.1185724363742837E-002           2       45416           0
</event>
<event>
      5   9999  3.19816E-02  7.37151E+00 -1.00000E+00  2.12428E-01
      21    -1     0     0   502   501  0.000000000E+00  0.000000000E+00  8.694357573E+01  8.694357573E+01  0.000000000E+00  0.00000E+00  9.000E+00
      21    -1     0     0   511   502  0.000000000E+00  0.000000000E+00 -7.902977114E+02  7.902977114E+02  0.000000000E+00  0.00000E+00  9.000E+00
      25     1     1     2     0     0 -1.976069187E+02 -2.264044999E+01 -3.516571867E+02  4.229052627E+02  1.250000000E+02  0.00000E+00  9.000E+00
      25     1     1     2     0     0  2.004501964E+02  1.583935081E+01 -2.224194983E+02  3.248485794E+02  1.250000000E+02  0.00000E+00  9.000E+00
      21     1     1     2   511   501 -2.843277728E+00  6.801099181E+00 -1.292774506E+02  1.294874450E+02  1.907348633E-06  0.00000E+00  9.000E+00
#rwgt            1           1   1.9221635614069719E-002           2       45466           0
</event>
<event>
      5   9999  3.19816E-02  1.81162E+01 -1.00000E+00  1.69994E-01
      21    -1     0     0   502   512  0.000000000E+00  0.000000000E+00  1.326154540E+02  1.326154540E+02  0.000000000E+00  0.00000E+00  9.000E+00
      21    -1     0     0   501   502  0.000000000E+00  0.000000000E+00 -2.344959784E+03  2.344959784E+03  0.000000000E+00  0.00000E+00  9.000E+00
      25     1     1     2     0     0 -6.811833445E+01  3.109108247E+02 -2.074842080E+03  2.102831497E+03  1.250000000E+02  0.00000E+00  9.000E+00
      25     1     1     2     0     0  5.569731833E+01 -2.977231538E+02 -1.402477793E+02  3.564206885E+02  1.250000000E+02  0.00000E+00  9.000E+00
      21     1     1     2   501   512  1.242101612E+01 -1.318767096E+01  2.745529607E+00  1.832305214E+01  5.607273496E-07  0.00000E+00  9.000E+00
#rwgt            1           1   2.5885484700984899E-002           2       45714           0
</event>
<event>
      5   9999  3.19816E-02  3.25378E+01 -1.00000E+00  1.50630E-01
      21    -1     0     0   502   501  0.000000000E+00  0.000000000E+00  9.817403192E+02  9.817403192E+02  0.000000000E+00  0.00000E+00  9.000E+00
      21    -1     0     0   501   511  0.000000000E+00  0.000000000E+00 -9.736163215E+01  9.736163215E+01  0.000000000E+00  0.00000E+00  9.000E+00
      25     1     1     2     0     0 -4.709606494E+01 -8.229199762E+01  7.386259548E+01  1.734090402E+02  1.250000000E+02  0.00000E+00  9.000E+00
      25     1     1     2     0     0  7.852339983E+01  9.072002587E+01  8.424615225E+02  8.600944508E+02  1.250000000E+02  0.00000E+00  9.000E+00
      21     1     1     2   502   511 -3.142733489E+01 -8.428028253E+00 -3.194543087E+01  4.559846041E+01  1.118282261E-06  0.00000E+00  9.000E+00
#rwgt            2          11   1.3738595815887178E-003           2       45992           0
</event>
<event>
      5   9999  3.19816E-02  2.31527E+02 -1.00000E+00  1.09382E-01
      21    -1     0     0   502   501  0.000000000E+00  0.000000000E+00  2.298740204E+02  2.298740204E+02  0.000000000E+00  0.00000E+00  9.000E+00
      21    -1     0     0   512   502  0.000000000E+00  0.000000000E+00 -1.394172952E+03  1.394172952E+03  0.000000000E+00  0.00000E+00  9.000E+00
      25     1     1     2     0     0  4.367536502E+02 -4.478502510E+01 -4.880270356E+02  6.682475866E+02  1.250000000E+02  0.00000E+00  9.000E+00
      25     1     1     2     0     0 -2.489207223E+02  1.801498423E+02 -1.191314817E+02  3.524667383E+02  1.250000000E+02  0.00000E+00  9.000E+00
      21     1     1     2   512   501 -1.878329279E+02 -1.353648172E+02 -5.571404146E+02  6.033326479E+02  7.629394531E-06  0.00000E+00  9.000E+00
#rwgt            1           1   2.8539481075241440E-002           2       46012           0
</event>
<event>
      5   9999  3.19816E-02  3.98153E+02 -1.00000E+00  1.01746E-01
       2    -1     0     0   502     0  0.000000000E+00  0.000000000E+00  1.999160199E+03  1.999160199E+03  0.000000000E+00  0.00000E+00  9.000E+00
      21    -1     0     0   501   502  0.000000000E+00  0.000000000E+00 -1.179052941E+03  1.179052941E+03  0.000000000E+00  0.00000E+00  9.000E+00
      25     1     1     2     0     0  6.589004514E+02  5.343998140E+02  4.414555906E+02  9.644900230E+02  1.250000000E+02  0.00000E+00  9.000E+00
      25     1     1     2     0     0 -4.603821876E+02 -8.795324380E+02 -5.933895728E+02  1.163299296E+03  1.250000000E+02  0.00000E+00  9.000E+00
       2     1     1     2   501     0 -1.985182638E+02  3.451326239E+02  9.720412404E+02  1.050423820E+03  1.525878906E-05  0.00000E+00  9.000E+00
#rwgt            2          18   1.8633049014384854E-003           2       46079           0
</event>
<event>
      5   9999  3.19816E-02  1.99749E+01 -1.00000E+00  1.66414E-01
      21    -1     0     0   502   511  0.000000000E+00  0.000000000E+00  6.089804736E+02  6.089804736E+02  0.000000000E+00  0.00000E+00  9.000E+00
      21    -1     0     0   501   502  0.000000000E+00  0.000000000E+00 -2.982159845E+02  2.982159845E+02  0.000000000E+00  0.00000E+00  9.000E+00
      25     1     1     2     0     0  3.802707695E+02  6.524595337E+01  5.197782899E+01  4.088882332E+02  1.250000000E+02  0.00000E+00  9.000E+00
      25     1     1     2     0     0 -3.830468448E+02 -4.546486362E+01  2.419415193E+02  4.721786081E+02  1.250000000E+02  0.00000E+00  9.000E+00
      21     1     1     2   501   511  2.776075336E+00 -1.978108974E+01  1.684514078E+01  2.612961679E+01  4.768371582E-07  0.00000E+00  9.000E+00
#rwgt            1           1   2.5703399426535319E-002           2       46098           0
</event>
<event>
      5   9999  3.19816E-02  1.17721E+02 -1.00000E+00  1.20723E-01
      21    -1     0     0   502   512  0.000000000E+00  0.000000000E+00  1.070792079E+03  1.070792079E+03  0.000000000E+00  0.00000E+00  9.000E+00
      21    -1     0     0   501   502  0.000000000E+00  0.000000000E+00 -5.602546903E+02  5.602546903E+02  0.000000000E+00  0.00000E+00  9.000E+00
      25     1     1     2     0     0 -1.086877876E+02  5.918558378E+02  5.291839445E+02  8.110283688E+02  1.250000000E+02  0.00000E+00  9.000E+00
      25     1     1     2     0     0  2.129382923E+02 -6.465372072E+02 -6.133856152E+01  6.947952905E+02  1.250000000E+02  0.00000E+00  9.000E+00
      21     1     1     2   501   512 -1.042505047E+02  5.468136940E+01  4.269200525E+01  1.252231097E+02  9.536743164E-07  0.00000E+00  9.000E+00
#rwgt            1           1   2.2768576627755509E-002           2       46296           0
</event>
<event>
      5   9999  3.19816E-02  7.96790E+01 -1.00000E+00  1.28434E-01
      21    -1     0     0   511   501  0.000000000E+00  0.000000000E+00  9.222718349E+02  9.222718349E+02  0.000000000E+00  0.00000E+00  9.000E+00
      21    -1     0     0   501   502  0.000000000E+00  0.000000000E+00 -2.653871834E+02  2.653871834E+02  0.000000000E+00  0.00000E+00  9.000E+00
      25     1     1     2     0     0  1.946295085E+02 -2.244491760E+02  6.578564619E+02  7.325695889E+02  1.250000000E+02  0.00000E+00  9.000E+00
      25     1     1     2     0     0 -2.471504405E+02  1.645300571E+02 -9.111019021E+01  3.347828351E+02  1.250000000E+02  0.00000E+00  9.000E+00
      21     1     1     2   511   502  5.252093196E+01  5.991911891E+01  9.013837979E+01  1.203065942E+02  1.348699152E-06  0.00000E+00  9.000E+00
#rwgt            1           1   2.6251058100580225E-002           2       46442           0
</event>
<event>
      5   9999  3.19816E-02  3.13396E+01 -1.00000E+00  1.51734E-01
      21    -1     0     0   502   501  0.000000000E+00  0.000000000E+00  1.262516912E+03  1.262516912E+03  0.000000000E+00  0.00000E+00  9.000E+00
      21    -1     0     0   501   512  0.000000000E+00  0.000000000E+00 -2.610798162E+02  2.610798162E+02  0.000000000E+00  0.00000E+00  9.000E+00
      25     1     1     2     0     0  1.615225027E+01  1.462410863E+02  5.541562911E+02  5.868232660E+02  1.250000000E+02  0.00000E+00  9.000E+00
      25     1     1     2     0     0  6.798516874E-01 -1.726769162E+02  6.745095258E+02  7.073937235E+02  1.250000000E+02  0.00000E+00  9.000E+00
      21     1     1     2   502   512 -1.683210196E+01  2.643582988E+01 -2.272287213E+02  2.293797387E+02  4.672030912E-06  0.00000E+00  9.000E+00
#rwgt            1           1   2.5745007474908946E-002           2       46530           0
</event>
<event>
      5   9999  3.19816E-02  2.21580E+02 -1.00000E+00  1.10052E-01
      21    -1     0     0   502   501  0.000000000E+00  0.000000000E+00  4.441579263E+02  4.441579263E+02  0.000000000E+00  0.00000E+00  9.000E+00
       1    -1     0     0   501     0  0.000000000E+00  0.000000000E+00 -1.619071094E+03  1.619071094E+03  0.000000000E+00  0.00000E+00  9.000E+00
      25     1     1     2     0     0  1.323823701E+01  1.349816880E+02 -6.509312942E+01  1.955950472E+02  1.250000000E+02  0.00000E+00  9.000E+00
      25     1     1     2     0     0 -1.838973914E+02  6.344315506E+00  3.370807778E+02  4.038650166E+02  1.250000000E+02  0.00000E+00  9.000E+00
       1     1     1     2   502     0  1.706591544E+02 -1.413260035E+02 -1.446900816E+03  1.463768957E+03  0.000000000E+00  0.00000E+00  9.000E+00
#rwgt            1           1   2.6594178652666875E-002           2       46663           0
</event>
<event>
      5   9999  3.19816E-02  1.30620E+02 -1.00000E+00  1.18826E-01
      21    -1     0     0   502   511  0.000000000E+00  0.000000000E+00  7.147087891E+02  7.147087891E+02  0.000000000E+00  0.00000E+00  9.000E+00
      21    -1     0     0   501   502  0.000000000E+00  0.000000000E+00 -2.133107507E+02  2.133107507E+02  0.000000000E+00  0.00000E+00  9.000E+00
      25     1     1     2     0     0  1.648712522E+02 -1.796425417E+02  1.101713235E+02  2.953247249E+02  1.250000000E+02  0.00000E+00  9.000E+00
      25     1     1     2     0     0 -2.655866532E+02  9.646884467E+01  1.196448106E+02  3.313342558E+02  1.250000000E+02  0.00000E+00  9.000E+00
      21     1     1     2   501   511  1.007154009E+02  8.317369702E+01  2.715819042E+02  3.013605591E+02  7.629394531E-06  0.00000E+00  9.000E+00
#rwgt            2          11   2.5824698588148690E-003           2       46723           0
</event>
<event>
      5   9999  3.19816E-02  1.08644E+02 -1.00000E+00  1.22230E-01
      21    -1     0     0   502   501  0.000000000E+00  0.000000000E+00  1.078029373E+03  1.078029373E+03  0.000000000E+00  0.00000E+00  9.000E+00
      21    -1     0     0   501   512  0.000000000E+00  0.000000000E+00 -1.466485140E+02  1.466485140E+02  0.000000000E+00  0.00000E+00  9.000E+00
      25     1     1     2     0     0 -5.965393643E+01  2.486393089E+02  2.256251663E+02  3.631966599E+02  1.250000000E+02  0.00000E+00  9.000E+00
      25     1     1     2     0     0  1.117576487E+02 -3.439741363E+02  5.850474962E+02  6.990805042E+02  1.250000000E+02  0.00000E+00  9.000E+00
      21     1     1     2   502   512 -5.210371225E+01  9.533482740E+01  1.207081967E+02  1.624007232E+02  2.336015456E-06  0.00000E+00  9.000E+00
#rwgt            2          11   3.6945670266288464E-003           2       46863           0
</event>
<event>
      5   9999  3.19816E-02  5.25236E+02 -1.00000E+00  9.82483E-02
      21    -1     0     0   502   501  0.000000000E+00  0.000000000E+00  3.796038588E+02  3.796038588E+02  0.000000000E+00  0.00000E+00  9.000E+00
      21    -1     0     0   501   511  0.000000000E+00  0.000000000E+00 -1.255997386E+03  1.255997386E+03  0.000000000E+00  0.00000E+00  9.000E+00
      25     1     1     2     0     0 -1.076520028E+02  1.108852522E+02 -2.944490898E+02  3.552601292E+02  1.250000000E+02  0.00000E+00  9.000E+00
      25     1     1     2     0     0 -2.651807578E+02 -4.808430597E+02 -1.091344570E+02  5.736429308E+02  1.250000000E+02  0.00000E+00  9.000E+00
      21     1     1     2   502   511  3.728327606E+02  3.699578075E+02 -4.728099800E+02  7.066981844E+02  1.078959322E-05  0.00000E+00  9.000E+00
#rwgt            1           1   2.5444720616655730E-002           2       46883           0
</event>
<event>
      5   9999  3.19816E-02  4.41356E+01 -1.00000E+00  1.42239E-01
       2    -1     0     0   502     0  0.000000000E+00  0.000000000E+00  9.334611012E+01  9.334611012E+01  0.000000000E+00  0.00000E+00  9.000E+00
      21    -1     0     0   501   502  0.000000000E+00  0.000000000E+00 -4.435578632E+03  4.435578632E+03  0.000000000E+00  0.00000E+00  9.000E+00
      25     1     1     2     0     0  1.619376542E+02 -1.366064614E+00 -2.940980414E+02  3.582517661E+02  1.250000000E+02  0.00000E+00  9.000E+00
      25     1     1     2     0     0 -1.526600542E+02 -4.178343577E+01 -4.098640598E+03  4.103599724E+03  1.250000000E+02  0.00000E+00  9.000E+00
       2     1     1     2   501     0 -9.277599983E+00  4.314950038E+01  5.050611712E+01  6.707325183E+01  3.162979880E-06  0.00000E+00  9.000E+00
#rwgt            1           1   3.0346775590306078E-003           2       46917           0
</event>
<event>
      5   9999  3.19816E-02  1.29890E+02 -1.00000E+00  1.18926E-01
      21    -1     0     0   502   501  0.000000000E+00  0.000000000E+00  4.015481593E+02  4.015481593E+02  0.000000000E+00  0.00000E+00  9.000E+00
      21    -1     0     0   501   511  0.000000000E+00  0.000000000E+00 -4.534959086E+02  4.534959086E+02  0.000000000E+00  0.00000E+00  9.000E+00
      25     1     1     2     0     0 -1.311827062E+02  1.524264797E+02  1.567053786E+02  2.839442019E+02  1.250000000E+02  0.00000E+00  9.000E+00
      25     1     1     2     0     0  2.497266822E+02 -9.933382883E+01  3.149685730E+01  2.980732752E+02  1.250000000E+02  0.00000E+00  9.000E+00
      21     1     1     2   502   511 -1.185439760E+02 -5.309265083E+01 -2.401499852E+02  2.730265907E+02  3.814697266E-06  0.00000E+00  9.000E+00
#rwgt            1           1   2.8322329369260064E-002           2       47005           0
</event>
<event>
      5   9999  3.19816E-02  8.48616E+01 -1.00000E+00  1.27122E-01
      21    -1     0     0   502   501  0.000000000E+00  0.000000000E+00  8.174974668E+02  8.174974668E+02  0.000000000E+00  0.00000E+00  9.000E+00
       2    -1     0     0   501     0  0.000000000E+00  0.000000000E+00 -1.230401486E+03  1.230401486E+03  0.000000000E+00  0.00000E+00  9.000E+00
      25     1     1     2     0     0 -4.088619793E+02 -1.740389037E+01  6.768244466E+02  8.007417468E+02  1.250000000E+02  0.00000E+00  9.000E+00
      25     1     1     2     0     0  3.525206770E+02  8.086370823E+01 -4.049963622E+02  5.571865221E+02  1.250000000E+02  0.00000E+00  9.000E+00
       2     1     1     2   502     0  5.634130237E+01 -6.345981786E+01 -6.847321037E+02  6.899706840E+02  1.078959322E-05  0.00000E+00  9.000E+00
#rwgt            1           1   3.0580100132107522E-002           2       47084           0
</event>
<event>
      5   9999  3.19816E-02  1.06976E+02 -1.00000E+00  1.22525E-01
      21    -1     0     0   502   511  0.000000000E+00  0.000000000E+00  9.833991467E+02  9.833991467E+02  0.000000000E+00  0.00000E+00  9.000E+00
      21    -1     0     0   501   502  0.000000000E+00  0.000000000E+00 -9.275513800E+02  9.275513800E+02  0.000000000E+00  0.00000E+00  9.000E+00
      25     1     1     2     0     0  2.336969323E+02 -8.597132904E+02 -1.309334743E+02  9.091148291E+02  1.250000000E+02  0.00000E+00  9.000E+00
      25     1     1     2     0     0 -3.068060752E+02  7.816178818E+02  8.331195164E+01  8.530078324E+02  1.250000000E+02  0.00000E+00  9.000E+00
      21     1     1     2   501   511  7.310914285E+01  7.809540858E+01  1.034692894E+02  1.488278652E+02  1.348699152E-06  0.00000E+00  9.000E+00
#rwgt            1           1   2.6101266585559699E-002           2       47163           0
</event>
<event>
      5   9999  3.19816E-02  5.48735E+01 -1.00000E+00  1.36809E-01
      21    -1     0     0   502   512  0.000000000E+00  0.000000000E+00  5.216641347E+02  5.216641347E+02  0.000000000E+00  0.00000E+00  9.000E+00
      21    -1     0     0   501   502  0.000000000E+00  0.000000000E+00 -1.841288254E+02  1.841288254E+02  0.000000000E+00  0.00000E+00  9.000E+00
      25     1     1     2     0     0  2.394567441E+02  5.777733911E+01  8.833393148E+01  2.900097183E+02  1.250000000E+02  0.00000E+00  9.000E+00
      25     1     1     2     0     0 -2.179121189E+02 -1.082444779E+02  1.799580539E+02  3.274331378E+02  1.250000000E+02  0.00000E+00  9.000E+00
      21     1     1     2   501   512 -2.154462522E+01  5.046713879E+01  6.924332386E+01  8.835010398E+01  0.000000000E+00  0.00000E+00  9.000E+00
#rwgt            1           1   2.8099728570114765E-002           2       47283           0
</event>
<event>
      5   9999  3.19816E-02  2.52578E+02 -1.00000E+00  1.08078E-01
      21    -1     0     0   502   501  0.000000000E+00  0.000000000E+00  6.251420021E+02  6.251420021E+02  0.000000000E+00  0.00000E+00  9.000E+00
      21    -1     0     0   501   511  0.000000000E+00  0.000000000E+00 -5.384393486E+02  5.384393486E+02  0.000000000E+00  0.00000E+00  9.000E+00
      25     1     1     2     0     0  3.659087707E+02  1.880895830E+02  7.923459458E+00  4.300636010E+02  1.250000000E+02  0.00000E+00  9.000E+00
      25     1     1     2     0     0 -4.525011121E+02  4.918105086E+01  9.072326085E+01  4.806576144E+02  1.250000000E+02  0.00000E+00  9.000E+00
      21     1     1     2   502   511  8.659234142E+01 -2.372706338E+02 -1.194406681E+01  2.528601353E+02  2.595369942E-06  0.00000E+00  9.000E+00
#rwgt            1           1   2.6095604618721662E-002           2       47379           0
</event>
<event>
      5   9999  3.19816E-02  1.75743E+01 -1.00000E+00  1.71139E-01
      21    -1     0     0   512   501  0.000000000E+00  0.000000000E+00  5.904679573E+02  5.904679573E+02  0.000000000E+00  0.00000E+00  9.000E+00
      21    -1     0     0   501   502  0.000000000E+00  0.000000000E+00 -2.913738840E+02  2.913738840E+02  0.000000000E+00  0.00000E+00  9.000E+00
      25     1     1     2     0     0 -2.930386776E+02  1.042497024E+00  2.870623299E+02  4.288385881E+02  1.250000000E+02  0.00000E+00  9.000E+00
      25     1     1     2     0     0  3.092738347E+02 -7.771169826E+00 -9.309824769E+01  3.464144622E+02  1.250000000E+02  0.00000E+00  9.000E+00
      21     1     1     2   512   502 -1.623515703E+01  6.728672803E+00  1.051299910E+02  1.065887910E+02  1.907348633E-06  0.00000E+00  9.000E+00
#rwgt            1           1   3.0473820106283897E-002           2       47460           0
</event>
<event>
      5   9999  3.19816E-02  2.80218E+02 -1.00000E+00  1.06564E-01
      21    -1     0     0   502   501  0.000000000E+00  0.000000000E+00  5.256941293E+02  5.256941293E+02  0.000000000E+00  0.00000E+00  9.000E+00
      21    -1     0     0   501   511  0.000000000E+00  0.000000000E+00 -7.004791276E+02  7.004791276E+02  0.000000000E+00  0.00000E+00  9.000E+00
      25     1     1     2     0     0 -1.302746038E+02  7.211793008E+00  1.306026448E+02  2.229473776E+02  1.250000000E+02  0.00000E+00  9.000E+00
      25     1     1     2     0     0  3.862082007E+02 -1.213174791E+02  1.658407359E+02  4.549756639E+02  1.250000000E+02  0.00000E+00  9.000E+00
      21     1     1     2   502   511 -2.559335969E+02  1.141056861E+02 -4.712283789E+02  5.482502154E+02  5.394796609E-06  0.00000E+00  9.000E+00
#rwgt            1           1   2.5317797881263714E-002           2       47628           0
</event>
<event>
      5   9999  3.43847E-02  3.15253E+01 -1.00000E+00  1.51559E-01
      21    -1     0     0   502   501  0.000000000E+00  0.000000000E+00  7.966308063E+02  7.966308063E+02  0.000000000E+00  0.00000E+00  9.000E+00
      21    -1     0     0   501   512  0.000000000E+00  0.000000000E+00 -1.739421021E+03  1.739421021E+03  0.000000000E+00  0.00000E+00  9.000E+00
      25     1     1     2     0     0  4.949423167E+02 -7.067413962E+02  3.637156968E+02  9.446509440E+02  1.250000000E+02  0.00000E+00  9.000E+00
      25     1     1     2     0     0 -4.719303600E+02  7.282888997E+02 -1.253028030E+03  1.529322475E+03  1.250000000E+02  0.00000E+00  9.000E+00
      21     1     1     2   502   512 -2.301195671E+01 -2.154750349E+01 -5.347788063E+01  6.207840828E+01  6.743495762E-07  0.00000E+00  9.000E+00
#rwgt            1           1   8.2165998533534471E-002           2       47668           0
</event>
<event>
      5   9999  3.19816E-02  2.15666E+01 -1.00000E+00  1.63711E-01
      21    -1     0     0   502   511  0.000000000E+00  0.000000000E+00  1.150789826E+02  1.150789826E+02  0.000000000E+00  0.00000E+00  9.000E+00
      21    -1     0     0   501   502  0.000000000E+00  0.000000000E+00 -2.196414085E+03  2.196414085E+03  0.000000000E+00  0.00000E+00  9.000E+00
      25     1     1     2     0     0 -3.606237856E+01  3.633057878E+02 -3.714814404E+02  5.356445194E+02  1.250000000E+02  0.00000E+00  9.000E+00
      25     1     1     2     0     0  5.762198879E+01 -3.627548869E+02 -1.710816533E+03  1.754260417E+03  1.250000000E+02  0.00000E+00  9.000E+00
      21     1     1     2   501   511 -2.155961023E+01 -5.509009142E-01  9.628709410E-01  2.158813113E+01  9.095813311E-07  0.00000E+00  9.000E+00
#rwgt            1           1   2.7257543207656179E-002           2       47924           0
</event>
<event>
      5   9999  3.19816E-02  2.34652E+01 -1.00000E+00  1.60840E-01
      21    -1     0     0   512   501  0.000000000E+00  0.000000000E+00  3.226802637E+03  3.226802637E+03  0.000000000E+00  0.00000E+00  9.000E+00
      21    -1     0     0   501   502  0.000000000E+00  0.000000000E+00 -9.853986757E+01  9.853986757E+01  0.000000000E+00  0.00000E+00  9.000E+00
      25     1     1     2     0     0  4.103517882E+02 -4.626558249E+01  4.951154948E+02  6.567293563E+02  1.250000000E+02  0.00000E+00  9.000E+00
      25     1     1     2     0     0 -3.885237419E+02  3.765438261E+01  2.511155952E+03  2.544385538E+03  1.250000000E+02  0.00000E+00  9.000E+00
      21     1     1     2   512   502 -2.182804637E+01  8.611199879E+00  1.219913220E+02  1.242276097E+02  0.000000000E+00  0.00000E+00  9.000E+00
#rwgt            1           1   5.0099555867983092E-002           2       48111           0
</event>
<event>
      5   9999  3.19816E-02  6.17978E+01 -1.00000E+00  1.34022E-01
      21    -1     0     0   502   511  0.000000000E+00  0.000000000E+00  6.436396378E+02  6.436396378E+02  0.000000000E+00  0.00000E+00  9.000E+00
      21    -1     0     0   501   502  0.000000000E+00  0.000000000E+00 -6.021845253E+02  6.021845253E+02  0.000000000E+00  0.00000E+00  9.000E+00
      25     1     1     2     0     0  4.828123365E+02  8.792134676E+01 -2.377175684E+02  5.594395033E+02  1.250000000E+02  0.00000E+00  9.000E+00
      25     1     1     2     0     0 -5.185077507E+02 -3.747532669E+01  1.702070738E+02  5.611150823E+02  1.250000000E+02  0.00000E+00  9.000E+00
      21     1     1     2   501   511  3.569541415E+01 -5.044602006E+01  1.089656071E+02  1.252695775E+02  0.000000000E+00  0.00000E+00  9.000E+00
#rwgt            1           1   2.8881945765441161E-002           2       48306           0
</event>
<event>
      5   9999  3.19816E-02  3.07021E+01 -1.00000E+00  1.52345E-01
      21    -1     0     0   502   501  0.000000000E+00  0.000000000E+00  2.576274165E+02  2.576274165E+02  0.000000000E+00  0.00000E+00  9.000E+00
      21    -1     0     0   512   502  0.000000000E+00  0.000000000E+00 -3.996598840E+02  3.996598840E+02  0.000000000E+00  0.00000E+00  9.000E+00
      25     1     1     2     0     0 -3.920540265E+01  9.625287674E+01  1.977179277E+02  2.559669096E+02  1.250000000E+02  0.00000E+00  9.000E+00
      25     1     1     2     0     0  4.057049581E+01 -1.269246417E+02 -2.845435868E+02  3.381506804E+02  1.250000000E+02  0.00000E+00  9.000E+00
      21     1     1     2   512   501 -1.365093163E+00  3.067176500E+01 -5.520680838E+01  6.316971062E+01  0.000000000E+00  0.00000E+00  9.000E+00
#rwgt            1           1   2.7630359546634620E-002           2       48400           0
</event>
<event>
      5   9999  3.19816E-02  1.04028E+02 -1.00000E+00  1.23061E-01
      21    -1     0     0   511   501  0.000000000E+00  0.000000000E+00  2.000861225E+02  2.000861225E+02  0.000000000E+00  0.00000E+00  9.000E+00
      21    -1     0     0   501   502  0.000000000E+00  0.000000000E+00 -1.167977172E+03  1.167977172E+03  0.000000000E+00  0.00000E+00  9.000E+00
      25     1     1     2     0     0 -6.602618095E+01  3.960554569E+00 -9.088657376E+02  9.198027352E+02  1.250000000E+02  0.00000E+00  9.000E+00
      25     1     1     2     0     0  1.547368049E+02 -5.829534468E+01 -1.898706926E+02  2.811008821E+02  1.250000000E+02  0.00000E+00  9.000E+00
      21     1     1     2   511   502 -8.871062397E+01  5.433479011E+01  1.308453804E+02  1.671596775E+02  2.697398305E-06  0.00000E+00  9.000E+00
#rwgt            1           1   3.1208612936503011E-002           2       48494           0
</event>
<event>
      5   9999  3.19816E-02  6.34903E+01 -1.00000E+00  1.33404E-01
      21    -1     0     0   502   501  0.000000000E+00  0.000000000E+00  1.991593952E+02  1.991593952E+02  0.000000000E+00  0.00000E+00  9.000E+00
      21    -1     0     0   512   502  0.000000000E+00  0.000000000E+00 -5.009510258E+02  5.009510258E+02  0.000000000E+00  0.00000E+00  9.000E+00
      25     1     1     2     0     0  1.643869024E+02 -2.243038863E+02 -1.177675496E+02  3.268477977E+02  1.250000000E+02  0.00000E+00  9.000E+00
      25     1     1     2     0     0 -1.266828424E+02  1.732213916E+02 -9.948642591E+01  2.675383000E+02  1.250000000E+02  0.00000E+00  9.000E+00
      21     1     1     2   512   501 -3.770406003E+01  5.108249470E+01 -8.453765503E+01  1.057243232E+02  1.651812370E-06  0.00000E+00  9.000E+00
#rwgt            1           1   2.7018004972575827E-002           2       48552           0
</event>
<event>
      5   9999  3.19816E-02  5.12177E+01 -1.00000E+00  1.38482E-01
      21    -1     0     0   502   501  0.000000000E+00  0.000000000E+00  5.466224662E+02  5.466224662E+02  0.000000000E+00  0.00000E+00  9.000E+00
      -2    -1     0     0     0   502  0.000000000E+00  0.000000000E+00 -5.283767054E+02  5.283767054E+02  0.000000000E+00  0.00000E+00  9.000E+00
      25     1     1     2     0     0 -2.805820213E+02  8.350302973E+01  4.189269243E+02  5.261404704E+02  1.250000000E+02  0.00000E+00  9.000E+00
      25     1     1     2     0     0  2.343406368E+02 -1.055253547E+02 -2.188741532E+02  3.599750401E+02  1.250000000E+02  0.00000E+00  9.000E+00
      -2     1     1     2     0   501  4.624138448E+01  2.202232494E+01 -1.818070103E+02  1.888836611E+02  2.697398305E-06  0.00000E+00  9.000E+00
#rwgt            1           1   2.9808890081093550E-002           2       48633           0
</event>
<event>
      5   9999  3.19816E-02  1.13117E+01 -1.00000E+00  1.89766E-01
      21    -1     0     0   502   501  0.000000000E+00  0.000000000E+00  3.524591362E+02  3.524591362E+02  0.000000000E+00  0.00000E+00  9.000E+00
      21    -1     0     0   511   502  0.000000000E+00  0.000000000E+00 -7.467948679E+02  7.467948679E+02  0.000000000E+00  0.00000E+00  9.000E+00
      25     1     1     2     0     0 -2.841071461E+02  4.429730923E+01  1.392616209E+02  3.430713062E+02  1.250000000E+02  0.00000E+00  9.000E+00
      25     1     1     2     0     0  2.755810028E+02 -5.173094733E+01 -1.006293221E+02  3.230669288E+02  1.250000000E+02  0.00000E+00  9.000E+00
      21     1     1     2   511   501  8.526143273E+00  7.433638102E+00 -4.329680305E+02  4.331157692E+02  0.000000000E+00  0.00000E+00  9.000E+00
#rwgt            1           1   3.0341936812125412E-002           2       48746           0
</event>
<event>
      5   9999  3.19816E-02  1.32935E+02 -1.00000E+00  1.18511E-01
      21    -1     0     0   502   512  0.000000000E+00  0.000000000E+00  4.929119412E+02  4.929119412E+02  0.000000000E+00  0.00000E+00  9.000E+00
      21    -1     0     0   501   502  0.000000000E+00  0.000000000E+00 -4.778560016E+02  4.778560016E+02  0.000000000E+00  0.00000E+00  9.000E+00
      25     1     1     2     0     0 -8.975664289E+01  1.877061695E+02  2.389632202E+02  3.406145646E+02  1.250000000E+02  0.00000E+00  9.000E+00
      25     1     1     2     0     0  2.205723454E+02 -2.113458679E+02 -3.249466195E+02  4.631787354E+02  1.250000000E+02  0.00000E+00  9.000E+00
      21     1     1     2   501   512 -1.308157025E+02  2.363969838E+01  1.010393389E+02  1.669746428E+02  2.336015456E-06  0.00000E+00  9.000E+00
#rwgt            1           1   2.4225535022830969E-002           2       48995           0
</event>
<event>
      5   9999  3.19816E-02  1.86752E+02 -1.00000E+00  1.12742E-01
      21    -1     0     0   502   501  0.000000000E+00  0.000000000E+00  1.177050331E+03  1.177050331E+03  0.000000000E+00  0.00000E+00  9.000E+00
      21    -1     0     0   511   502  0.000000000E+00  0.000000000E+00 -3.702995920E+02  3.702995920E+02  0.000000000E+00  0.00000E+00  9.000E+00
      25     1     1     2     0     0  3.802532536E+02 -2.533274824E+02  3.815041278E+02  6.082250814E+02  1.250000000E+02  0.00000E+00  9.000E+00
      25     1     1     2     0     0 -4.406182589E+02  4.300539155E+02  4.132431826E+02  7.519878645E+02  1.250000000E+02  0.00000E+00  9.000E+00
      21     1     1     2   511   501  6.036500529E+01 -1.767264332E+02  1.200342897E+01  1.871369775E+02  2.466220959E-06  0.00000E+00  9.000E+00
#rwgt            1           1   2.4108866885312864E-002           2       49049           0
</event>
<event>
      5   9999  3.19816E-02  9.66437E+00 -1.00000E+00  1.97487E-01
      21    -1     0     0   502   501  0.000000000E+00  0.000000000E+00  1.840351536E+02  1.840351536E+02  0.000000000E+00  0.00000E+00  9.000E+00
      21    -1     0     0   512   502  0.000000000E+00  0.000000000E+00 -3.596432202E+02  3.596432202E+02  0.000000000E+00  0.00000E+00  9.000E+00
      25     1     1     2     0     0 -1.878640067E+02  6.176910114E+00 -1.402097651E+02  2.657344868E+02  1.250000000E+02  0.00000E+00  9.000E+00
      25     1     1     2     0     0  1.965027720E+02 -1.050955381E+01  8.214680333E+00  2.332729541E+02  1.250000000E+02  0.00000E+00  9.000E+00
      21     1     1     2   512   501 -8.638765334E+00  4.332643699E+00 -4.361298184E+01  4.467093298E+01  0.000000000E+00  0.00000E+00  9.000E+00
#rwgt            1           1   2.5940583080725211E-002           2       49114           0
</event>
<event>
      5   9999  3.19816E-02  5.90380E+02 -1.00000E+00  9.68443E-02
      21    -1     0     0   502   501  0.000000000E+00  0.000000000E+00  6.789423327E+02  6.789423327E+02  0.000000000E+00  0.00000E+00  9.000E+00
       2    -1     0     0   501     0  0.000000000E+00  0.000000000E+00 -1.559908888E+03  1.559908888E+03  0.000000000E+00  0.00000E+00  9.000E+00
      25     1     1     2     0     0  7.382245571E+02 -3.608693626E+02  1.608683060E+02  8.465847893E+02  1.250000000E+02  0.00000E+00  9.000E+00
      25     1     1     2     0     0 -1.643112156E+02  2.224046067E+02 -5.308418461E+02  6.114573168E+02  1.250000000E+02  0.00000E+00  9.000E+00
       2     1     1     2   502     0 -5.739133415E+02  1.384647559E+02 -5.109930156E+02  7.808091151E+02  7.629394531E-06  0.00000E+00  9.000E+00
#rwgt            2          13   8.9629204072258668E-004           2       49288           0
</event>
<event>
      5   9999  3.19816E-02  5.44743E+02 -1.00000E+00  9.78059E-02
      21    -1     0     0   502   501  0.000000000E+00  0.000000000E+00  6.363969316E+02  6.363969316E+02  0.000000000E+00  0.00000E+00  9.000E+00
       2    -1     0     0   501     0  0.000000000E+00  0.000000000E+00 -1.052805251E+03  1.052805251E+03  0.000000000E+00  0.00000E+00  9.000E+00
      25     1     1     2     0     0  9.606234329E+01 -7.651699756E+01 -1.560516769E+02  2.346485683E+02  1.250000000E+02  0.00000E+00  9.000E+00
      25     1     1     2     0     0  2.098627486E+02  5.272444984E+02  3.160460999E+02  6.614675136E+02  1.250000000E+02  0.00000E+00  9.000E+00
       2     1     1     2   502     0 -3.059250918E+02 -4.507275009E+02 -5.764027429E+02  7.930861011E+02  0.000000000E+00  0.00000E+00  9.000E+00
#rwgt            2          13   1.0083661926666488E-003           2       49322           0
</event>
<event>
      5   9999  3.19816E-02  2.13383E+01 -1.00000E+00  1.64081E-01
      21    -1     0     0   502   511  0.000000000E+00  0.000000000E+00  7.010186113E+02  7.010186113E+02  0.000000000E+00  0.00000E+00  9.000E+00
      21    -1     0     0   501   502  0.000000000E+00  0.000000000E+00 -3.201813379E+02  3.201813379E+02  0.000000000E+00  0.00000E+00  9.000E+00
      25     1     1     2     0     0  1.290591238E+02  1.667434716E+01 -2.740944910E+02  3.281570985E+02  1.250000000E+02  0.00000E+00  9.000E+00
      25     1     1     2     0     0 -1.459893192E+02 -3.686151457E+00  4.838647707E+02  5.206501564E+02  1.250000000E+02  0.00000E+00  9.000E+00
      21     1     1     2   501   511  1.693019545E+01 -1.298819570E+01  1.710669937E+02  1.723926944E+02  2.697398305E-06  0.00000E+00  9.000E+00
#rwgt            1           1   3.2676248067948360E-002           2       49341           0
</event>
<event>
      5   9999  3.19816E-02  1.28335E+02 -1.00000E+00  1.19143E-01
      21    -1     0     0   502   501  0.000000000E+00  0.000000000E+00  3.424364933E+02  3.424364933E+02  0.000000000E+00  0.00000E+00  9.000E+00
       1    -1     0     0   501     0  0.000000000E+00  0.000000000E+00 -2.858838818E+03  2.858838818E+03  0.000000000E+00  0.00000E+00  9.000E+00
      25     1     1     2     0     0 -5.732053468E+01  2.178047724E+02 -1.249648820E+03  1.275919957E+03  1.250000000E+02  0.00000E+00  9.000E+00
      25     1     1     2     0     0  1.436919343E+02 -3.127255600E+02  2.239008964E+02  4.291867418E+02  1.250000000E+02  0.00000E+00  9.000E+00
       1     1     1     2   502     0 -8.637139964E+01  9.492078764E+01 -1.490654402E+03  1.496168613E+03  2.157918644E-05  0.00000E+00  9.000E+00
#rwgt            1           1   3.1182907027568488E-002           2       49559           0
</event>
<event>
      5   9999  3.19816E-02  1.12119E+01 -1.00000E+00  1.90184E-01
      21    -1     0     0   502   501  0.000000000E+00  0.000000000E+00  3.820175135E+02  3.820175135E+02  0.000000000E+00  0.00000E+00  9.000E+00
      21    -1     0     0   511   502  0.000000000E+00  0.000000000E+00 -1.030352317E+02  1.030352317E+02  0.000000000E+00  0.00000E+00  9.000E+00
      25     1     1     2     0     0 -9.827125587E+01 -7.793958975E+01  2.222092260E+02  2.841368675E+02  1.250000000E+02  0.00000E+00  9.000E+00
      25     1     1     2     0     0  9.689499131E+01  8.906669323E+01  5.315969805E+01  1.891361115E+02  1.250000000E+02  0.00000E+00  9.000E+00
      21     1     1     2   511   501  1.376264560E+00 -1.112710347E+01  3.613357753E+00  1.177976613E+01  2.421152116E-07  0.00000E+00  9.000E+00
#rwgt            1           1   2.9464464926139168E-002           2       49635           0
</event>
<event>
      5   9999  3.19816E-02  4.12619E+01 -1.00000E+00  1.44008E-01
      21    -1     0     0   502   501  0.000000000E+00  0.000000000E+00  5.067368333E+02  5.067368333E+02  0.000000000E+00  0.00000E+00  9.000E+00
      21    -1     0     0   512   502  0.000000000E+00  0.000000000E+00 -1.445885912E+02  1.445885912E+02  0.000000000E+00  0.00000E+00  9.000E+00
      25     1     1     2     0     0 -1.986781825E+02 -6.637040222E+01  7.046280898E+01  2.539056083E+02  1.250000000E+02  0.00000E+00  9.000E+00
      25     1     1     2     0     0  1.616239610E+02  8.452335265E+01  2.751060572E+02  3.529516180E+02  1.250000000E+02  0.00000E+00  9.000E+00
      21     1     1     2   512   501  3.705422147E+01 -1.815295043E+01  1.657937590E+01  4.446819812E+01  6.307962682E-07  0.00000E+00  9.000E+00
#rwgt            1           1   2.9592627023733921E-002           2       49793           0
</event>
<event>
      5   9999  3.19816E-02  1.61997E+01 -1.00000E+00  1.74292E-01
      21    -1     0     0   502   501  0.000000000E+00  0.000000000E+00  4.620144645E+01  4.620144645E+01  0.000000000E+00  0.00000E+00  9.000E+00
      21    -1     0     0   511   502  0.000000000E+00  0.000000000E+00 -6.250984620E+02  6.250984620E+02  0.000000000E+00  0.00000E+00  9.000E+00
      25     1     1     2     0     0 -4.839707647E+01 -3.385706351E+01 -1.296953246E+02  1.895638546E+02  1.250000000E+02  0.00000E+00  9.000E+00
      25     1     1     2     0     0  4.477821292E+01  4.964737167E+01 -3.016548137E+02  3.333025300E+02  1.250000000E+02  0.00000E+00  9.000E+00
      21     1     1     2   511   501  3.618863552E+00 -1.579030815E+01 -1.475468773E+02  1.484335238E+02  2.697398305E-06  0.00000E+00  9.000E+00
#rwgt            1           1   4.2028623222371830E-002           2       49893           0
</event>
<event>
      5   9999  3.19816E-02  8.22590E+01 -1.00000E+00  1.27767E-01
      21    -1     0     0   502   501  0.000000000E+00  0.000000000E+00  5.621856932E+02  5.621856932E+02  0.000000000E+00  0.00000E+00  9.000E+00
      21    -1     0     0   501   512  0.000000000E+00  0.000000000E+00 -4.749465037E+02  4.749465037E+02  0.000000000E+00  0.00000E+00  9.000E+00
      25     1     1     2     0     0  2.197844040E+02 -3.656068597E+02  1.964649856E+02  4.860010809E+02  1.250000000E+02  0.00000E+00  9.000E+00
      25     1     1     2     0     0 -1.740262238E+02  2.972494831E+02  5.203549034E+01  3.701014375E+02  1.250000000E+02  0.00000E+00  9.000E+00
      21     1     1     2   502   512 -4.575818025E+01  6.835737662E+01 -1.612612864E+02  1.810296785E+02  1.907348633E-06  0.00000E+00  9.000E+00
#rwgt            1           1   2.6242834932002596E-002           2       49965           0
</event>
<event>
      5   9999  3.19816E-02  3.34158E+01 -1.00000E+00  1.49857E-01
      21    -1     0     0   511   501  0.000000000E+00  0.000000000E+00  1.102268722E+03  1.102268722E+03  0.000000000E+00  0.00000E+00  9.000E+00
      21    -1     0     0   501   502  0.000000000E+00  0.000000000E+00 -4.788784715E+02  4.788784715E+02  0.000000000E+00  0.00000E+00  9.000E+00
      25     1     1     2     0     0  3.711456284E+02 -4.322933484E+02  6.565612576E+02  8.782507054E+02  1.250000000E+02  0.00000E+00  9.000E+00
      25     1     1     2     0     0 -3.995474955E+02  4.498986863E+02 -1.052040448E+02  6.234901124E+02  1.250000000E+02  0.00000E+00  9.000E+00
      21     1     1     2   511   502  2.840186710E+01 -1.760533796E+01  7.203303740E+01  7.940637541E+01  1.651812370E-06  0.00000E+00  9.000E+00
#rwgt            1           1   2.9018028127330189E-002           2       50034           0
</event>
<event>
      5   9999  3.19816E-02  7.36751E+01 -1.00000E+00  1.30105E-01
      21    -1     0     0   502   501  0.000000000E+00  0.000000000E+00  1.489142997E+03  1.489142997E+03  0.000000000E+00  0.00000E+00  9.000E+00
      21    -1     0     0   501   512  0.000000000E+00  0.000000000E+00 -1.657871508E+02  1.657871508E+02  0.000000000E+00  0.00000E+00  9.000E+00
      25     1     1     2     0     0  4.315834432E+02  1.972603497E+02  5.865263153E+02  7.647313466E+02  1.250000000E+02  0.00000E+00  9.000E+00
      25     1     1     2     0     0 -3.595565899E+02 -1.817635261E+02  6.635631025E+02  7.862950539E+02  1.250000000E+02  0.00000E+00  9.000E+00
      21     1     1     2   502   512 -7.202685331E+01 -1.549682356E+01  7.326642799E+01  1.039037468E+02  9.536743164E-07  0.00000E+00  9.000E+00
#rwgt            1           1   2.8333214246876175E-002           2       50148           0
</event>
<event>
      5   9999  3.19816E-02  2.99634E+01 -1.00000E+00  1.53077E-01
       1    -1     0     0   502     0  0.000000000E+00  0.000000000E+00  1.513399057E+03  1.513399057E+03  0.000000000E+00  0.00000E+00  9.000E+00
      21    -1     0     0   501   502  0.000000000E+00  0.000000000E+00 -8.904485135E+02  8.904485135E+02  0.000000000E+00  0.00000E+00  9.000E+00
      25     1     1     2     0     0  4.361512766E+01  1.974635718E+02 -4.282128058E+02  4.897809190E+02  1.250000000E+02  0.00000E+00  9.000E+00
      25     1     1     2     0     0 -1.819218378E+01 -1.816053967E+02 -4.029314493E+02  4.596631686E+02  1.250000000E+02  0.00000E+00  9.000E+00
       1     1     1     2   501     0 -2.542294388E+01 -1.585817508E+01  1.454094798E+03  1.454403483E+03  0.000000000E+00  0.00000E+00  9.000E+00
#rwgt            1           1   2.8120442960045348E-002           2       50229           0
</event>
<event>
      5   9999  3.19816E-02  7.39584E+01 -1.00000E+00  1.30022E-01
      21    -1     0     0   502   501  0.000000000E+00  0.000000000E+00  2.003945375E+02  2.003945375E+02  0.000000000E+00  0.00000E+00  9.000E+00
      21    -1     0     0   511   502  0.000000000E+00  0.000000000E+00 -3.797264144E+02  3.797264144E+02  0.000000000E+00  0.00000E+00  9.000E+00
      25     1     1     2     0     0  5.704437713E+01  6.358397747E+01  2.267266324E+01  1.530883170E+02  1.250000000E+02  0.00000E+00  9.000E+00
      25     1     1     2     0     0 -2.979450062E+00 -1.140500556E+02  4.006655241E+01  1.739155569E+02  1.250000000E+02  0.00000E+00  9.000E+00
      21     1     1     2   511   501 -5.406492707E+01  5.046607810E+01 -2.420710925E+02  2.531170781E+02  2.697398305E-06  0.00000E+00  9.000E+00
#rwgt            1           1   5.9080708086037929E-002           2       50384           0
</event>
<event>
      5   9999  3.19816E-02  4.21436E+01 -1.00000E+00  1.43448E-01
      21    -1     0     0   502   501  0.000000000E+00  0.000000000E+00  5.718859256E+01  5.718859256E+01  0.000000000E+00  0.00000E+00  9.000E+00
      21    -1     0     0   512   502  0.000000000E+00  0.000000000E+00 -5.704190037E+02  5.704190037E+02  0.000000000E+00  0.00000E+00  9.000E+00
      25     1     1     2     0     0 -4.894019707E+01 -5.072491592E+01 -8.531540076E+01  1.669487274E+02  1.250000000E+02  0.00000E+00  9.000E+00
      25     1     1     2     0     0  1.549795806E+01  2.507924259E+01 -3.226036565E+02  3.472279860E+02  1.250000000E+02  0.00000E+00  9.000E+00
      21     1     1     2   512   501  3.344223901E+01  2.564567333E+01 -1.053113539E+02  1.134308828E+02  0.000000000E+00  0.00000E+00  9.000E+00
#rwgt            1           1   6.6932760678569236E-002           2       50460           0
</event>
<event>
      5   9999  3.19816E-02  1.56189E+02 -1.00000E+00  1.15702E-01
      21    -1     0     0   511   501  0.000000000E+00  0.000000000E+00  2.254952000E+03  2.254952000E+03  0.000000000E+00  0.00000E+00  9.000E+00
      21    -1     0     0   501   502  0.000000000E+00  0.000000000E+00 -7.720072835E+02  7.720072835E+02  0.000000000E+00  0.00000E+00  9.000E+00
      25     1     1     2     0     0 -1.784529288E+02  3.696437966E+02 -6.696295076E+02  7.953053889E+02  1.250000000E+02  0.00000E+00  9.000E+00
      25     1     1     2     0     0  2.493442917E+02 -2.304696306E+02  9.098522932E+02  9.791552594E+02  1.250000000E+02  0.00000E+00  9.000E+00
      21     1     1     2   511   502 -7.089136287E+01 -1.391741661E+02  1.242721931E+03  1.252498635E+03  2.157918644E-05  0.00000E+00  9.000E+00
#rwgt            1           1   2.3913921166175647E-002           2       50530           0
</event>
<event>
      5   9999  3.19816E-02  1.65181E+02 -1.00000E+00  1.14758E-01
      21    -1     0     0   502   501  0.000000000E+00  0.000000000E+00  3.706618070E+03  3.706618070E+03  0.000000000E+00  0.00000E+00  9.000E+00
      21    -1     0     0   501   512  0.000000000E+00  0.000000000E+00 -1.162254759E+03  1.162254759E+03  0.000000000E+00  0.00000E+00  9.000E+00
      25     1     1     2     0     0 -7.341055574E+02  1.520348628E+03  6.510899421E+02  1.813812017E+03  1.250000000E+02  0.00000E+00  9.000E+00
      25     1     1     2     0     0  7.439750016E+02 -1.355462662E+03  2.208683334E+03  2.699015543E+03  1.250000000E+02  0.00000E+00  9.000E+00
      21     1     1     2   502   512 -9.869444179E+00 -1.648859661E+02 -3.154099654E+02  3.560452696E+02  3.814697266E-06  0.00000E+00  9.000E+00
#rwgt            1           1   2.4482159163207669E-002           2       50605           0
</event>
<event>
      5   9999  3.19816E-02  2.06273E+02 -1.00000E+00  1.11162E-01
      21    -1     0     0   502   511  0.000000000E+00  0.000000000E+00  6.619239250E+02  6.619239250E+02  0.000000000E+00  0.00000E+00  9.000E+00
      21    -1     0     0   501   502  0.000000000E+00  0.000000000E+00 -1.128836916E+03  1.128836916E+03  0.000000000E+00  0.00000E+00  9.000E+00
      25     1     1     2     0     0  5.344637905E+02  4.167778482E+01 -4.074583730E+02  6.848619619E+02  1.250000000E+02  0.00000E+00  9.000E+00
      25     1     1     2     0     0 -7.109965516E+02 -1.483767146E+02 -2.940749771E+02  7.934965898E+02  1.250000000E+02  0.00000E+00  9.000E+00
      21     1     1     2   501   511  1.765327610E+02  1.066989298E+02  2.346203593E+02  3.124022893E+02  5.394796609E-06  0.00000E+00  9.000E+00
#rwgt            1           1   2.9725956551244579E-002           2       50681           0
</event>
<event>
      5   9999  3.19816E-02  6.77415E+01 -1.00000E+00  1.31946E-01
      21    -1     0     0   502   501  0.000000000E+00  0.000000000E+00  8.729504221E+02  8.729504221E+02  0.000000000E+00  0.00000E+00  9.000E+00
       1    -1     0     0   501     0  0.000000000E+00  0.000000000E+00 -3.198868752E+02  3.198868752E+02  0.000000000E+00  0.00000E+00  9.000E+00
      25     1     1     2     0     0  6.400481370E+01 -1.329901830E+02  6.492767747E+02  6.774720180E+02  1.250000000E+02  0.00000E+00  9.000E+00
      25     1     1     2     0     0 -1.316401797E+02  1.291990371E+02  1.443227357E+02  2.654723717E+02  1.250000000E+02  0.00000E+00  9.000E+00
       1     1     1     2   502     0  6.763536599E+01  3.791145947E+00 -2.405359636E+02  2.498929076E+02  3.814697266E-06  0.00000E+00  9.000E+00
#rwgt            1           1   3.1672165645375387E-002           2       50731           0
</event>
<event>
      5   9999  3.19816E-02  7.18093E+01 -1.00000E+00  1.30662E-01
      21    -1     0     0   502   501  0.000000000E+00  0.000000000E+00  4.677935230E+02  4.677935230E+02  0.000000000E+00  0.00000E+00  9.000E+00
      21    -1     0     0   501   511  0.000000000E+00  0.000000000E+00 -7.748767847E+02  7.748767847E+02  0.000000000E+00  0.00000E+00  9.000E+00
      25     1     1     2     0     0 -1.159648714E+02 -1.197795835E+02 -1.313641208E+02  2.463260690E+02  1.250000000E+02  0.00000E+00  9.000E+00
      25     1     1     2     0     0  1.736951605E+02  1.624853530E+02  3.636878164E+02  4.521784234E+02  1.250000000E+02  0.00000E+00  9.000E+00
      21     1     1     2   502   511 -5.773028913E+01 -4.270576955E+01 -5.394069573E+02  5.441658154E+02  7.629394531E-06  0.00000E+00  9.000E+00
#rwgt            1           1   3.1111952838686691E-002           2       50831           0
</event>
<event>
      5   9999  3.19816E-02  3.43188E+02 -1.00000E+00  1.03728E-01
      21    -1     0     0   502   501  0.000000000E+00  0.000000000E+00  5.096886865E+02  5.096886865E+02  0.000000000E+00  0.00000E+00  9.000E+00
       2    -1     0     0   501     0  0.000000000E+00  0.000000000E+00 -1.449265364E+03  1.449265364E+03  0.000000000E+00  0.00000E+00  9.000E+00
      25     1     1     2     0     0  2.018029000E+02 -2.494236176E+01  5.386212168E+01  2.446889045E+02  1.250000000E+02  0.00000E+00  9.000E+00
      25     1     1     2     0     0 -5.089091835E+02 -1.282357262E+02  1.169696696E+02  5.520324828E+02  1.250000000E+02  0.00000E+00  9.000E+00
       2     1     1     2   502     0  3.071062835E+02  1.531780879E+02 -1.110408469E+03  1.162232664E+03  1.525878906E-05  0.00000E+00  9.000E+00
#rwgt            1           1   3.0121900193765254E-002           2       50938           0
</event>
<event>
      5   9999  3.19816E-02  9.01462E+01 -1.00000E+00  1.25889E-01
      21    -1     0     0   502   511  0.000000000E+00  0.000000000E+00  1.123058404E+03  1.123058404E+03  0.000000000E+00  0.00000E+00  9.000E+00
      21    -1     0     0   501   502  0.000000000E+00  0.000000000E+00 -9.098157808E+01  9.098157808E+01  0.000000000E+00  0.00000E+00  9.000E+00
      25     1     1     2     0     0 -9.186133142E+01  1.605257387E+02  5.285413560E+02  5.737490583E+02  1.250000000E+02  0.00000E+00  9.000E+00
      25     1     1     2     0     0  1.780552951E+02 -1.869254227E+02  2.870773000E+02  4.058117519E+02  1.250000000E+02  0.00000E+00  9.000E+00
      21     1     1     2   501   511 -8.619396372E+01  2.639968408E+01  2.164581703E+02  2.344791722E+02  2.697398305E-06  0.00000E+00  9.000E+00
#rwgt            1           1   2.9652694175126344E-002           2       51011           0
</event>
<event>
      5   9999  3.19816E-02  2.78658E+02 -1.00000E+00  1.06644E-01
      21    -1     0     0   502   501  0.000000000E+00  0.000000000E+00  1.304675029E+02  1.304675029E+02  0.000000000E+00  0.00000E+00  9.000E+00
       1    -1     0     0   501     0  0.000000000E+00  0.000000000E+00 -2.381218489E+03  2.381218489E+03  0.000000000E+00  0.00000E+00  9.000E+00
      25     1     1     2     0     0 -3.190055635E+01  3.543400515E+01 -3.182615437E+02  3.452370554E+02  1.250000000E+02  0.00000E+00  9.000E+00
      25     1     1     2     0     0 -1.963477833E+02  1.244194593E+02 -5.653932682E+01  2.699154485E+02  1.250000000E+02  0.00000E+00  9.000E+00
       1     1     1     2   502     0  2.282483397E+02 -1.598534645E+02 -1.875950115E+03  1.896533488E+03  0.000000000E+00  0.00000E+00  9.000E+00
#rwgt            2          12   9.1447307865954064E-004           2       51225           0
</event>
<event>
      5   9999  3.19816E-02  4.42941E+01 -1.00000E+00  1.42146E-01
      21    -1     0     0   502   511  0.000000000E+00  0.000000000E+00  3.154748445E+02  3.154748445E+02  0.000000000E+00  0.00000E+00  9.000E+00
      21    -1     0     0   501   502  0.000000000E+00  0.000000000E+00 -2.986174943E+02  2.986174943E+02  0.000000000E+00  0.00000E+00  9.000E+00
      25     1     1     2     0     0  9.216199722E+01 -6.234718065E+01  1.912596572E+02  2.541382717E+02  1.250000000E+02  0.00000E+00  9.000E+00
      25     1     1     2     0     0 -8.490009471E+01  1.060419414E+02 -2.260916121E+02  2.918824018E+02  1.250000000E+02  0.00000E+00  9.000E+00
      21     1     1     2   501   511 -7.261902510E+00 -4.369476079E+01  5.168930512E+01  6.807166527E+01  1.168007728E-06  0.00000E+00  9.000E+00
#rwgt            1           1   2.7392398233868836E-002           2       51244           0
</event>
<event>
      5   9999  3.19816E-02  3.95831E+01 -1.00000E+00  1.45123E-01
      21    -1     0     0   502   501  0.000000000E+00  0.000000000E+00  2.532129096E+02  2.532129096E+02  0.000000000E+00  0.00000E+00  9.000E+00
       1    -1     0     0   501     0  0.000000000E+00  0.000000000E+00 -1.070335355E+03  1.070335355E+03  0.000000000E+00  0.00000E+00  9.000E+00
      25     1     1     2     0     0 -2.977261059E+01  3.212509364E+02 -2.056556336E+02  4.025019405E+02  1.250000000E+02  0.00000E+00  9.000E+00
      25     1     1     2     0     0  6.929900271E+01 -3.233683280E+02 -4.869388775E+01  3.568830649E+02  1.250000000E+02  0.00000E+00  9.000E+00
       1     1     1     2   502     0 -3.952639213E+01  2.117391572E+00 -5.627729241E+02  5.641632593E+02  7.629394531E-06  0.00000E+00  9.000E+00
#rwgt            1           1   2.7962292592923012E-002           2       51319           0
</event>
<event>
      5   9999  3.19816E-02  1.78710E+01 -1.00000E+00  1.70506E-01
      21    -1     0     0   502   511  0.000000000E+00  0.000000000E+00  4.910858186E+02  4.910858186E+02  0.000000000E+00  0.00000E+00  9.000E+00
      21    -1     0     0   501   502  0.000000000E+00  0.000000000E+00 -5.224475791E+01  5.224475791E+01  0.000000000E+00  0.00000E+00  9.000E+00
      25     1     1     2     0     0 -5.601010781E+01 -4.576442394E+01  2.678414542E+02  3.042951844E+02  1.250000000E+02  0.00000E+00  9.000E+00
      25     1     1     2     0     0  4.871847656E+01  2.944858775E+01  1.115073264E+02  1.769169102E+02  1.250000000E+02  0.00000E+00  9.000E+00
      21     1     1     2   501   511  7.291631248E+00  1.631583619E+01  5.949228015E+01  6.211848190E+01  0.000000000E+00  0.00000E+00  9.000E+00
#rwgt            1           1   4.5815598905326639E-002           2       51503           0
</event>
<event>
      5   9999  3.19816E-02  9.71358E+01 -1.00000E+00  1.24398E-01
       2    -1     0     0   502     0  0.000000000E+00  0.000000000E+00  1.294031258E+03  1.294031258E+03  0.000000000E+00  0.00000E+00  9.000E+00
      21    -1     0     0   501   502  0.000000000E+00  0.000000000E+00 -5.299500949E+02  5.299500949E+02  0.000000000E+00  0.00000E+00  9.000E+00
      25     1     1     2     0     0  4.184593571E+02  7.933378326E+01  6.419394451E+01  4.484952009E+02  1.250000000E+02  0.00000E+00  9.000E+00
      25     1     1     2     0     0 -5.020844744E+02 -1.287524625E+02 -1.227477392E+02  5.471362019E+02  1.250000000E+02  0.00000E+00  9.000E+00
       2     1     1     2   501     0  8.362511730E+01  4.941867927E+01  8.226349573E+02  8.283499497E+02  1.078959322E-05  0.00000E+00  9.000E+00
#rwgt            1           1   3.1017689726307057E-002           2       51697           0
</event>
<event>
      5   9999  3.19816E-02  3.44174E+01 -1.00000E+00  1.49009E-01
      21    -1     0     0   502   511  0.000000000E+00  0.000000000E+00  1.445438066E+03  1.445438066E+03  0.000000000E+00  0.00000E+00  9.000E+00
      21    -1     0     0   501   502  0.000000000E+00  0.000000000E+00 -7.932192175E+02  7.932192175E+02  0.000000000E+00  0.00000E+00  9.000E+00
      25     1     1     2     0     0  1.262140560E+02 -3.749112302E+02  1.174697977E+03  1.245804461E+03  1.250000000E+02  0.00000E+00  9.000E+00
      25     1     1     2     0     0 -9.196619764E+01  3.714990625E+02 -7.024349978E+02  8.096352642E+02  1.250000000E+02  0.00000E+00  9.000E+00
      21     1     1     2   501   511 -3.424785840E+01  3.412167707E+00  1.799558698E+02  1.832175586E+02  1.907348633E-06  0.00000E+00  9.000E+00
#rwgt            1           1   3.0227377486445113E-002           2       51813           0
</event>
<event>
      5   9999  3.19816E-02  3.91102E+01 -1.00000E+00  1.45449E-01
      21    -1     0     0   502   501  0.000000000E+00  0.000000000E+00  2.413621361E+02  2.413621361E+02  0.000000000E+00  0.00000E+00  9.000E+00
       2    -1     0     0   501     0  0.000000000E+00  0.000000000E+00 -1.754134054E+03  1.754134054E+03  0.000000000E+00  0.00000E+00  9.000E+00
      25     1     1     2     0     0 -3.634281374E+02  1.336762648E+02 -2.261689370E+02  4.655391958E+02  1.250000000E+02  0.00000E+00  9.000E+00
      25     1     1     2     0     0  3.463084451E+02 -1.688405142E+02 -2.167574588E+02  4.593968375E+02  1.250000000E+02  0.00000E+00  9.000E+00
       2     1     1     2   502     0  1.711969230E+01  3.516424936E+01 -1.069845523E+03  1.070560157E+03  1.525878906E-05  0.00000E+00  9.000E+00
#rwgt            1           1   2.9043683612460198E-002           2       52001           0
</event>
<event>
      5   9999  3.19816E-02  1.74834E+01 -1.00000E+00  1.71337E-01
      21    -1     0     0   502   511  0.000000000E+00  0.000000000E+00  1.477560646E+02  1.477560646E+02  0.000000000E+00  0.00000E+00  9.000E+00
      21    -1     0     0   501   502  0.000000000E+00  0.000000000E+00 -1.091696783E+03  1.091696783E+03  0.000000000E+00  0.00000E+00  9.000E+00
      25     1     1     2     0     0 -8.624991004E+01  3.140919040E+01 -1.635448416E+02  2.253830061E+02  1.250000000E+02  0.00000E+00  9.000E+00
      25     1     1     2     0     0  6.900059290E+01 -3.426030289E+01 -8.905313933E+02  9.025552685E+02  1.250000000E+02  0.00000E+00  9.000E+00
      21     1     1     2   501   511  1.724931713E+01  2.851112490E+00  1.101355170E+02  1.115145725E+02  4.264961200E-06  0.00000E+00  9.000E+00
#rwgt            1           1   2.6398952655698436E-002           2       52196           0
</event>
<event>
      5   9999  3.19816E-02  3.46548E+01 -1.00000E+00  1.48813E-01
      21    -1     0     0   502   501  0.000000000E+00  0.000000000E+00  1.030946064E+02  1.030946064E+02  0.000000000E+00  0.00000E+00  9.000E+00
      21    -1     0     0   512   502  0.000000000E+00  0.000000000E+00 -4.761624648E+02  4.761624648E+02  0.000000000E+00  0.00000E+00  9.000E+00
      25     1     1     2     0     0 -6.158878514E+01 -9.484001612E+01 -1.634858105E+02  2.348199680E+02  1.250000000E+02  0.00000E+00  9.000E+00
      25     1     1     2     0     0  2.721189259E+01  9.922004955E+01 -3.394745123E+01  1.654162470E+02  1.250000000E+02  0.00000E+00  9.000E+00
      21     1     1     2   512   501  3.437689255E+01 -4.380033437E+00 -1.756345966E+02  1.790208562E+02  1.907348633E-06  0.00000E+00  9.000E+00
#rwgt            1           1   2.8102586328139410E-002           2       52294           0
</event>
<event>
      5   9999  3.19816E-02  3.39237E+01 -1.00000E+00  1.49422E-01
      21    -1     0     0   502   511  0.000000000E+00  0.000000000E+00  2.955105561E+01  2.955105561E+01  0.000000000E+00  0.00000E+00  9.000E+00
      21    -1     0     0   501   502  0.000000000E+00  0.000000000E+00 -3.154136769E+03  3.154136769E+03  0.000000000E+00  0.00000E+00  9.000E+00
      25     1     1     2     0     0 -1.770239599E+02  1.280312687E+02 -2.084627899E+03  2.099768551E+03  1.250000000E+02  0.00000E+00  9.000E+00
      25     1     1     2     0     0  1.918472775E+02 -9.751754656E+01 -1.004399108E+03  1.034774187E+03  1.250000000E+02  0.00000E+00  9.000E+00
      21     1     1     2   501   511 -1.482331759E+01 -3.051372216E+01 -3.555870579E+01  4.914508665E+01  1.066240300E-06  0.00000E+00  9.000E+00
#rwgt            1           1   2.8308322078835171E-002           2       52390           0
</event>
<event>
      5   9999  3.19816E-02  5.74232E+01 -1.00000E+00  1.35730E-01
      21    -1     0     0   512   501  0.000000000E+00  0.000000000E+00  2.032508774E+02  2.032508774E+02  0.000000000E+00  0.00000E+00  9.000E+00
      21    -1     0     0   501   502  0.000000000E+00  0.000000000E+00 -2.935807926E+02  2.935807926E+02  0.000000000E+00  0.00000E+00  9.000E+00
      25     1     1     2     0     0  2.519886640E+01 -1.244948915E+02 -1.522954556E+02  2.344202779E+02  1.250000000E+02  0.00000E+00  9.000E+00
      25     1     1     2     0     0  3.043692104E+01  1.387105402E+02  1.790702774E+01  1.900333702E+02  1.250000000E+02  0.00000E+00  9.000E+00
      21     1     1     2   512   502 -5.563578744E+01 -1.421564874E+01  4.405851266E+01  7.237802187E+01  1.168007728E-06  0.00000E+00  9.000E+00
#rwgt            1           1   2.8308328983627975E-002           2       52463           0
</event>
<event>
      5   9999  3.19816E-02  1.71038E+01 -1.00000E+00  1.72177E-01
      21    -1     0     0   502   511  0.000000000E+00  0.000000000E+00  5.973340911E+01  5.973340911E+01  0.000000000E+00  0.00000E+00  9.000E+00
      21    -1     0     0   501   502  0.000000000E+00  0.000000000E+00 -1.194152405E+03  1.194152405E+03  0.000000000E+00  0.00000E+00  9.000E+00
      25     1     1     2     0     0 -2.036724615E+02 -4.966704494E+01 -6.490108238E+02  6.933897434E+02  1.250000000E+02  0.00000E+00  9.000E+00
      25     1     1     2     0     0  2.096362943E+02  6.569738228E+01 -4.801261218E+02  5.425952587E+02  1.250000000E+02  0.00000E+00  9.000E+00
      21     1     1     2   501   511 -5.963832788E+00 -1.603033734E+01 -5.282050434E+00  1.790081209E+01  8.429369702E-08  0.00000E+00  9.000E+00
#rwgt            1           1   2.8298513013846324E-002           2       52600           0
</event>
<event>
      5   9999  3.19816E-02  2.11346E+02 -1.00000E+00  1.10783E-01
      21    -1     0     0   502   501  0.000000000E+00  0.000000000E+00  2.376404106E+03  2.376404106E+03  0.000000000E+00  0.00000E+00  9.000E+00
      21    -1     0     0   501   512  0.000000000E+00  0.000000000E+00 -4.424797019E+02  4.424797019E+02  0.000000000E+00  0.00000E+00  9.000E+00
      25     1     1     2     0     0 -6.645600501E+02 -4.222137995E+02  1.503451517E+02  8.112541015E+02  1.250000000E+02  0.00000E+00  9.000E+00
      25     1     1     2     0     0  5.092884958E+02  2.788338482E+02  1.659437266E+03  1.762520958E+03  1.250000000E+02  0.00000E+00  9.000E+00
      21     1     1     2   502   512  1.552715543E+02  1.433799512E+02  1.241419869E+02  2.451087491E+02  4.862803949E-06  0.00000E+00  9.000E+00
#rwgt            1           1   2.4930851821932356E-002           2       52732           0
</event>
<event>
      5   9999  3.19816E-02  4.65027E+01 -1.00000E+00  1.40896E-01
      21    -1     0     0   502   511  0.000000000E+00  0.000000000E+00  1.497723860E+03  1.497723860E+03  0.000000000E+00  0.00000E+00  9.000E+00
      21    -1     0     0   501   502  0.000000000E+00  0.000000000E+00 -7.643247512E+01  7.643247512E+01  0.000000000E+00  0.00000E+00  9.000E+00
      25     1     1     2     0     0  1.263111865E+02  1.781644536E+02  1.047384535E+03  1.077189144E+03  1.250000000E+02  0.00000E+00  9.000E+00
      25     1     1     2     0     0 -1.705662359E+02 -1.638817994E+02  2.562677260E+02  3.704702854E+02  1.250000000E+02  0.00000E+00  9.000E+00
      21     1     1     2   501   511  4.425504935E+01 -1.428265417E+01  1.176391235E+02  1.264969050E+02  1.348699152E-06  0.00000E+00  9.000E+00
#rwgt            1           1   2.9598474311371133E-002           2       52783           0
</event>
<event>
      5   9999  3.19816E-02  9.94841E+00 -1.00000E+00  1.96017E-01
      21    -1     0     0   512   501  0.000000000E+00  0.000000000E+00  3.212243160E+02  3.212243160E+02  0.000000000E+00  0.00000E+00  9.000E+00
      21    -1     0     0   501   502  0.000000000E+00  0.000000000E+00 -6.016320279E+02  6.016320279E+02  0.000000000E+00  0.00000E+00  9.000E+00
      25     1     1     2     0     0  2.417019179E+02  2.465596702E+02  1.069043649E+02  3.824461156E+02  1.250000000E+02  0.00000E+00  9.000E+00
      25     1     1     2     0     0 -2.453982197E+02 -2.373234294E+02 -3.862089665E+02  5.304008505E+02  1.250000000E+02  0.00000E+00  9.000E+00
      21     1     1     2   512   502  3.696301865E+00 -9.236240819E+00 -1.103110231E+00  1.000937781E+01  2.210199382E-07  0.00000E+00  9.000E+00
#rwgt            1           1   2.6083585971647592E-002           2       52871           0
</event>
<event>
      5   9999  3.19816E-02  5.74296E+01 -1.00000E+00  1.35727E-01
      21    -1     0     0   502   501  0.000000000E+00  0.000000000E+00  1.840893683E+02  1.840893683E+02  0.000000000E+00  0.00000E+00  9.000E+00
      21    -1     0     0   501   511  0.000000000E+00  0.000000000E+00 -2.001996722E+03  2.001996722E+03  0.000000000E+00  0.00000E+00  9.000E+00
      25     1     1     2     0     0  1.481416741E+01  1.808737613E+02 -9.291786295E+02  9.549516756E+02  1.250000000E+02  0.00000E+00  9.000E+00
      25     1     1     2     0     0 -7.126493683E+01 -1.703161136E+02  9.742029110E+01  2.433145760E+02  1.250000000E+02  0.00000E+00  9.000E+00
      21     1     1     2   502   511  5.645076942E+01 -1.055764770E+01 -9.861490152E+02  9.878198386E+02  1.078959322E-05  0.00000E+00  9.000E+00
#rwgt            1           1   2.8315905774090905E-002           2       53172           0
</event>
<event>
      5   9999  3.19816E-02  1.32662E+02 -1.00000E+00  1.18548E-01
      21    -1     0     0   502   501  0.000000000E+00  0.000000000E+00  5.882663351E+02  5.882663351E+02  0.000000000E+00  0.00000E+00  9.000E+00
      21    -1     0     0   501   512  0.000000000E+00  0.000000000E+00 -6.576773351E+02  6.576773351E+02  0.000000000E+00  0.00000E+00  9.000E+00
      25     1     1     2     0     0  2.625829041E+01  6.043710253E+01  8.390772785E+01  1.643400376E+02  1.250000000E+02  0.00000E+00  9.000E+00
      25     1     1     2     0     0 -1.499809772E+02 -1.256277752E+01  4.358164963E+02  4.777165847E+02  1.250000000E+02  0.00000E+00  9.000E+00
      21     1     1     2   502   512  1.237226867E+02 -4.787432501E+01 -5.891352242E+02  6.038870478E+02  7.629394531E-06  0.00000E+00  9.000E+00
#rwgt            1           1   2.7198283541690491E-002           2       53334           0
</event>
<event>
      5   9999  3.19816E-02  1.95242E+01 -1.00000E+00  1.67236E-01
      21    -1     0     0   502   501  0.000000000E+00  0.000000000E+00  7.060650979E+02  7.060650979E+02  0.000000000E+00  0.00000E+00  9.000E+00
      21    -1     0     0   501   511  0.000000000E+00  0.000000000E+00 -7.995772205E+01  7.995772205E+01  0.000000000E+00  0.00000E+00  9.000E+00
      25     1     1     2     0     0  3.465505407E+01 -7.596280865E+01  5.831000986E+02  6.021644676E+02  1.250000000E+02  0.00000E+00  9.000E+00
      25     1     1     2     0     0 -4.726075393E+01  6.105335647E+01  5.929126167E+01  1.584346708E+02  1.250000000E+02  0.00000E+00  9.000E+00
      21     1     1     2   502   511  1.260569986E+01  1.490945218E+01 -1.628398444E+01  2.542368153E+01  5.331201500E-07  0.00000E+00  9.000E+00
#rwgt            1           1   2.9512041109135693E-002           2       53421           0
</event>
<event>
      5   9999  3.19816E-02  1.64204E+02 -1.00000E+00  1.14857E-01
       1    -1     0     0   502     0  0.000000000E+00  0.000000000E+00  3.619758153E+03  3.619758153E+03  0.000000000E+00  0.00000E+00  9.000E+00
      21    -1     0     0   501   502  0.000000000E+00  0.000000000E+00 -3.619605003E+02  3.619605003E+02  0.000000000E+00  0.00000E+00  9.000E+00
      25     1     1     2     0     0 -2.121870025E+02  1.842605702E+02 -7.978268725E+01  3.177507812E+02  1.250000000E+02  0.00000E+00  9.000E+00
      25     1     1     2     0     0  1.470300734E+02 -3.353709589E+01 -1.017448162E+02  2.207251388E+02  1.250000000E+02  0.00000E+00  9.000E+00
       1     1     1     2   501     0  6.515692906E+01 -1.507234743E+02  3.439325156E+03  3.443242734E+03  4.315837288E-05  0.00000E+00  9.000E+00
#rwgt            1           1   2.9494851410990074E-002           2       53551           0
</event>
<event>
      5   9999  3.19816E-02  2.08702E+01 -1.00000E+00  1.64857E-01
      21    -1     0     0   502   501  0.000000000E+00  0.000000000E+00  1.108735351E+02  1.108735351E+02  0.000000000E+00  0.00000E+00  9.000E+00
      21    -1     0     0   501   511  0.000000000E+00  0.000000000E+00 -7.716766779E+02  7.716766779E+02  0.000000000E+00  0.00000E+00  9.000E+00
      25     1     1     2     0     0 -5.967129055E+01  1.398466011E+02 -8.184907760E+00  1.970018463E+02  1.250000000E+02  0.00000E+00  9.000E+00
      25     1     1     2     0     0  3.915600914E+01 -1.360142502E+02 -5.778196408E+02  6.078927591E+02  1.250000000E+02  0.00000E+00  9.000E+00
      21     1     1     2   502   511  2.051528141E+01 -3.832350882E+00 -7.479859429E+01  7.765560760E+01  9.536743164E-07  0.00000E+00  9.000E+00
#rwgt            1           1   2.6553027889466948E-002           2       53594           0
</event>
<event>
      5   9999  3.19816E-02  4.60798E+01 -1.00000E+00  1.41129E-01
      21    -1     0     0   502   501  0.000000000E+00  0.000000000E+00  8.762142505E+02  8.762142505E+02  0.000000000E+00  0.00000E+00  9.000E+00
       5    -1     0     0   501     0  0.000000000E+00  0.000000000E+00 -2.401258656E+02  2.401258656E+02  0.000000000E+00  0.00000E+00  9.000E+00
      25     1     1     2     0     0  3.300062099E+02  1.252623614E+02  4.556483892E+02  5.897755610E+02  1.250000000E+02  0.00000E+00  9.000E+00
      25     1     1     2     0     0 -3.741562178E+02 -1.120665993E+02  2.204036730E+02  4.655690895E+02  1.250000000E+02  0.00000E+00  9.000E+00
       5     1     1     2   502     0  4.415000793E+01 -1.319576208E+01 -3.996367726E+01  6.099546571E+01  4.768371582E-07  0.00000E+00  9.000E+00
#rwgt            2          16   5.9324983006371472E-006           2       53734           0
</event>
<event>
      5   9999  3.19816E-02  1.62543E+02 -1.00000E+00  1.15028E-01
      21    -1     0     0   502   501  0.000000000E+00  0.000000000E+00  1.018772632E+02  1.018772632E+02  0.000000000E+00  0.00000E+00  9.000E+00
       2    -1     0     0   501     0  0.000000000E+00  0.000000000E+00 -2.238315996E+03  2.238315996E+03  0.000000000E+00  0.00000E+00  9.000E+00
      25     1     1     2     0     0 -4.039331358E+01  3.256321660E+02 -9.781555055E+02  1.039269513E+03  1.250000000E+02  0.00000E+00  9.000E+00
      25     1     1     2     0     0 -1.215291384E+02 -3.114477677E+02 -4.507070856E+02  5.749181859E+02  1.250000000E+02  0.00000E+00  9.000E+00
       2     1     1     2   502     0  1.619224519E+02 -1.418439834E+01 -7.075761415E+02  7.260055603E+02  7.629394531E-06  0.00000E+00  9.000E+00
#rwgt            1           1   2.5290302266287673E-002           2       53753           0
</event>
<event>
      5   9999  3.19816E-02  1.82940E+02 -1.00000E+00  1.13076E-01
      21    -1     0     0   502   511  0.000000000E+00  0.000000000E+00  2.629840625E+03  2.629840625E+03  0.000000000E+00  0.00000E+00  9.000E+00
      21    -1     0     0   501   502  0.000000000E+00  0.000000000E+00 -3.862024875E+02  3.862024875E+02  0.000000000E+00  0.00000E+00  9.000E+00
      25     1     1     2     0     0  5.928659974E+02 -1.244442635E+02  3.121156909E+02  6.928330752E+02  1.250000000E+02  0.00000E+00  9.000E+00
      25     1     1     2     0     0 -5.368239966E+02 -4.970055303E+01  2.098910192E+02  5.918862967E+02  1.250000000E+02  0.00000E+00  9.000E+00
      21     1     1     2   501   511 -5.604200081E+01  1.741448165E+02  1.721631428E+03  1.731323741E+03  0.000000000E+00  0.00000E+00  9.000E+00
#rwgt            1           1   1.6447609113076560E-002           2       53871           0
</event>
<event>
      5   9999  3.19816E-02  1.79792E+01 -1.00000E+00  1.70279E-01
      21    -1     0     0   512   501  0.000000000E+00  0.000000000E+00  2.373249012E+02  2.373249012E+02  0.000000000E+00  0.00000E+00  9.000E+00
      21    -1     0     0   501   502  0.000000000E+00  0.000000000E+00 -3.188540332E+02  3.188540332E+02  0.000000000E+00  0.00000E+00  9.000E+00
      25     1     1     2     0     0  9.128288187E+01 -1.602933485E+02 -1.413601328E+02  2.638829461E+02  1.250000000E+02  0.00000E+00  9.000E+00
      25     1     1     2     0     0 -1.078199766E+02  1.673485372E+02  5.567166849E+00  2.351311838E+02  1.250000000E+02  0.00000E+00  9.000E+00
      21     1     1     2   512   502  1.653709476E+01 -7.055188689E+00  5.426383397E+01  5.716480445E+01  9.536743164E-07  0.00000E+00  9.000E+00
#rwgt            1           1   2.8023557472124525E-002           2       53925           0
</event>
<event>
      5   9999  3.19816E-02  8.43208E+01 -1.00000E+00  1.27253E-01
      21    -1     0     0   502   501  0.000000000E+00  0.000000000E+00  1.552730196E+03  1.552730196E+03  0.000000000E+00  0.00000E+00  9.000E+00
      21    -1     0     0   511   502  0.000000000E+00  0.000000000E+00 -7.732771937E+01  7.732771937E+01  0.000000000E+00  0.00000E+00  9.000E+00
      25     1     1     2     0     0 -2.433299490E+01 -1.169248506E+02  7.147874313E+02  7.353975709E+02  1.250000000E+02  0.00000E+00  9.000E+00
      25     1     1     2     0     0  1.049088633E+02  9.207464102E+01  7.848654993E+02  8.069215954E+02  1.250000000E+02  0.00000E+00  9.000E+00
      21     1     1     2   511   501 -8.057586844E+01  2.485020954E+01 -2.425045435E+01  8.773874871E+01  6.743495762E-07  0.00000E+00  9.000E+00
#rwgt            1           1   3.2093517855180172E-002           2       54035           0
</event>
<event>
      5   9999  3.19816E-02  2.89536E+01 -1.00000E+00  1.54118E-01
      21    -1     0     0   512   501  0.000000000E+00  0.000000000E+00  2.885397385E+03  2.885397385E+03  0.000000000E+00  0.00000E+00  9.000E+00
      21    -1     0     0   501   502  0.000000000E+00  0.000000000E+00 -4.035540601E+02  4.035540601E+02  0.000000000E+00  0.00000E+00  9.000E+00
      25     1     1     2     0     0 -4.784856823E+02  2.746689645E+01  2.549871357E+03  2.597531889E+03  1.250000000E+02  0.00000E+00  9.000E+00
      25     1     1     2     0     0  4.960765371E+02 -4.469627049E+00 -2.052035307E+02  5.512217314E+02  1.250000000E+02  0.00000E+00  9.000E+00
      21     1     1     2   512   502 -1.759085481E+01 -2.299726940E+01  1.371754993E+02  1.401978251E+02  2.697398305E-06  0.00000E+00  9.000E+00
#rwgt            1           1   2.3856102722275448E-002           2       54102           0
</event>
<event>
      5   9999  3.19816E-02  2.08376E+01 -1.00000E+00  1.64912E-01
      21    -1     0     0   502   501  0.000000000E+00  0.000000000E+00  5.788295385E+01  5.788295385E+01  0.000000000E+00  0.00000E+00  9.000E+00
      21    -1     0     0   501   511  0.000000000E+00  0.000000000E+00 -1.411860569E+03  1.411860569E+03  0.000000000E+00  0.00000E+00  9.000E+00
      25     1     1     2     0     0  7.023821623E+01  1.423242554E+02 -1.611386657E+02  2.584187885E+02  1.250000000E+02  0.00000E+00  9.000E+00
      25     1     1     2     0     0 -5.153247206E+01 -1.331428086E+02 -1.057242791E+03  1.074136826E+03  1.250000000E+02  0.00000E+00  9.000E+00
      21     1     1     2   502   511 -1.870574416E+01 -9.181446791E+00 -1.355961592E+02  1.371879084E+02  1.907348633E-06  0.00000E+00  9.000E+00
#rwgt            1           1   2.7441708984101729E-002           2       54294           0
</event>
<event>
      5   9999  3.19816E-02  4.19088E+01 -1.00000E+00  1.43596E-01
      21    -1     0     0   502   501  0.000000000E+00  0.000000000E+00  1.830358893E+03  1.830358893E+03  0.000000000E+00  0.00000E+00  9.000E+00
      21    -1     0     0   512   502  0.000000000E+00  0.000000000E+00 -3.807252284E+01  3.807252284E+01  0.000000000E+00  0.00000E+00  9.000E+00
      25     1     1     2     0     0  1.623274223E+02 -2.489263970E+01  5.595686904E+02  5.964159244E+02  1.250000000E+02  0.00000E+00  9.000E+00
      25     1     1     2     0     0 -1.609694261E+02  6.677946018E+01  1.199545980E+03  1.218567278E+03  1.250000000E+02  0.00000E+00  9.000E+00
      21     1     1     2   512   501 -1.357996187E+00 -4.188682048E+01  3.317169988E+01  5.344821378E+01  2.286830675E-06  0.00000E+00  9.000E+00
#rwgt            2          11   7.1566644086961395E-003           2       54744           0
</event>
<event>
      5   9999  3.19816E-02  9.11279E+01 -1.00000E+00  1.25670E-01
      21    -1     0     0   511   501  0.000000000E+00  0.000000000E+00  2.333951059E+02  2.333951059E+02  0.000000000E+00  0.00000E+00  9.000E+00
      21    -1     0     0   501   502  0.000000000E+00  0.000000000E+00 -5.210237377E+02  5.210237377E+02  0.000000000E+00  0.00000E+00  9.000E+00
      25     1     1     2     0     0  1.871799327E+02  1.665784814E+02 -1.391973606E+02  3.127069281E+02  1.250000000E+02  0.00000E+00  9.000E+00
      25     1     1     2     0     0 -2.672546679E+02 -1.230774490E+02 -1.436012948E+02  3.504560570E+02  1.250000000E+02  0.00000E+00  9.000E+00
      21     1     1     2   511   502  8.007473523E+01 -4.350103238E+01 -4.829976429E+00  9.125585852E+01  2.308477966E-07  0.00000E+00  9.000E+00
#rwgt            1           1   2.5645543953831226E-002           2       54794           0
</event>
<event>
      5   9999  3.19816E-02  5.53587E+01 -1.00000E+00  1.36599E-01
       2    -1     0     0   502     0  0.000000000E+00  0.000000000E+00  7.938278171E+02  7.938278171E+02  0.000000000E+00  0.00000E+00  9.000E+00
      21    -1     0     0   501   502  0.000000000E+00  0.000000000E+00 -2.515467338E+02  2.515467338E+02  0.000000000E+00  0.00000E+00  9.000E+00
      25     1     1     2     0     0 -2.238691833E+02 -2.618775338E+02  6.751514167E+01  3.726668060E+02  1.250000000E+02  0.00000E+00  9.000E+00
      25     1     1     2     0     0  2.279398331E+02  2.066686621E+02  1.900066576E+02  3.826173458E+02  1.250000000E+02  0.00000E+00  9.000E+00
       2     1     1     2   501     0 -4.070649791E+00  5.520887165E+01  2.847592842E+02  2.900903991E+02  0.000000000E+00  0.00000E+00  9.000E+00
#rwgt            1           1   2.8919997651970078E-002           2       54873           0
</event>
<event>
      5   9999  3.19816E-02  2.18389E+02 -1.00000E+00  1.10275E-01
       1    -1     0     0   502     0  0.000000000E+00  0.000000000E+00  2.017638511E+03  2.017638511E+03  0.000000000E+00  0.00000E+00  9.000E+00
      21    -1     0     0   501   502  0.000000000E+00  0.000000000E+00 -2.087888890E+02  2.087888890E+02  0.000000000E+00  0.00000E+00  9.000E+00
      25     1     1     2     0     0 -1.482302112E+02 -3.511915308E+02  9.486526460E+02  1.029987636E+03  1.250000000E+02  0.00000E+00  9.000E+00
      25     1     1     2     0     0 -4.836189253E+01  2.560844024E+02 -1.983195013E+01  2.897177938E+02  1.250000000E+02  0.00000E+00  9.000E+00
       1     1     1     2   501     0  1.965921038E+02  9.510712843E+01  8.800289262E+02  9.067219706E+02  1.078959322E-05  0.00000E+00  9.000E+00
#rwgt            2          17   5.8534241271497123E-004           2       55058           0
</event>
<event>
      5   9999  3.19816E-02  8.27595E+01 -1.00000E+00  1.27641E-01
      21    -1     0     0   502   501  0.000000000E+00  0.000000000E+00  1.214803043E+02  1.214803043E+02  0.000000000E+00  0.00000E+00  9.000E+00
       1    -1     0     0   501     0  0.000000000E+00  0.000000000E+00 -3.748979925E+03  3.748979925E+03  0.000000000E+00  0.00000E+00  9.000E+00
      25     1     1     2     0     0  5.669175663E+01  2.607954824E+02 -7.568799500E+01  3.042727583E+02  1.250000000E+02  0.00000E+00  9.000E+00
      25     1     1     2     0     0 -6.482687854E+01 -1.784368252E+02 -2.162573146E+03  2.174486109E+03  1.250000000E+02  0.00000E+00  9.000E+00
       1     1     1     2   502     0  8.135121909E+00 -8.235865718E+01 -1.389238480E+03  1.391701363E+03  1.525878906E-05  0.00000E+00  9.000E+00
#rwgt            1           1   2.9218676623600757E-002           2       55077           0
</event>
<event>
      5   9999  3.19816E-02  6.02866E+01 -1.00000E+00  1.34593E-01
      21    -1     0     0   502   511  0.000000000E+00  0.000000000E+00  5.894224735E+02  5.894224735E+02  0.000000000E+00  0.00000E+00  9.000E+00
      21    -1     0     0   501   502  0.000000000E+00  0.000000000E+00 -4.977846006E+02  4.977846006E+02  0.000000000E+00  0.00000E+00  9.000E+00
      25     1     1     2     0     0  6.266514952E+01  2.044798026E+02 -2.735938231E+02  3.690765376E+02  1.250000000E+02  0.00000E+00  9.000E+00
      25     1     1     2     0     0 -6.118060926E+01 -1.442115231E+02 -1.170536934E+02  2.320917868E+02  1.250000000E+02  0.00000E+00  9.000E+00
      21     1     1     2   501   511 -1.484540258E+00 -6.026827945E+01  4.822853894E+02  4.860387496E+02  0.000000000E+00  0.00000E+00  9.000E+00
#rwgt            1           1   2.9230169572522040E-002           2       55158           0
</event>
<event>
      5   9999  3.19816E-02  5.50198E+01 -1.00000E+00  1.36746E-01
      21    -1     0     0   512   501  0.000000000E+00  0.000000000E+00  5.991825208E+02  5.991825208E+02  0.000000000E+00  0.00000E+00  9.000E+00
      21    -1     0     0   501   502  0.000000000E+00  0.000000000E+00 -2.924753288E+02  2.924753288E+02  0.000000000E+00  0.00000E+00  9.000E+00
      25     1     1     2     0     0 -3.332937427E+02 -1.513172104E+02  1.002311565E+02  3.995658917E+02  1.250000000E+02  0.00000E+00  9.000E+00
      25     1     1     2     0     0  2.783151022E+02  1.534458494E+02  7.511571311E+01  3.496745561E+02  1.250000000E+02  0.00000E+00  9.000E+00
      21     1     1     2   512   502  5.497864050E+01 -2.128638951E+00  1.313603225E+02  1.424174018E+02  0.000000000E+00  0.00000E+00  9.000E+00
#rwgt            1           1   2.7387155253455416E-002           2       55226           0
</event>
<event>
      5   9999  3.19816E-02  2.92738E+02 -1.00000E+00  1.05939E-01
      21    -1     0     0   502   501  0.000000000E+00  0.000000000E+00  3.843078224E+02  3.843078224E+02  0.000000000E+00  0.00000E+00  9.000E+00
       1    -1     0     0   501     0  0.000000000E+00  0.000000000E+00 -1.104937101E+03  1.104937101E+03  0.000000000E+00  0.00000E+00  9.000E+00
      25     1     1     2     0     0  2.800084871E+02  1.388389919E+02  1.908924500E+02  3.869702134E+02  1.250000000E+02  0.00000E+00  9.000E+00
      25     1     1     2     0     0  7.071150097E+00 -1.961159908E+02 -1.273508641E+02  2.652446524E+02  1.250000000E+02  0.00000E+00  9.000E+00
       1     1     1     2   502     0 -2.870796372E+02  5.727699890E+01 -7.841708649E+02  8.370300580E+02  0.000000000E+00  0.00000E+00  9.000E+00
#rwgt            2          12   8.2508164879858622E-004           2       55392           0
</event>
<event>
      5   9999  3.19816E-02  5.53268E+01 -1.00000E+00  1.36613E-01
      21    -1     0     0   511   501  0.000000000E+00  0.000000000E+00  5.571839949E+02  5.571839949E+02  0.000000000E+00  0.00000E+00  9.000E+00
      21    -1     0     0   501   502  0.000000000E+00  0.000000000E+00 -1.045425686E+03  1.045425686E+03  0.000000000E+00  0.00000E+00  9.000E+00
      25     1     1     2     0     0 -4.670939309E+02  5.428616651E+02 -3.146039297E+02  7.921339282E+02  1.250000000E+02  0.00000E+00  9.000E+00
      25     1     1     2     0     0  4.931872402E+02 -4.940744081E+02 -2.153605631E+02  7.411803739E+02  1.250000000E+02  0.00000E+00  9.000E+00
      21     1     1     2   511   502 -2.609330928E+01 -4.878725698E+01  4.172280220E+01  6.929537832E+01  6.743495762E-07  0.00000E+00  9.000E+00
#rwgt            1           1   3.1090234971356413E-002           2       55411           0
</event>
<event>
      5   9999  3.19816E-02  1.02824E+01 -1.00000E+00  1.94369E-01
      21    -1     0     0   512   501  0.000000000E+00  0.000000000E+00  7.899086794E+01  7.899086794E+01  0.000000000E+00  0.00000E+00  9.000E+00
      21    -1     0     0   501   502  0.000000000E+00  0.000000000E+00 -1.587422818E+03  1.587422818E+03  0.000000000E+00  0.00000E+00  9.000E+00
      25     1     1     2     0     0  7.755325244E+01 -6.364554777E+01 -1.574086419E+01  1.610529029E+02  1.250000000E+02  0.00000E+00  9.000E+00
      25     1     1     2     0     0 -6.925268809E+01  6.971413773E+01 -1.482082026E+03  1.490586505E+03  1.250000000E+02  0.00000E+00  9.000E+00
      21     1     1     2   512   502 -8.300564358E+00 -6.068589960E+00 -1.060905970E+01  1.477427834E+01  3.576278687E-07  0.00000E+00  9.000E+00
#rwgt            1           1   2.8818605827680401E-002           2       55632           0
</event>
<event>
      5   9999  3.19816E-02  2.75544E+01 -1.00000E+00  1.55650E-01
      21    -1     0     0   511   501  0.000000000E+00  0.000000000E+00  4.271791867E+02  4.271791867E+02  0.000000000E+00  0.00000E+00  9.000E+00
      21    -1     0     0   501   502  0.000000000E+00  0.000000000E+00 -1.612923966E+02  1.612923966E+02  0.000000000E+00  0.00000E+00  9.000E+00
      25     1     1     2     0     0 -7.816868561E+01  2.016398767E+02  1.239209012E+02  2.788375388E+02  1.250000000E+02  0.00000E+00  9.000E+00
      25     1     1     2     0     0  5.124787691E+01 -2.075149883E+02  1.277111737E+02  2.786107664E+02  1.250000000E+02  0.00000E+00  9.000E+00
      21     1     1     2   511   502  2.692080870E+01  5.875111562E+00  1.425471521E+01  3.102327808E+01  0.000000000E+00  0.00000E+00  9.000E+00
#rwgt            1           1   2.0993771857437539E-002           2       55895           0
</event>
<event>
      5   9999  3.19816E-02  3.88577E+02 -1.00000E+00  1.02065E-01
      21    -1     0     0   502   501  0.000000000E+00  0.000000000E+00  4.687048234E+02  4.687048234E+02  0.000000000E+00  0.00000E+00  9.000E+00
      21    -1     0     0   512   502  0.000000000E+00  0.000000000E+00 -2.131103985E+03  2.131103985E+03  0.000000000E+00  0.00000E+00  9.000E+00
      25     1     1     2     0     0 -3.413330983E+02 -4.566562107E+01 -1.317943196E+03  1.367915532E+03  1.250000000E+02  0.00000E+00  9.000E+00
      25     1     1     2     0     0  2.693665987E+02 -3.361886291E+02  2.561518043E+02  5.165461313E+02  1.250000000E+02  0.00000E+00  9.000E+00
      21     1     1     2   512   501  7.196649960E+01  3.818542502E+02 -6.006077692E+02  7.153471450E+02  1.078959322E-05  0.00000E+00  9.000E+00
#rwgt            2          11   2.3138567252613965E-003           2       56227           0
</event>
<event>
      5   9999  3.19816E-02  1.21891E+02 -1.00000E+00  1.20081E-01
      21    -1     0     0   502   511  0.000000000E+00  0.000000000E+00  3.013177128E+03  3.013177128E+03  0.000000000E+00  0.00000E+00  9.000E+00
      21    -1     0     0   501   502  0.000000000E+00  0.000000000E+00 -1.393164226E+03  1.393164226E+03  0.000000000E+00  0.00000E+00  9.000E+00
      25     1     1     2     0     0  5.382124851E+02  1.816471629E+03  8.261648704E+02  2.070607459E+03  1.250000000E+02  0.00000E+00  9.000E+00
      25     1     1     2     0     0 -4.495068577E+02 -1.900070539E+03  5.026456265E+02  2.020050023E+03  1.250000000E+02  0.00000E+00  9.000E+00
      21     1     1     2   501   511 -8.870562742E+01  8.359891044E+01  2.912024048E+02  3.156838715E+02  3.814697266E-06  0.00000E+00  9.000E+00
#rwgt            1           1   1.2792371347585624E-002           2       56307           0
</event>
<event>
      5   9999  3.19816E-02  7.71167E+01 -1.00000E+00  1.29126E-01
      21    -1     0     0   512   501  0.000000000E+00  0.000000000E+00  4.647922107E+02  4.647922107E+02  0.000000000E+00  0.00000E+00  9.000E+00
      21    -1     0     0   501   502  0.000000000E+00  0.000000000E+00 -6.119836777E+02  6.119836777E+02  0.000000000E+00  0.00000E+00  9.000E+00
      25     1     1     2     0     0 -4.284867224E+02  1.962806722E+02 -2.390354791E+02  5.430376910E+02  1.250000000E+02  0.00000E+00  9.000E+00
      25     1     1     2     0     0  4.136083106E+02 -1.206128199E+02  7.557465913E+01  4.549239673E+02  1.250000000E+02  0.00000E+00  9.000E+00
      21     1     1     2   512   502  1.487841182E+01 -7.566785225E+01  1.626935298E+01  7.881422999E+01  5.331201500E-07  0.00000E+00  9.000E+00
#rwgt            1           1   2.4697867325352754E-002           2       56426           0
</event>
<event>
      5   9999  3.19816E-02  2.01223E+01 -1.00000E+00  1.66151E-01
      21    -1     0     0   502   501  0.000000000E+00  0.000000000E+00  2.277468681E+02  2.277468681E+02  0.000000000E+00  0.00000E+00  9.000E+00
      21    -1     0     0   501   511  0.000000000E+00  0.000000000E+00 -2.139649053E+02  2.139649053E+02  0.000000000E+00  0.00000E+00  9.000E+00
      25     1     1     2     0     0  6.729613588E+01 -5.255772598E+01  8.744101598E+01  1.748199524E+02  1.250000000E+02  0.00000E+00  9.000E+00
      25     1     1     2     0     0 -7.979976667E+01  6.832371116E+01  2.589636665E+01  1.653231807E+02  1.250000000E+02  0.00000E+00  9.000E+00
      21     1     1     2   502   511  1.250363079E+01 -1.576598518E+01 -9.955541988E+01  1.015686403E+02  1.907348633E-06  0.00000E+00  9.000E+00
#rwgt            1           1   2.1820601582593413E-002           2       56546           0
</event>
<event>
      5   9999  3.19816E-02  3.66076E+01 -1.00000E+00  1.47268E-01
      21    -1     0     0   502   501  0.000000000E+00  0.000000000E+00  4.430014781E+02  4.430014781E+02  0.000000000E+00  0.00000E+00  9.000E+00
      21    -1     0     0   501   512  0.000000000E+00  0.000000000E+00 -1.829161932E+02  1.829161932E+02  0.000000000E+00  0.00000E+00  9.000E+00
      25     1     1     2     0     0 -6.645836005E+01  1.007922119E+02  2.335362584E+02  2.911013012E+02  1.250000000E+02  0.00000E+00  9.000E+00
      25     1     1     2     0     0  3.242800936E+01 -1.142848295E+02  1.358623003E+02  2.195362446E+02  1.250000000E+02  0.00000E+00  9.000E+00
      21     1     1     2   502   512  3.403035069E+01  1.349261764E+01 -1.093132738E+02  1.152801255E+02  0.000000000E+00  0.00000E+00  9.000E+00
#rwgt            1           1   2.6041101897102428E-002           2       56689           0
</event>
<event>
      5   9999  3.19816E-02  2.87137E+01 -1.00000E+00  1.54374E-01
      21    -1     0     0   502   511  0.000000000E+00  0.000000000E+00  1.730909027E+03  1.730909027E+03  0.000000000E+00  0.00000E+00  9.000E+00
      21    -1     0     0   501   502  0.000000000E+00  0.000000000E+00 -9.786041201E+02  9.786041201E+02  0.000000000E+00  0.00000E+00  9.000E+00
      25     1     1     2     0     0 -7.506682938E+01 -3.743561468E+00 -9.092325870E+02  9.208571770E+02  1.250000000E+02  0.00000E+00  9.000E+00
      25     1     1     2     0     0  5.971207466E+01  2.800686717E+01  1.528913128E+01  1.421572158E+02  1.250000000E+02  0.00000E+00  9.000E+00
      21     1     1     2   501   511  1.535475471E+01 -2.426330571E+01  1.646248363E+03  1.646498754E+03  2.157918644E-05  0.00000E+00  9.000E+00
#rwgt            1           1   2.8386605115502887E-002           2       56816           0
</event>
<event>
      5   9999  3.19816E-02  9.23771E+01 -1.00000E+00  1.25397E-01
       2    -1     0     0   502     0  0.000000000E+00  0.000000000E+00  5.886493234E+02  5.886493234E+02  0.000000000E+00  0.00000E+00  9.000E+00
      21    -1     0     0   501   502  0.000000000E+00  0.000000000E+00 -1.123753696E+03  1.123753696E+03  0.000000000E+00  0.00000E+00  9.000E+00
      25     1     1     2     0     0  5.796430360E+01 -1.003898282E+02 -1.034024030E+03  1.047983145E+03  1.250000000E+02  0.00000E+00  9.000E+00
      25     1     1     2     0     0 -1.376118843E+02  5.359460943E+01  4.164918521E+01  1.979117669E+02  1.250000000E+02  0.00000E+00  9.000E+00
       2     1     1     2   501     0  7.964758070E+01  4.679521875E+01  4.572704721E+02  4.665081074E+02  7.629394531E-06  0.00000E+00  9.000E+00
#rwgt            1           1   2.7335530626565515E-002           2       56920           0
</event>
<event>
      5   9999  3.19816E-02  3.01840E+01 -1.00000E+00  1.52856E-01
      21    -1     0     0   502   501  0.000000000E+00  0.000000000E+00  2.701054881E+02  2.701054881E+02  0.000000000E+00  0.00000E+00  9.000E+00
      21    -1     0     0   511   502  0.000000000E+00  0.000000000E+00 -3.906080685E+02  3.906080685E+02  0.000000000E+00  0.00000E+00  9.000E+00
      25     1     1     2     0     0 -8.250842962E+01 -2.401437293E+02 -3.751972422E+01  2.854984788E+02  1.250000000E+02  0.00000E+00  9.000E+00
      25     1     1     2     0     0  1.031209898E+02  2.621935481E+02 -2.425026718E+01  3.091803207E+02  1.250000000E+02  0.00000E+00  9.000E+00
      21     1     1     2   511   501 -2.061256023E+01 -2.204981885E+01 -5.873258900E+01  6.603475722E+01  1.168007728E-06  0.00000E+00  9.000E+00
#rwgt            1           1   2.9740438535373323E-002           2       56959           0
</event>
<event>
      5   9999  3.19816E-02  3.95216E+01 -1.00000E+00  1.45165E-01
       2    -1     0     0   502     0  0.000000000E+00  0.000000000E+00  8.162622474E+02  8.162622474E+02  0.000000000E+00  0.00000E+00  9.000E+00
      21    -1     0     0   501   502  0.000000000E+00  0.000000000E+00 -3.668067452E+02  3.668067452E+02  0.000000000E+00  0.00000E+00  9.000E+00
      25     1     1     2     0     0 -1.491680852E+02  2.178230826E+02 -1.124954845E+02  3.130147712E+02  1.250000000E+02  0.00000E+00  9.000E+00
      25     1     1     2     0     0  1.096791319E+02 -2.194290474E+02 -2.984734550E+01  2.769376877E+02  1.250000000E+02  0.00000E+00  9.000E+00
       2     1     1     2   501     0  3.948895334E+01  1.605964811E+00  5.917983322E+02  5.931165337E+02  7.629394531E-06  0.00000E+00  9.000E+00
#rwgt            1           1   2.6335625832948881E-002           2       57077           0
</event>
<event>
      5   9999  3.19816E-02  2.81462E+01 -1.00000E+00  1.54989E-01
      21    -1     0     0   502   501  0.000000000E+00  0.000000000E+00  1.638503603E+02  1.638503603E+02  0.000000000E+00  0.00000E+00  9.000E+00
      21    -1     0     0   511   502  0.000000000E+00  0.000000000E+00 -6.054641008E+02  6.054641008E+02  0.000000000E+00  0.00000E+00  9.000E+00
      25     1     1     2     0     0  9.358893839E+00 -1.564656467E+02  6.406976045E+01  2.104733277E+02  1.250000000E+02  0.00000E+00  9.000E+00
      25     1     1     2     0     0 -3.736873613E+01  1.592332434E+02 -4.720562366E+02  5.149890666E+02  1.250000000E+02  0.00000E+00  9.000E+00
      21     1     1     2   511   501  2.800984229E+01 -2.767596656E+00 -3.362726434E+01  4.385206681E+01  6.743495762E-07  0.00000E+00  9.000E+00
#rwgt            1           1   2.3747484919289470E-002           2       57201           0
</event>
<event>
      5   9999  3.19816E-02  1.96292E+02 -1.00000E+00  1.11945E-01
      21    -1     0     0   512   501  0.000000000E+00  0.000000000E+00  9.491752449E+02  9.491752449E+02  0.000000000E+00  0.00000E+00  9.000E+00
      21    -1     0     0   501   502  0.000000000E+00  0.000000000E+00 -2.438459714E+02  2.438459714E+02  0.000000000E+00  0.00000E+00  9.000E+00
      25     1     1     2     0     0 -2.964836971E+02  1.284923467E+02  4.081450515E+02  5.353692640E+02  1.250000000E+02  0.00000E+00  9.000E+00
      25     1     1     2     0     0  1.940650980E+02 -2.959463822E+02  1.222873998E+02  3.947464142E+02  1.250000000E+02  0.00000E+00  9.000E+00
      21     1     1     2   512   502  1.024185992E+02  1.674540355E+02  1.748968223E+02  2.629055380E+02  4.264961200E-06  0.00000E+00  9.000E+00
#rwgt            2          11   4.0529395156851172E-003           2       57536           0
</event>
<event>
      5   9999  3.19816E-02  6.05437E+01 -1.00000E+00  1.34494E-01
      21    -1     0     0   502   501  0.000000000E+00  0.000000000E+00  2.861128759E+02  2.861128759E+02  0.000000000E+00  0.00000E+00  9.000E+00
      21    -1     0     0   511   502  0.000000000E+00  0.000000000E+00 -1.149519592E+03  1.149519592E+03  0.000000000E+00  0.00000E+00  9.000E+00
      25     1     1     2     0     0  3.433979552E+02  5.046854523E+01  9.162876091E+01  3.801184809E+02  1.250000000E+02  0.00000E+00  9.000E+00
      25     1     1     2     0     0 -3.447951203E+02 -1.109960964E+02 -8.744385576E+02  9.547102175E+02  1.250000000E+02  0.00000E+00  9.000E+00
      21     1     1     2   511   501  1.397165090E+00  6.052755116E+01 -8.059691919E+01  1.008037693E+02  1.651812370E-06  0.00000E+00  9.000E+00
#rwgt            1           1   2.6344885923750477E-002           2       57571           0
</event>
<event>
      5   9999  3.19816E-02  6.38682E+00 -1.00000E+00  2.21339E-01
      21    -1     0     0   502   512  0.000000000E+00  0.000000000E+00  7.469778929E+01  7.469778929E+01  0.000000000E+00  0.00000E+00  9.000E+00
      21    -1     0     0   501   502  0.000000000E+00  0.000000000E+00 -6.488094920E+02  6.488094920E+02  0.000000000E+00  0.00000E+00  9.000E+00
      25     1     1     2     0     0  3.953923244E+01 -5.927305126E+01 -5.498994478E+02  5.684109853E+02  1.250000000E+02  0.00000E+00  9.000E+00
      25     1     1     2     0     0 -4.520917576E+01  6.221298705E+01 -2.244256650E+01  1.484688322E+02  1.250000000E+02  0.00000E+00  9.000E+00
      21     1     1     2   501   512  5.669943321E+00 -2.939935797E+00 -1.769688381E+00  6.627463823E+00  1.444721179E-07  0.00000E+00  9.000E+00
#rwgt            1           1   2.9671152245154112E-002           2       57700           0
</event>
<event>
      5   9999  3.19816E-02  1.54121E+02 -1.00000E+00  1.15929E-01
      21    -1     0     0   502   511  0.000000000E+00  0.000000000E+00  6.035981402E+02  6.035981402E+02  0.000000000E+00  0.00000E+00  9.000E+00
      21    -1     0     0   501   502  0.000000000E+00  0.000000000E+00 -3.023324571E+02  3.023324571E+02  0.000000000E+00  0.00000E+00  9.000E+00
      25     1     1     2     0     0  9.353923359E+01  1.388890795E+02 -1.766764808E+02  2.736409024E+02  1.250000000E+02  0.00000E+00  9.000E+00
      25     1     1     2     0     0  5.876844244E+01 -1.624642337E+02  4.134806776E+02  4.652307253E+02  1.250000000E+02  0.00000E+00  9.000E+00
      21     1     1     2   501   511 -1.523076760E+02  2.357515422E+01  6.446148637E+01  1.670589695E+02  2.336015456E-06  0.00000E+00  9.000E+00
#rwgt            2          11   3.7670926186733639E-003           2       58001           0
</event>
<event>
      5   9999  3.19816E-02  3.40506E+02 -1.00000E+00  1.03835E-01
      21    -1     0     0   502   501  0.000000000E+00  0.000000000E+00  2.624486525E+02  2.624486525E+02  0.000000000E+00  0.00000E+00  9.000E+00
      21    -1     0     0   512   502  0.000000000E+00  0.000000000E+00 -2.047786959E+03  2.047786959E+03  0.000000000E+00  0.00000E+00  9.000E+00
      25     1     1     2     0     0 -2.674218097E+02  2.246413013E+02 -3.558906384E+01  3.726522776E+02  1.250000000E+02  0.00000E+00  9.000E+00
      25     1     1     2     0     0  4.230450267E+02  7.822154132E+01 -6.746838236E+02  8.098820692E+02  1.250000000E+02  0.00000E+00  9.000E+00
      21     1     1     2   512   501 -1.556232171E+02 -3.028628427E+02 -1.075065419E+03  1.127701265E+03  2.157918644E-05  0.00000E+00  9.000E+00
#rwgt            1           1   3.5304287795010707E-002           2       58081           0
</event>
<event>
      5   9999  3.19816E-02  5.18615E+01 -1.00000E+00  1.38176E-01
      21    -1     0     0   502   511  0.000000000E+00  0.000000000E+00  1.322811443E+03  1.322811443E+03  0.000000000E+00  0.00000E+00  9.000E+00
      21    -1     0     0   501   502  0.000000000E+00  0.000000000E+00 -1.526074201E+02  1.526074201E+02  0.000000000E+00  0.00000E+00  9.000E+00
      25     1     1     2     0     0 -3.755260970E+02  8.883656694E+01  6.398280367E+02  7.575729019E+02  1.250000000E+02  0.00000E+00  9.000E+00
      25     1     1     2     0     0  3.428476764E+02 -1.291073251E+02  3.232021346E+02  5.042795360E+02  1.250000000E+02  0.00000E+00  9.000E+00
      21     1     1     2   501   511  3.267842062E+01  4.027075820E+01  2.071738519E+02  2.135664254E+02  2.697398305E-06  0.00000E+00  9.000E+00
#rwgt            1           1   2.9437671284751520E-002           2       58131           0
</event>
<event>
      5   9999  3.19816E-02  1.46875E+03 -1.00000E+00  8.71552E-02
      21    -1     0     0   502   501  0.000000000E+00  0.000000000E+00  1.037026629E+03  1.037026629E+03  0.000000000E+00  0.00000E+00  9.000E+00
       3    -1     0     0   501     0  0.000000000E+00  0.000000000E+00 -3.884359567E+03  3.884359567E+03  0.000000000E+00  0.00000E+00  9.000E+00
      25     1     1     2     0     0  5.333147192E+02 -1.041579129E+03  3.426340525E+02  1.225697665E+03  1.250000000E+02  0.00000E+00  9.000E+00
      25     1     1     2     0     0 -8.860617700E+01 -3.582238859E+02 -8.133329594E+02  9.018375186E+02  1.250000000E+02  0.00000E+00  9.000E+00
       3     1     1     2   502     0 -4.447085422E+02  1.399803015E+03 -2.376634031E+03  2.793851013E+03  0.000000000E+00  0.00000E+00  9.000E+00
#rwgt            2          14   9.1036914721378565E-006           2       58366           0
</event>
<event>
      5   9999  3.19816E-02  6.40484E+01 -1.00000E+00  1.33205E-01
      21    -1     0     0   511   501  0.000000000E+00  0.000000000E+00  2.250194318E+03  2.250194318E+03  0.000000000E+00  0.00000E+00  9.000E+00
      21    -1     0     0   501   502  0.000000000E+00  0.000000000E+00 -5.151524611E+01  5.151524611E+01  0.000000000E+00  0.00000E+00  9.000E+00
      25     1     1     2     0     0 -1.483706708E+02  6.776641792E+01  2.386295893E+02  3.149209810E+02  1.250000000E+02  0.00000E+00  9.000E+00
      25     1     1     2     0     0  2.093959677E+02 -8.721152309E+01  1.648820280E+03  1.669037398E+03  1.250000000E+02  0.00000E+00  9.000E+00
      21     1     1     2   511   502 -6.102529687E+01  1.944510517E+01  3.112292028E+02  3.177511851E+02  6.607249480E-06  0.00000E+00  9.000E+00
#rwgt            1           1   2.8142020943050239E-002           2       58385           0
</event>
<event>
      5   9999  3.19816E-02  5.64839E+01 -1.00000E+00  1.36120E-01
      21    -1     0     0   512   501  0.000000000E+00  0.000000000E+00  1.231042993E+03  1.231042993E+03  0.000000000E+00  0.00000E+00  9.000E+00
      21    -1     0     0   501   502  0.000000000E+00  0.000000000E+00 -4.740246057E+01  4.740246057E+01  0.000000000E+00  0.00000E+00  9.000E+00
      25     1     1     2     0     0 -9.757330758E+01  8.094363218E+01  3.139264922E+02  3.608978588E+02  1.250000000E+02  0.00000E+00  9.000E+00
      25     1     1     2     0     0  7.309995625E+01 -1.318502486E+02  4.099396476E+02  4.543166367E+02  1.250000000E+02  0.00000E+00  9.000E+00
      21     1     1     2   512   502  2.447335134E+01  5.090661637E+01  4.597743924E+02  4.632309579E+02  7.629394531E-06  0.00000E+00  9.000E+00
#rwgt            1           1   2.7279858706382647E-002           2       58470           0
</event>
<event>
      5   9999  3.19816E-02  4.56632E+01 -1.00000E+00  1.41362E-01
      21    -1     0     0   511   501  0.000000000E+00  0.000000000E+00  9.469928432E+02  9.469928432E+02  0.000000000E+00  0.00000E+00  9.000E+00
      21    -1     0     0   501   502  0.000000000E+00  0.000000000E+00 -5.248801119E+02  5.248801119E+02  0.000000000E+00  0.00000E+00  9.000E+00
      25     1     1     2     0     0  1.034734167E+02  5.444508869E+02  5.699793861E+02  8.047577379E+02  1.250000000E+02  0.00000E+00  9.000E+00
      25     1     1     2     0     0 -1.436008203E+02 -5.662434326E+02 -1.626146785E+02  6.191295133E+02  1.250000000E+02  0.00000E+00  9.000E+00
      21     1     1     2   511   502  4.012740361E+01  2.179254574E+01  1.474802374E+01  4.798570386E+01  9.973764736E-07  0.00000E+00  9.000E+00
#rwgt            2          11   1.9887008388350919E-002           2       58610           0
</event>
<event>
      5   9999  3.19816E-02  8.48022E+01 -1.00000E+00  1.27136E-01
      21    -1     0     0   502   501  0.000000000E+00  0.000000000E+00  1.286841574E+02  1.286841574E+02  0.000000000E+00  0.00000E+00  9.000E+00
      21    -1     0     0   501   512  0.000000000E+00  0.000000000E+00 -6.503949481E+02  6.503949481E+02  0.000000000E+00  0.00000E+00  9.000E+00
      25     1     1     2     0     0 -4.828209538E-01 -1.090794902E+02 -9.606686650E+01  1.917091837E+02  1.250000000E+02  0.00000E+00  9.000E+00
      25     1     1     2     0     0 -5.813397964E+01  1.703615246E+02 -8.292700254E+01  2.343170852E+02  1.250000000E+02  0.00000E+00  9.000E+00
      21     1     1     2   502   512  5.861680059E+01 -6.128203440E+01 -3.427169216E+02  3.530528366E+02  5.394796609E-06  0.00000E+00  9.000E+00
#rwgt            1           1   2.3571653468323881E-002           2       58630           0
</event>
<event>
      5   9999  3.19816E-02  4.88371E+01 -1.00000E+00  1.39661E-01
      21    -1     0     0   502   501  0.000000000E+00  0.000000000E+00  2.351109378E+02  2.351109378E+02  0.000000000E+00  0.00000E+00  9.000E+00
      -1    -1     0     0     0   502  0.000000000E+00  0.000000000E+00 -1.049320182E+03  1.049320182E+03  0.000000000E+00  0.00000E+00  9.000E+00
      25     1     1     2     0     0  1.765018498E+01  1.613909275E+02  1.493762672E+02  2.535681954E+02  1.250000000E+02  0.00000E+00  9.000E+00
      25     1     1     2     0     0  1.940178850E+01 -1.295756953E+02 -2.167793922E+02  2.824616701E+02  1.250000000E+02  0.00000E+00  9.000E+00
      -1     1     1     2     0   501 -3.705197348E+01 -3.181523222E+01 -7.468061195E+02  7.484012545E+02  1.078959322E-05  0.00000E+00  9.000E+00
#rwgt            1           1   2.5049472752705693E-002           2       58708           0
</event>
<event>
      5   9999  3.19816E-02  3.46941E+01 -1.00000E+00  1.48780E-01
      21    -1     0     0   502   501  0.000000000E+00  0.000000000E+00  1.398266832E+02  1.398266832E+02  0.000000000E+00  0.00000E+00  9.000E+00
      21    -1     0     0   501   511  0.000000000E+00  0.000000000E+00 -1.522527708E+03  1.522527708E+03  0.000000000E+00  0.00000E+00  9.000E+00
      25     1     1     2     0     0 -3.555071334E+02  2.011942088E+02 -3.820375484E+02  5.730987000E+02  1.250000000E+02  0.00000E+00  9.000E+00
      25     1     1     2     0     0  3.310180049E+02 -1.766184767E+02 -9.270710564E+02  1.007895208E+03  1.250000000E+02  0.00000E+00  9.000E+00
      21     1     1     2   502   511  2.448912853E+01 -2.457573210E+01 -7.359242045E+01  8.136048410E+01  1.348699152E-06  0.00000E+00  9.000E+00
#rwgt            1           1   3.3005914624796184E-002           2       58821           0
</event>
<event>
      5   9999  3.19816E-02  6.18193E+01 -1.00000E+00  1.34014E-01
      21    -1     0     0   502   501  0.000000000E+00  0.000000000E+00  1.817515416E+02  1.817515416E+02  0.000000000E+00  0.00000E+00  9.000E+00
      21    -1     0     0   501   512  0.000000000E+00  0.000000000E+00 -1.243652716E+03  1.243652716E+03  0.000000000E+00  0.00000E+00  9.000E+00
      25     1     1     2     0     0  2.045097407E+02 -7.067399411E+01 -1.718097073E+01  2.504780095E+02  1.250000000E+02  0.00000E+00  9.000E+00
      25     1     1     2     0     0 -2.247536506E+02  1.290846466E+02 -2.601294151E+02  3.879038051E+02  1.250000000E+02  0.00000E+00  9.000E+00
      21     1     1     2   502   512  2.024390996E+01 -5.841065249E+01 -7.845907889E+02  7.870224433E+02  1.525878906E-05  0.00000E+00  9.000E+00
#rwgt            1           1   2.3184795509662105E-002           2       58972           0
</event>
<event>
      5   9999  3.19816E-02  8.75700E+01 -1.00000E+00  1.26477E-01
      21    -1     0     0   502   501  0.000000000E+00  0.000000000E+00  7.564629523E+02  7.564629523E+02  0.000000000E+00  0.00000E+00  9.000E+00
      21    -1     0     0   501   511  0.000000000E+00  0.000000000E+00 -4.419976899E+02  4.419976899E+02  0.000000000E+00  0.00000E+00  9.000E+00
      25     1     1     2     0     0  3.873777911E+02  1.244784083E+02 -1.252074594E+02  4.436872041E+02  1.250000000E+02  0.00000E+00  9.000E+00
      25     1     1     2     0     0 -3.630832799E+02 -2.086109258E+02  4.877417208E+02  6.548778304E+02  1.250000000E+02  0.00000E+00  9.000E+00
      21     1     1     2   502   511 -2.429451124E+01  8.413251750E+01 -4.806899901E+01  9.989560773E+01  9.536743164E-07  0.00000E+00  9.000E+00
#rwgt            1           1   2.9117617609984391E-002           2       59051           0
</event>
<event>
      5   9999  3.19816E-02  3.53187E+01 -1.00000E+00  1.48274E-01
      21    -1     0     0   502   501  0.000000000E+00  0.000000000E+00  1.210222759E+02  1.210222759E+02  0.000000000E+00  0.00000E+00  9.000E+00
       1    -1     0     0   501     0  0.000000000E+00  0.000000000E+00 -2.334445860E+03  2.334445860E+03  0.000000000E+00  0.00000E+00  9.000E+00
      25     1     1     2     0     0 -4.536773650E+01 -2.082832227E+01 -3.082133285E+02  3.363220278E+02  1.250000000E+02  0.00000E+00  9.000E+00
      25     1     1     2     0     0  2.466959038E+01 -7.789832083E+00  6.867148388E+01  1.449484145E+02  1.250000000E+02  0.00000E+00  9.000E+00
       1     1     1     2   502     0  2.069814612E+01  2.861815435E+01 -1.973881739E+03  1.974197694E+03  3.737624730E-05  0.00000E+00  9.000E+00
#rwgt            1           1   2.5585245872337795E-002           2       59161           0
</event>
<event>
      5   9999  3.19816E-02  3.93489E+01 -1.00000E+00  1.45284E-01
      21    -1     0     0   502   501  0.000000000E+00  0.000000000E+00  5.853574926E+02  5.853574926E+02  0.000000000E+00  0.00000E+00  9.000E+00
      21    -1     0     0   511   502  0.000000000E+00  0.000000000E+00 -4.308407766E+02  4.308407766E+02  0.000000000E+00  0.00000E+00  9.000E+00
      25     1     1     2     0     0  1.791839620E+02 -2.207557250E+02  2.149050261E+02  3.776892275E+02  1.250000000E+02  0.00000E+00  9.000E+00
      25     1     1     2     0     0 -2.176049236E+02  2.292508442E+02  1.870443839E+02  3.879670784E+02  1.250000000E+02  0.00000E+00  9.000E+00
      21     1     1     2   511   501  3.842096158E+01 -8.495119201E+00 -2.474326940E+02  2.505419634E+02  4.672030912E-06  0.00000E+00  9.000E+00
#rwgt            1           1   2.8961709254515935E-002           2       59236           0
</event>
<event>
      5   9999  3.19816E-02  2.88096E+02 -1.00000E+00  1.06167E-01
      21    -1     0     0   512   501  0.000000000E+00  0.000000000E+00  9.005126294E+02  9.005126294E+02  0.000000000E+00  0.00000E+00  9.000E+00
      21    -1     0     0   501   502  0.000000000E+00  0.000000000E+00 -1.486628086E+03  1.486628086E+03  0.000000000E+00  0.00000E+00  9.000E+00
      25     1     1     2     0     0 -6.702855722E+02  4.930385069E+02 -4.136609281E+02  9.376087036E+02  1.250000000E+02  0.00000E+00  9.000E+00
      25     1     1     2     0     0  7.893893114E+02 -7.553614805E+02 -2.917112787E+02  1.137728843E+03  1.250000000E+02  0.00000E+00  9.000E+00
      21     1     1     2   512   502 -1.191037392E+02  2.623229736E+02  1.192567505E+02  3.118031682E+02  2.336015456E-06  0.00000E+00  9.000E+00
#rwgt            2          11   5.8140593870848528E-003           2       59418           0
</event>
<event>
      5   9999  3.19816E-02  5.30461E+01 -1.00000E+00  1.37626E-01
      21    -1     0     0   502   511  0.000000000E+00  0.000000000E+00  1.053694036E+03  1.053694036E+03  0.000000000E+00  0.00000E+00  9.000E+00
      21    -1     0     0   501   502  0.000000000E+00  0.000000000E+00 -4.463812987E+02  4.463812987E+02  0.000000000E+00  0.00000E+00  9.000E+00
      25     1     1     2     0     0  1.965130330E+02 -1.957128547E+01 -4.600512315E+01  2.382055388E+02  1.250000000E+02  0.00000E+00  9.000E+00
      25     1     1     2     0     0 -2.492574422E+02  2.522039699E+01 -2.389137725E+02  3.680626735E+02  1.250000000E+02  0.00000E+00  9.000E+00
      21     1     1     2   501   511  5.274440921E+01 -5.649111519E+00  8.922316330E+02  8.938071224E+02  0.000000000E+00  0.00000E+00  9.000E+00
#rwgt            1           1   2.8010034427224311E-002           2       59438           0
</event>
<event>
      5   9999  3.19816E-02  6.62873E+01 -1.00000E+00  1.32431E-01
      -1    -1     0     0     0   501  0.000000000E+00  0.000000000E+00  8.053838401E+02  8.053838401E+02  0.000000000E+00  0.00000E+00  9.000E+00
      21    -1     0     0   501   502  0.000000000E+00  0.000000000E+00 -4.202440876E+02  4.202440876E+02  0.000000000E+00  0.00000E+00  9.000E+00
      25     1     1     2     0     0  2.124432888E+02 -4.383912779E+02  2.151383452E+02  5.470178892E+02  1.250000000E+02  0.00000E+00  9.000E+00
      25     1     1     2     0     0 -2.764370973E+02  4.556771121E+02  6.071366935E+01  5.507905671E+02  1.250000000E+02  0.00000E+00  9.000E+00
      -1     1     1     2     0   502  6.399380844E+01 -1.728583415E+01  1.092877380E+02  1.278194713E+02  1.348699152E-06  0.00000E+00  9.000E+00
#rwgt            1           1   3.1931938886490582E-002           2       59566           0
</event>
<event>
      5   9999  3.19816E-02  6.71767E+01 -1.00000E+00  1.32133E-01
      21    -1     0     0   502   511  0.000000000E+00  0.000000000E+00  1.640826361E+03  1.640826361E+03  0.000000000E+00  0.00000E+00  9.000E+00
      21    -1     0     0   501   502  0.000000000E+00  0.000000000E+00 -6.227339448E+02  6.227339448E+02  0.000000000E+00  0.00000E+00  9.000E+00
      25     1     1     2     0     0 -1.820139057E+02  2.409844129E+02 -1.214933974E+02  3.486949881E+02  1.250000000E+02  0.00000E+00  9.000E+00
      25     1     1     2     0     0  2.352736247E+02 -2.819247177E+02 -2.896168016E+02  4.840848238E+02  1.250000000E+02  0.00000E+00  9.000E+00
      21     1     1     2   501   511 -5.325971900E+01  4.094030477E+01  1.429202615E+03  1.430780494E+03  0.000000000E+00  0.00000E+00  9.000E+00
#rwgt            1           1   3.3587259242105899E-002           2       59683           0
</event>
<event>
      5   9999  3.19816E-02  3.40616E+01 -1.00000E+00  1.49306E-01
      21    -1     0     0   502   512  0.000000000E+00  0.000000000E+00  1.015968884E+02  1.015968884E+02  0.000000000E+00  0.00000E+00  9.000E+00
      21    -1     0     0   501   502  0.000000000E+00  0.000000000E+00 -5.475788800E+02  5.475788800E+02  0.000000000E+00  0.00000E+00  9.000E+00
      25     1     1     2     0     0 -1.456375826E+02  1.048797977E+02 -2.219758295E+02  3.116221210E+02  1.250000000E+02  0.00000E+00  9.000E+00
      25     1     1     2     0     0  1.214581997E+02 -1.288704920E+02 -2.059663868E+02  2.990097832E+02  1.250000000E+02  0.00000E+00  9.000E+00
      21     1     1     2   501   512  2.417938285E+01  2.399069430E+01 -1.803977531E+01  3.854386412E+01  3.371747881E-07  0.00000E+00  9.000E+00
#rwgt            1           1   2.9785653542847356E-002           2       59798           0
</event>
<event>
      5   9999  3.19816E-02  1.91656E+01 -1.00000E+00  1.67911E-01
      21    -1     0     0   502   501  0.000000000E+00  0.000000000E+00  6.753258867E+02  6.753258867E+02  0.000000000E+00  0.00000E+00  9.000E+00
      21    -1     0     0   501   511  0.000000000E+00  0.000000000E+00 -1.428006468E+02  1.428006468E+02  0.000000000E+00  0.00000E+00  9.000E+00
      25     1     1     2     0     0 -7.814989694E+01  1.589752285E+02  1.256948766E+02  2.506087223E+02  1.250000000E+02  0.00000E+00  9.000E+00
      25     1     1     2     0     0  7.855146502E+01 -1.398138484E+02  4.643354508E+02  5.069030042E+02  1.250000000E+02  0.00000E+00  9.000E+00
      21     1     1     2   502   511 -4.015680821E-01 -1.916138012E+01 -5.750508744E+01  6.061480699E+01  0.000000000E+00  0.00000E+00  9.000E+00
#rwgt            1           1   2.6663773316107149E-002           2       59947           0
</event>
<event>
      5   9999  3.19816E-02  5.29425E+01 -1.00000E+00  1.37673E-01
       1    -1     0     0   502     0  0.000000000E+00  0.000000000E+00  1.239735773E+03  1.239735773E+03  0.000000000E+00  0.00000E+00  9.000E+00
      21    -1     0     0   501   502  0.000000000E+00  0.000000000E+00 -6.201341074E+02  6.201341074E+02  0.000000000E+00  0.00000E+00  9.000E+00
      25     1     1     2     0     0  1.520680395E+02  1.767837301E+02 -5.626164570E+02  6.217229717E+02  1.250000000E+02  0.00000E+00  9.000E+00
      25     1     1     2     0     0 -1.715438173E+02 -2.260138691E+02  9.264410653E+02  9.769481040E+02  1.250000000E+02  0.00000E+00  9.000E+00
       1     1     1     2   501     0  1.947577789E+01  4.923013905E+01  2.557770571E+02  2.611988045E+02  4.672030912E-06  0.00000E+00  9.000E+00
#rwgt            1           1   3.2658523314506173E-002           2       60084           0
</event>
<event>
      5   9999  3.19816E-02  4.18250E+01 -1.00000E+00  1.43649E-01
      21    -1     0     0   502   501  0.000000000E+00  0.000000000E+00  3.541308492E+02  3.541308492E+02  0.000000000E+00  0.00000E+00  9.000E+00
      21    -1     0     0   511   502  0.000000000E+00  0.000000000E+00 -3.072932775E+03  3.072932775E+03  0.000000000E+00  0.00000E+00  9.000E+00
      25     1     1     2     0     0  5.936964263E+01  1.865661035E+02  1.602922782E+02  2.822238117E+02  1.250000000E+02  0.00000E+00  9.000E+00
      25     1     1     2     0     0 -1.006944563E+02 -1.801169906E+02  2.308232694E+01  2.423619146E+02  1.250000000E+02  0.00000E+00  9.000E+00
      21     1     1     2   511   501  4.132481366E+01 -6.449112927E+00 -2.902176531E+03  2.902477898E+03  0.000000000E+00  0.00000E+00  9.000E+00
#rwgt            1           1   2.5280439883465428E-002           2       60232           0
</event>
<event>
      5   9999  3.19816E-02  1.22236E+01 -1.00000E+00  1.86189E-01
      21    -1     0     0   502   512  0.000000000E+00  0.000000000E+00  2.342765539E+02  2.342765539E+02  0.000000000E+00  0.00000E+00  9.000E+00
      21    -1     0     0   501   502  0.000000000E+00  0.000000000E+00 -6.640264769E+02  6.640264769E+02  0.000000000E+00  0.00000E+00  9.000E+00
      25     1     1     2     0     0 -6.053383101E+01 -3.119144419E+02 -2.470942709E+00  3.414470227E+02  1.250000000E+02  0.00000E+00  9.000E+00
      25     1     1     2     0     0  6.156715079E+01  2.997345942E+02 -4.318289935E+02  5.438130383E+02  1.250000000E+02  0.00000E+00  9.000E+00
      21     1     1     2   501   512 -1.033319775E+00  1.217984771E+01  4.550013229E+00  1.304296977E+01  2.457562462E-07  0.00000E+00  9.000E+00
#rwgt            1           1   2.7353523687488796E-002           2       60336           0
</event>
<event>
      5   9999  3.19816E-02  4.69461E+01 -1.00000E+00  1.40655E-01
      21    -1     0     0   502   511  0.000000000E+00  0.000000000E+00  9.081938462E+02  9.081938462E+02  0.000000000E+00  0.00000E+00  9.000E+00
      21    -1     0     0   501   502  0.000000000E+00  0.000000000E+00 -4.055072804E+02  4.055072804E+02  0.000000000E+00  0.00000E+00  9.000E+00
      25     1     1     2     0     0  2.681429649E+02  1.451334358E+02 -2.708935220E+02  4.265825408E+02  1.250000000E+02  0.00000E+00  9.000E+00
      25     1     1     2     0     0 -3.021351446E+02 -1.127534366E+02  4.905376435E+02  6.002092658E+02  1.250000000E+02  0.00000E+00  9.000E+00
      21     1     1     2   501   511  3.399217969E+01 -3.237999924E+01  2.830424443E+02  2.869093200E+02  0.000000000E+00  0.00000E+00  9.000E+00
#rwgt            1           1   2.5380398618518298E-002           2       60564           0
</event>
<event>
      5   9999  3.19816E-02  2.51807E+01 -1.00000E+00  1.58517E-01
      21    -1     0     0   512   501  0.000000000E+00  0.000000000E+00  9.658692177E+02  9.658692177E+02  0.000000000E+00  0.00000E+00  9.000E+00
      21    -1     0     0   501   502  0.000000000E+00  0.000000000E+00 -5.312585645E+01  5.312585645E+01  0.000000000E+00  0.00000E+00  9.000E+00
      25     1     1     2     0     0 -9.322520143E+01 -1.184317614E+02  2.785566256E+02  3.404934859E+02  1.250000000E+02  0.00000E+00  9.000E+00
      25     1     1     2     0     0  1.007473997E+02  1.424626721E+02  5.424530033E+02  5.833745900E+02  1.250000000E+02  0.00000E+00  9.000E+00
      21     1     1     2   512   502 -7.522198237E+00 -2.403091066E+01  9.173373241E+01  9.512699824E+01  1.348699152E-06  0.00000E+00  9.000E+00
#rwgt            1           1   2.7435391734043642E-002           2       60659           0
</event>
<event>
      5   9999  3.19816E-02  5.04161E+01 -1.00000E+00  1.38870E-01
      21    -1     0     0   502   511  0.000000000E+00  0.000000000E+00  2.712368112E+02  2.712368112E+02  0.000000000E+00  0.00000E+00  9.000E+00
      21    -1     0     0   501   502  0.000000000E+00  0.000000000E+00 -1.725487196E+03  1.725487196E+03  0.000000000E+00  0.00000E+00  9.000E+00
      25     1     1     2     0     0  1.371863027E+01 -6.749615206E+01 -1.676161949E+03  1.682227039E+03  1.250000000E+02  0.00000E+00  9.000E+00
      25     1     1     2     0     0  1.541849559E+01  1.086399754E+02  1.358571970E+02  2.147616172E+02  1.250000000E+02  0.00000E+00  9.000E+00
      21     1     1     2   501   511 -2.913712586E+01 -4.114382335E+01  8.605436674E+01  9.973535149E+01  1.907348633E-06  0.00000E+00  9.000E+00
#rwgt            1           1   2.9044417375145848E-002           2       60801           0
</event>
<event>
      5   9999  3.19816E-02  9.94577E+01 -1.00000E+00  1.23934E-01
      21    -1     0     0   502   501  0.000000000E+00  0.000000000E+00  1.622583281E+03  1.622583281E+03  0.000000000E+00  0.00000E+00  9.000E+00
      21    -1     0     0   512   502  0.000000000E+00  0.000000000E+00 -1.760430544E+02  1.760430544E+02  0.000000000E+00  0.00000E+00  9.000E+00
      25     1     1     2     0     0 -1.508596472E+02  1.211045863E+02  1.458853718E+03  1.476923872E+03  1.250000000E+02  0.00000E+00  9.000E+00
      25     1     1     2     0     0  8.960495999E+01 -4.274836361E+01 -1.006233733E+02  1.886969388E+02  1.250000000E+02  0.00000E+00  9.000E+00
      21     1     1     2   512   501  6.125468726E+01 -7.835622268E+01  8.830988255E+01  1.330055251E+02  3.932099939E-06  0.00000E+00  9.000E+00
#rwgt            1           1   2.7525223457696014E-002           2       60947           0
</event>
<event>
      5   9999  3.19816E-02  3.55409E+01 -1.00000E+00  1.48097E-01
      21    -1     0     0   502   501  0.000000000E+00  0.000000000E+00  5.066949826E+02  5.066949826E+02  0.000000000E+00  0.00000E+00  9.000E+00
       3    -1     0     0   501     0  0.000000000E+00  0.000000000E+00 -9.766844144E+02  9.766844144E+02  0.000000000E+00  0.00000E+00  9.000E+00
      25     1     1     2     0     0 -1.632096637E+02  2.489048191E+02  3.067662319E+02  4.453330488E+02  1.250000000E+02  0.00000E+00  9.000E+00
      25     1     1     2     0     0  1.986864765E+02 -2.510380818E+02 -9.665886828E+01  3.570215277E+02  1.250000000E+02  0.00000E+00  9.000E+00
       3     1     1     2   502     0 -3.547681274E+01  2.133262741E+00 -6.800967954E+02  6.810248205E+02  1.321449896E-05  0.00000E+00  9.000E+00
#rwgt            1           1   2.5763519699835237E-002           2       61039           0
</event>
<event>
      5   9999  3.19816E-02  1.73623E+02 -1.00000E+00  1.13931E-01
       1    -1     0     0   502     0  0.000000000E+00  0.000000000E+00  1.805720423E+03  1.805720423E+03  0.000000000E+00  0.00000E+00  9.000E+00
      21    -1     0     0   501   502  0.000000000E+00  0.000000000E+00 -7.496756696E+01  7.496756696E+01  0.000000000E+00  0.00000E+00  9.000E+00
      25     1     1     2     0     0  2.573262049E+01 -1.478697922E+02  3.377192953E+02  3.901371113E+02  1.250000000E+02  0.00000E+00  9.000E+00
      25     1     1     2     0     0 -6.459301245E+01  3.170877415E+02  7.854385730E+02  8.586359211E+02  1.250000000E+02  0.00000E+00  9.000E+00
       1     1     1     2   501     0  3.886039196E+01 -1.692179493E+02  6.075949873E+02  6.319149571E+02  7.629394531E-06  0.00000E+00  9.000E+00
#rwgt            1           1   3.0918728064554191E-002           2       61199           0
</event>
<event>
      5   9999  3.19816E-02  2.77869E+02 -1.00000E+00  1.06685E-01
       2    -1     0     0   502     0  0.000000000E+00  0.000000000E+00  3.826809915E+03  3.826809915E+03  0.000000000E+00  0.00000E+00  9.000E+00
      21    -1     0     0   501   502  0.000000000E+00  0.000000000E+00 -7.231078779E+01  7.231078779E+01  0.000000000E+00  0.00000E+00  9.000E+00
      25     1     1     2     0     0  3.424795945E+02 -7.847540724E+01  7.699588068E+02  8.555186885E+02  1.250000000E+02  0.00000E+00  9.000E+00
      25     1     1     2     0     0 -1.268140586E+02  2.536889305E+02  1.310223832E+03  1.346384554E+03  1.250000000E+02  0.00000E+00  9.000E+00
       2     1     1     2   501     0 -2.156655359E+02 -1.752135232E+02  1.674316489E+03  1.697217460E+03  0.000000000E+00  0.00000E+00  9.000E+00
#rwgt            1           1   2.8154435889565985E-002           2       61262           0
</event>
<event>
      5   9999  3.19816E-02  4.80043E+01 -1.00000E+00  1.40092E-01
      21    -1     0     0   502   501  0.000000000E+00  0.000000000E+00  1.705939117E+03  1.705939117E+03  0.000000000E+00  0.00000E+00  9.000E+00
      21    -1     0     0   511   502  0.000000000E+00  0.000000000E+00 -1.064519146E+02  1.064519146E+02  0.000000000E+00  0.00000E+00  9.000E+00
      25     1     1     2     0     0 -1.974939438E+02 -1.373095314E+02  1.180156309E+03  1.210888797E+03  1.250000000E+02  0.00000E+00  9.000E+00
      25     1     1     2     0     0  1.951631556E+02  1.852571946E+02  4.539520919E+02  5.423157634E+02  1.250000000E+02  0.00000E+00  9.000E+00
      21     1     1     2   511   501  2.330788224E+00 -4.794766314E+01 -3.462119849E+01  5.918647108E+01  2.384185791E-06  0.00000E+00  9.000E+00
#rwgt            1           1   3.6998290318124599E-002           2       61342           0
</event>
<event>
      5   9999  3.19816E-02  5.84548E+01 -1.00000E+00  1.35312E-01
      21    -1     0     0   502   512  0.000000000E+00  0.000000000E+00  3.029392536E+02  3.029392536E+02  0.000000000E+00  0.00000E+00  9.000E+00
      21    -1     0     0   501   502  0.000000000E+00  0.000000000E+00 -4.677524965E+02  4.677524965E+02  0.000000000E+00  0.00000E+00  9.000E+00
      25     1     1     2     0     0  1.699282294E+02 -1.926088024E+02 -2.306997858E+02  3.671799901E+02  1.250000000E+02  0.00000E+00  9.000E+00
      25     1     1     2     0     0 -2.016880603E+02  2.416830480E+02  6.595815143E+01  3.450568752E+02  1.250000000E+02  0.00000E+00  9.000E+00
      21     1     1     2   501   512  3.175983087E+01 -4.907424558E+01 -7.160844142E-02  5.845488486E+01  5.779972779E-07  0.00000E+00  9.000E+00
#rwgt            1           1   2.8032460891323361E-002           2       61484           0
</event>
<event>
      5   9999  3.19816E-02  2.64439E+02 -1.00000E+00  1.07404E-01
      21    -1     0     0   502   501  0.000000000E+00  0.000000000E+00  5.319185377E+02  5.319185377E+02  0.000000000E+00  0.00000E+00  9.000E+00
      21    -1     0     0   501   511  0.000000000E+00  0.000000000E+00 -4.103952296E+02  4.103952296E+02  0.000000000E+00  0.00000E+00  9.000E+00
      25     1     1     2     0     0 -3.083164065E+01 -2.252524821E+02  3.113971169E+02  4.053176966E+02  1.250000000E+02  0.00000E+00  9.000E+00
      25     1     1     2     0     0  2.006087157E+02  2.251187119E+01 -1.009648786E+02  2.580107514E+02  1.250000000E+02  0.00000E+00  9.000E+00
      21     1     1     2   502   511 -1.697770750E+02  2.027406109E+02 -8.890893021E+01  2.789853193E+02  3.303624740E-06  0.00000E+00  9.000E+00
#rwgt            1           1   2.7803713488040192E-002           2       61542           0
</event>
<event>
      5   9999  3.19816E-02  6.28407E+01 -1.00000E+00  1.33639E-01
       2    -1     0     0   502     0  0.000000000E+00  0.000000000E+00  6.998595680E+02  6.998595680E+02  0.000000000E+00  0.00000E+00  9.000E+00
      21    -1     0     0   501   502  0.000000000E+00  0.000000000E+00 -3.627244953E+02  3.627244953E+02  0.000000000E+00  0.00000E+00  9.000E+00
      25     1     1     2     0     0 -2.409448842E+02 -6.476533264E+01  1.701394509E+02  3.268354606E+02  1.250000000E+02  0.00000E+00  9.000E+00
      25     1     1     2     0     0  2.969473012E+02  9.327296260E+01 -1.816782815E+02  3.814571316E+02  1.250000000E+02  0.00000E+00  9.000E+00
       2     1     1     2   501     0 -5.600241702E+01 -2.850762996E+01  3.486739033E+02  3.542914712E+02  3.814697266E-06  0.00000E+00  9.000E+00
#rwgt            1           1   2.9074783738286650E-002           2       61582           0
</event>
<event>
      5   9999  3.19816E-02  2.10229E+01 -1.00000E+00  1.64601E-01
      21    -1     0     0   502   511  0.000000000E+00  0.000000000E+00  3.293531827E+01  3.293531827E+01  0.000000000E+00  0.00000E+00  9.000E+00
      21    -1     0     0   501   502  0.000000000E+00  0.000000000E+00 -1.377438499E+03  1.377438499E+03  0.000000000E+00  0.00000E+00  9.000E+00
      25     1     1     2     0     0  5.799860699E-01  9.244265665E+01 -2.188260816E+02  2.684321798E+02  1.250000000E+02  0.00000E+00  9.000E+00
      25     1     1     2     0     0 -1.350120538E+01 -1.090258809E+02 -1.059951075E+03  1.072935323E+03  1.250000000E+02  0.00000E+00  9.000E+00
      21     1     1     2   501   511  1.292121931E+01  1.658322427E+01 -6.572602408E+01  6.900631476E+01  0.000000000E+00  0.00000E+00  9.000E+00
#rwgt            1           1   2.3539909193187405E-002           2       61671           0
</event>
<event>
      5   9999  3.19816E-02  1.48047E+01 -1.00000E+00  1.77921E-01
      21    -1     0     0   502   501  0.000000000E+00  0.000000000E+00  2.308912556E+02  2.308912556E+02  0.000000000E+00  0.00000E+00  9.000E+00
      21    -1     0     0   512   502  0.000000000E+00  0.000000000E+00 -1.650379126E+02  1.650379126E+02  0.000000000E+00  0.00000E+00  9.000E+00
      25     1     1     2     0     0 -5.001715694E+01  1.030229873E+02  1.055647027E+02  1.997106866E+02  1.250000000E+02  0.00000E+00  9.000E+00
      25     1     1     2     0     0  4.450695884E+01 -1.167640478E+02 -3.234656734E+01  1.796830895E+02  1.250000000E+02  0.00000E+00  9.000E+00
      21     1     1     2   512   501  5.510198098E+00  1.374106045E+01 -7.364792270E+00  1.653539206E+01  2.384185791E-07  0.00000E+00  9.000E+00
#rwgt            1           1   3.1269457701415447E-002           2       61799           0
</event>
<event>
      5   9999  3.19816E-02  7.05273E+01 -1.00000E+00  1.31056E-01
      21    -1     0     0   502   511  0.000000000E+00  0.000000000E+00  3.748445677E+02  3.748445677E+02  0.000000000E+00  0.00000E+00  9.000E+00
      21    -1     0     0   501   502  0.000000000E+00  0.000000000E+00 -9.474764328E+02  9.474764328E+02  0.000000000E+00  0.00000E+00  9.000E+00
      25     1     1     2     0     0  2.375677859E+02  4.735014102E+02 -5.375422898E+02  7.649959161E+02  1.250000000E+02  0.00000E+00  9.000E+00
      25     1     1     2     0     0 -1.794281164E+02 -4.335779231E+02 -3.397315385E+01  4.867889066E+02  1.250000000E+02  0.00000E+00  9.000E+00
      21     1     1     2   501   511 -5.813966949E+01 -3.992348707E+01 -1.116421409E+00  7.053617785E+01  1.819711843E-06  0.00000E+00  9.000E+00
#rwgt            1           1   2.8968887937038060E-002           2       61911           0
</event>
<event>
      5   9999  3.19816E-02  4.34035E+02 -1.00000E+00  1.00630E-01
      21    -1     0     0   502   501  0.000000000E+00  0.000000000E+00  1.446753832E+03  1.446753832E+03  0.000000000E+00  0.00000E+00  9.000E+00
       2    -1     0     0   501     0  0.000000000E+00  0.000000000E+00 -1.620914424E+03  1.620914424E+03  0.000000000E+00  0.00000E+00  9.000E+00
      25     1     1     2     0     0 -1.493244442E+02  6.175915291E+02  4.892803463E+02  8.116263572E+02  1.250000000E+02  0.00000E+00  9.000E+00
      25     1     1     2     0     0  5.767579878E+02 -6.930013720E+02  4.828191189E+02  1.030359151E+03  1.250000000E+02  0.00000E+00  9.000E+00
       2     1     1     2   502     0 -4.274335436E+02  7.540984295E+01 -1.146260057E+03  1.225682748E+03  0.000000000E+00  0.00000E+00  9.000E+00
#rwgt            2          13   2.2959955644784999E-003           2       62029           0
</event>
<event>
      5   9999  3.19816E-02  3.54660E+01 -1.00000E+00  1.48157E-01
      21    -1     0     0   502   501  0.000000000E+00  0.000000000E+00  3.274095477E+02  3.274095477E+02  0.000000000E+00  0.00000E+00  9.000E+00
      21    -1     0     0   511   502  0.000000000E+00  0.000000000E+00 -3.298830435E+02  3.298830435E+02  0.000000000E+00  0.00000E+00  9.000E+00
      25     1     1     2     0     0  1.713089969E+02  4.415724697E+01  2.338808921E+02  3.187819107E+02  1.250000000E+02  0.00000E+00  9.000E+00
      25     1     1     2     0     0 -1.485268451E+02 -7.133828477E+01 -1.993158284E+02  2.872301761E+02  1.250000000E+02  0.00000E+00  9.000E+00
      21     1     1     2   511   501 -2.278215184E+01  2.718103780E+01 -3.703855938E+01  5.128050448E+01  6.743495762E-07  0.00000E+00  9.000E+00
#rwgt            1           1   2.4127619129957766E-002           2       62048           0
</event>
<event>
      5   9999  3.19816E-02  2.46187E+02 -1.00000E+00  1.08459E-01
      21    -1     0     0   502   501  0.000000000E+00  0.000000000E+00  1.467574308E+03  1.467574308E+03  0.000000000E+00  0.00000E+00  9.000E+00
      21    -1     0     0   512   502  0.000000000E+00  0.000000000E+00 -1.267644911E+03  1.267644911E+03  0.000000000E+00  0.00000E+00  9.000E+00
      25     1     1     2     0     0 -1.927914200E+02 -7.112439335E+02  1.015928546E+03  1.261258211E+03  1.250000000E+02  0.00000E+00  9.000E+00
      25     1     1     2     0     0  9.200261091E+01  9.358541870E+02 -4.967958896E+02  1.070849521E+03  1.250000000E+02  0.00000E+00  9.000E+00
      21     1     1     2   512   501  1.007888091E+02 -2.246102535E+02 -3.192032594E+02  4.031114868E+02  3.814697266E-06  0.00000E+00  9.000E+00
#rwgt            1           1   2.5728853232296622E-002           2       62232           0
</event>
<event>
      5   9999  3.19816E-02  1.26486E+02 -1.00000E+00  1.19406E-01
      21    -1     0     0   502   501  0.000000000E+00  0.000000000E+00  2.452199108E+02  2.452199108E+02  0.000000000E+00  0.00000E+00  9.000E+00
      21    -1     0     0   501   511  0.000000000E+00  0.000000000E+00 -3.790038963E+03  3.790038963E+03  0.000000000E+00  0.00000E+00  9.000E+00
      25     1     1     2     0     0 -3.376986369E+02  2.001636756E+02 -1.004546706E+02  4.240542504E+02  1.250000000E+02  0.00000E+00  9.000E+00
      25     1     1     2     0     0  4.299114762E+02 -1.135868973E+02 -5.681905816E+02  7.322509117E+02  1.250000000E+02  0.00000E+00  9.000E+00
      21     1     1     2   502   511 -9.221283928E+01 -8.657677835E+01 -2.876173800E+03  2.878953712E+03  6.103515625E-05  0.00000E+00  9.000E+00
#rwgt            1           1   2.6696782446545317E-002           2       62305           0
</event>
<event>
      5   9999  3.19816E-02  5.08315E+02 -1.00000E+00  9.86489E-02
      21    -1     0     0   502   501  0.000000000E+00  0.000000000E+00  1.026165986E+03  1.026165986E+03  0.000000000E+00  0.00000E+00  9.000E+00
      21    -1     0     0   501   512  0.000000000E+00  0.000000000E+00 -3.792951757E+02  3.792951757E+02  0.000000000E+00  0.00000E+00  9.000E+00
      25     1     1     2     0     0  3.798929975E+01 -2.832105101E+02  4.368279588E+02  5.367448607E+02  1.250000000E+02  0.00000E+00  9.000E+00
      25     1     1     2     0     0  2.359066404E+02 -1.450010619E+02  1.933642880E+02  3.601277535E+02  1.250000000E+02  0.00000E+00  9.000E+00
      21     1     1     2   502   512 -2.738959402E+02  4.282115720E+02  1.667856376E+01  5.085885478E+02  9.243141162E-06  0.00000E+00  9.000E+00
#rwgt            1           1   2.8127364922733569E-002           2       62400           0
</event>
<event>
      5   9999  3.19816E-02  8.58062E+01 -1.00000E+00  1.26894E-01
      21    -1     0     0   511   501  0.000000000E+00  0.000000000E+00  2.117397693E+02  2.117397693E+02  0.000000000E+00  0.00000E+00  9.000E+00
      21    -1     0     0   501   502  0.000000000E+00  0.000000000E+00 -7.785377800E+02  7.785377800E+02  0.000000000E+00  0.00000E+00  9.000E+00
      25     1     1     2     0     0  1.645211695E+02  1.977020977E+01 -5.945740681E+02  6.297629704E+02  1.250000000E+02  0.00000E+00  9.000E+00
      25     1     1     2     0     0 -1.145039188E+02  4.995055131E+01 -1.026657984E+02  2.043807016E+02  1.250000000E+02  0.00000E+00  9.000E+00
      21     1     1     2   511   502 -5.001725062E+01 -6.972076108E+01  1.304418559E+02  1.561338774E+02  3.303624740E-06  0.00000E+00  9.000E+00
#rwgt            1           1   2.9054072059271418E-002           2       62485           0
</event>
<event>
      5   9999  3.19816E-02  5.34879E+01 -1.00000E+00  1.37425E-01
      21    -1     0     0   502   512  0.000000000E+00  0.000000000E+00  1.493019386E+02  1.493019386E+02  0.000000000E+00  0.00000E+00  9.000E+00
      21    -1     0     0   501   502  0.000000000E+00  0.000000000E+00 -7.223066390E+02  7.223066390E+02  0.000000000E+00  0.00000E+00  9.000E+00
      25     1     1     2     0     0  1.527562681E+02  2.294439789E+02 -3.770662778E+02  4.835111113E+02  1.250000000E+02  0.00000E+00  9.000E+00
      25     1     1     2     0     0 -1.177083322E+02 -1.890385624E+02 -2.123729517E+02  3.321416868E+02  1.250000000E+02  0.00000E+00  9.000E+00
      21     1     1     2   501   512 -3.504793597E+01 -4.040541650E+01  1.643452916E+01  5.595577939E+01  1.238859277E-06  0.00000E+00  9.000E+00
#rwgt            1           1   3.0119963725715324E-002           2       62572           0
</event>
<event>
      5   9999  3.19816E-02  5.19460E+02 -1.00000E+00  9.83832E-02
      -2    -1     0     0     0   501  0.000000000E+00  0.000000000E+00  4.532654852E+02  4.532654852E+02  0.000000000E+00  0.00000E+00  9.000E+00
      21    -1     0     0   501   502  0.000000000E+00  0.000000000E+00 -1.251554395E+03  1.251554395E+03  0.000000000E+00  0.00000E+00  9.000E+00
      25     1     1     2     0     0 -2.205436238E+02 -2.732593780E+02 -3.445362200E+02  5.075828844E+02  1.250000000E+02  0.00000E+00  9.000E+00
      25     1     1     2     0     0  5.622133977E+02 -1.180218144E+02 -2.220831852E+02  6.284576314E+02  1.250000000E+02  0.00000E+00  9.000E+00
      -2     1     1     2     0   502 -3.416697739E+02  3.912811924E+02 -2.316695043E+02  5.687793642E+02  8.092194914E-06  0.00000E+00  9.000E+00
#rwgt            2           4   4.1471789669691097E-005           2       62658           0
</event>
<event>
      5   9999  3.19816E-02  6.45925E+01 -1.00000E+00  1.33014E-01
      21    -1     0     0   502   501  0.000000000E+00  0.000000000E+00  2.006566006E+03  2.006566006E+03  0.000000000E+00  0.00000E+00  9.000E+00
      21    -1     0     0   501   511  0.000000000E+00  0.000000000E+00 -1.453940817E+03  1.453940817E+03  0.000000000E+00  0.00000E+00  9.000E+00
      25     1     1     2     0     0  9.305229352E+02 -8.362288658E+02 -1.100549002E+02  1.262096957E+03  1.250000000E+02  0.00000E+00  9.000E+00
      25     1     1     2     0     0 -9.329850848E+02  9.007743956E+02  1.131219812E+03  1.725438768E+03  1.250000000E+02  0.00000E+00  9.000E+00
      21     1     1     2   502   511  2.462149526E+00 -6.454552973E+01 -4.685397227E+02  4.729710978E+02  7.629394531E-06  0.00000E+00  9.000E+00
#rwgt            1           1   5.5706141446467176E-002           2       62677           0
</event>
<event>
      5   9999  3.19816E-02  7.24557E+01 -1.00000E+00  1.30467E-01
      21    -1     0     0   512   501  0.000000000E+00  0.000000000E+00  4.630655525E+02  4.630655525E+02  0.000000000E+00  0.00000E+00  9.000E+00
      21    -1     0     0   501   502  0.000000000E+00  0.000000000E+00 -4.432958954E+02  4.432958954E+02  0.000000000E+00  0.00000E+00  9.000E+00
      25     1     1     2     0     0  2.040475061E+02 -2.450916860E+02 -7.349095569E+01  3.503301869E+02  1.250000000E+02  0.00000E+00  9.000E+00
      25     1     1     2     0     0 -1.443868298E+02  2.862065543E+02 -9.279326323E+01  3.563668588E+02  1.250000000E+02  0.00000E+00  9.000E+00
      21     1     1     2   512   502 -5.966067629E+01 -4.111486835E+01  1.860538761E+02  1.996644022E+02  0.000000000E+00  0.00000E+00  9.000E+00
#rwgt            1           1   2.7242458277755240E-002           2       62832           0
</event>
<event>
      5   9999  3.19816E-02  5.83483E+01 -1.00000E+00  1.35354E-01
      21    -1     0     0   502   501  0.000000000E+00  0.000000000E+00  6.867233457E+02  6.867233457E+02  0.000000000E+00  0.00000E+00  9.000E+00
      21    -1     0     0   501   511  0.000000000E+00  0.000000000E+00 -7.728160174E+02  7.728160174E+02  0.000000000E+00  0.00000E+00  9.000E+00
      25     1     1     2     0     0  1.623302817E+02  8.976656730E+01 -6.038402925E+02  6.439388603E+02  1.250000000E+02  0.00000E+00  9.000E+00
      25     1     1     2     0     0 -1.751426450E+02 -3.284234723E+01  6.422344871E+02  6.781177644E+02  1.250000000E+02  0.00000E+00  9.000E+00
      21     1     1     2   502   511  1.281236334E+01 -5.692422007E+01 -1.244868662E+02  1.374827384E+02  2.336015456E-06  0.00000E+00  9.000E+00
#rwgt            2          11   3.3142092201260101E-003           2       63029           0
</event>
<event>
      5   9999  3.19816E-02  6.41357E+01 -1.00000E+00  1.33174E-01
      21    -1     0     0   502   501  0.000000000E+00  0.000000000E+00  1.848620358E+02  1.848620358E+02  0.000000000E+00  0.00000E+00  9.000E+00
       2    -1     0     0   501     0  0.000000000E+00  0.000000000E+00 -3.764985144E+03  3.764985144E+03  0.000000000E+00  0.00000E+00  9.000E+00
      25     1     1     2     0     0 -3.405490195E+02 -2.964399638E+02 -8.958680906E+02  1.010967320E+03  1.250000000E+02  0.00000E+00  9.000E+00
      25     1     1     2     0     0  3.668056126E+02  3.549547712E+02 -4.173763176E+02  6.710940601E+02  1.250000000E+02  0.00000E+00  9.000E+00
       2     1     1     2   502     0 -2.625659305E+01 -5.851480738E+01 -2.266878700E+03  2.267785800E+03  0.000000000E+00  0.00000E+00  9.000E+00
#rwgt            1           1   3.5143284139233996E-002           2       63049           0
</event>
<event>
      5   9999  3.19816E-02  2.52954E+01 -1.00000E+00  1.58370E-01
      21    -1     0     0   511   501  0.000000000E+00  0.000000000E+00  4.691747788E+01  4.691747788E+01  0.000000000E+00  0.00000E+00  9.000E+00
      21    -1     0     0   501   502  0.000000000E+00  0.000000000E+00 -1.790134660E+03  1.790134660E+03  0.000000000E+00  0.00000E+00  9.000E+00
      25     1     1     2     0     0  1.681280299E+02  7.562878479E+01 -8.556500980E+02  8.841656167E+02  1.250000000E+02  0.00000E+00  9.000E+00
      25     1     1     2     0     0 -1.919229966E+02 -8.421127492E+01 -8.940645930E+02  9.267699131E+02  1.250000000E+02  0.00000E+00  9.000E+00
      21     1     1     2   511   502  2.379496670E+01  8.582490129E+00  6.497509165E+00  2.611660779E+01  1.447791791E-06  0.00000E+00  9.000E+00
#rwgt            1           1   3.1553946422616351E-002           2       63158           0
</event>
<event>
      5   9999  3.19816E-02  2.97579E+01 -1.00000E+00  1.53285E-01
      21    -1     0     0   502   512  0.000000000E+00  0.000000000E+00  5.849244608E+02  5.849244608E+02  0.000000000E+00  0.00000E+00  9.000E+00
      21    -1     0     0   501   502  0.000000000E+00  0.000000000E+00 -2.378113139E+02  2.378113139E+02  0.000000000E+00  0.00000E+00  9.000E+00
      25     1     1     2     0     0 -2.425194077E+02  1.288857124E+02 -1.951583083E+01  3.023789966E+02  1.250000000E+02  0.00000E+00  9.000E+00
      25     1     1     2     0     0  2.327467784E+02 -1.007782539E+02  1.886644499E+02  3.399214527E+02  1.250000000E+02  0.00000E+00  9.000E+00
      21     1     1     2   501   512  9.772629214E+00 -2.810745851E+01  1.779645278E+02  1.804353254E+02  1.907348633E-06  0.00000E+00  9.000E+00
#rwgt            1           1   2.9417668261425847E-002           2       63292           0
</event>
<event>
      5   9999  3.19816E-02  1.53780E+02 -1.00000E+00  1.15967E-01
      21    -1     0     0   502   511  0.000000000E+00  0.000000000E+00  2.256720095E+02  2.256720095E+02  0.000000000E+00  0.00000E+00  9.000E+00
      21    -1     0     0   501   502  0.000000000E+00  0.000000000E+00 -9.118509216E+02  9.118509216E+02  0.000000000E+00  0.00000E+00  9.000E+00
      25     1     1     2     0     0 -2.719991344E+02 -5.217492872E+01 -5.757392111E+02  6.510041409E+02  1.250000000E+02  0.00000E+00  9.000E+00
      25     1     1     2     0     0  2.763225081E+02 -1.015439358E+02 -6.778189041E+01  3.269322316E+02  1.250000000E+02  0.00000E+00  9.000E+00
      21     1     1     2   501   511 -4.323373680E+00  1.537188645E+02 -4.265781060E+01  1.595865586E+02  4.768371582E-07  0.00000E+00  9.000E+00
#rwgt            1           1   2.9474588623758152E-002           2       63470           0
</event>
<event>
      5   9999  3.98567E-02  1.02936E+02 -1.00000E+00  1.23265E-01
      21    -1     0     0   502   501  0.000000000E+00  0.000000000E+00  7.316734697E+02  7.316734697E+02  0.000000000E+00  0.00000E+00  9.000E+00
       2    -1     0     0   501     0  0.000000000E+00  0.000000000E+00 -5.688408075E+02  5.688408075E+02  0.000000000E+00  0.00000E+00  9.000E+00
      25     1     1     2     0     0  1.008668217E+02  1.391956291E+02  5.449480299E+02  5.849298198E+02  1.250000000E+02  0.00000E+00  9.000E+00
      25     1     1     2     0     0 -1.809019254E+02 -7.446451343E+01  7.737238681E+01  2.447079006E+02  1.250000000E+02  0.00000E+00  9.000E+00
       2     1     1     2   502     0  8.003510371E+01 -6.473111564E+01 -4.594877546E+02  4.708765568E+02  7.629394531E-06  0.00000E+00  9.000E+00
#rwgt            1           1   3.8061204242050561E-002           2       63534           0
</event>
<event>
      5   9999  3.19816E-02  3.55773E+02 -1.00000E+00  1.03240E-01
      21    -1     0     0   511   501  0.000000000E+00  0.000000000E+00  9.727338811E+02  9.727338811E+02  0.000000000E+00  0.00000E+00  9.000E+00
      21    -1     0     0   501   502  0.000000000E+00  0.000000000E+00 -3.796172272E+02  3.796172272E+02  0.000000000E+00  0.00000E+00  9.000E+00
      25     1     1     2     0     0  2.236464901E+01 -1.178709256E+02 -1.793415814E+02  2.493634605E+02  1.250000000E+02  0.00000E+00  9.000E+00
      25     1     1     2     0     0 -3.765817309E+02  1.511092858E+02  4.926384849E+02  6.503579731E+02  1.250000000E+02  0.00000E+00  9.000E+00
      21     1     1     2   511   502  3.542170819E+02 -3.323836025E+01  2.798197504E+02  4.526296747E+02  3.814697266E-06  0.00000E+00  9.000E+00
#rwgt            2          11   2.6608806916750718E-003           2       63875           0
</event>
<event>
      5   9999  3.19816E-02  1.63383E+01 -1.00000E+00  1.73957E-01
      21    -1     0     0   512   501  0.000000000E+00  0.000000000E+00  6.364926568E+02  6.364926568E+02  0.000000000E+00  0.00000E+00  9.000E+00
      21    -1     0     0   501   502  0.000000000E+00  0.000000000E+00 -1.510630940E+02  1.510630940E+02  0.000000000E+00  0.00000E+00  9.000E+00
      25     1     1     2     0     0 -1.610356157E+02 -1.432496723E+02  1.986080977E+02  3.186269207E+02  1.250000000E+02  0.00000E+00  9.000E+00
      25     1     1     2     0     0  1.705911922E+02  1.565022051E+02  1.001013200E+02  2.814952386E+02  1.250000000E+02  0.00000E+00  9.000E+00
      21     1     1     2   512   502 -9.555576536E+00 -1.325253277E+01  1.867201451E+02  1.874335915E+02  2.697398305E-06  0.00000E+00  9.000E+00
#rwgt            1           1   2.8609931250880943E-002           2       63895           0
</event>
<event>
      5   9999  3.19816E-02  1.41922E+01 -1.00000E+00  1.79679E-01
      21    -1     0     0   502   501  0.000000000E+00  0.000000000E+00  2.427788895E+02  2.427788895E+02  0.000000000E+00  0.00000E+00  9.000E+00
       3    -1     0     0   501     0  0.000000000E+00  0.000000000E+00 -2.556231623E+02  2.556231623E+02  0.000000000E+00  0.00000E+00  9.000E+00
      25     1     1     2     0     0  2.552106559E+01  1.204000323E+02 -4.060429914E+01  1.800588839E+02  1.250000000E+02  0.00000E+00  9.000E+00
      25     1     1     2     0     0 -3.049259172E+01 -1.336929867E+02  1.226341183E+02  2.224134434E+02  1.250000000E+02  0.00000E+00  9.000E+00
       3     1     1     2   502     0  4.971526133E+00  1.329295444E+01 -9.487409200E+01  9.592972450E+01  0.000000000E+00  0.00000E+00  9.000E+00
#rwgt            1           1   2.7723923764190868E-002           2       64096           0
</event>
<event>
      5   9999  3.19816E-02  3.59536E+01 -1.00000E+00  1.47772E-01
       1    -1     0     0   502     0  0.000000000E+00  0.000000000E+00  8.436231148E+02  8.436231148E+02  0.000000000E+00  0.00000E+00  9.000E+00
      21    -1     0     0   501   502  0.000000000E+00  0.000000000E+00 -2.343843440E+02  2.343843440E+02  0.000000000E+00  0.00000E+00  9.000E+00
      25     1     1     2     0     0 -9.516389899E+01 -7.317958673E+01  1.338225371E+02  2.189632184E+02  1.250000000E+02  0.00000E+00  9.000E+00
      25     1     1     2     0     0  9.217447474E+01  1.090086806E+02 -1.442393903E+02  2.383464452E+02  1.250000000E+02  0.00000E+00  9.000E+00
       1     1     1     2   501     0  2.989424258E+00 -3.582909382E+01  6.196556239E+02  6.206977951E+02  7.629394531E-06  0.00000E+00  9.000E+00
#rwgt            1           1   3.2089764998420464E-002           2       64306           0
</event>
<event>
      5   9999  3.19816E-02  3.27041E+01 -1.00000E+00  1.50481E-01
      21    -1     0     0   502   511  0.000000000E+00  0.000000000E+00  5.361034087E+02  5.361034087E+02  0.000000000E+00  0.00000E+00  9.000E+00
      21    -1     0     0   501   502  0.000000000E+00  0.000000000E+00 -1.333933857E+02  1.333933857E+02  0.000000000E+00  0.00000E+00  9.000E+00
      25     1     1     2     0     0  1.298516290E+02 -4.059201934E+01  7.535468067E+01  1.995306631E+02  1.250000000E+02  0.00000E+00  9.000E+00
      25     1     1     2     0     0 -1.393514944E+02  7.188591700E+01  7.282326565E+01  2.133416323E+02  1.250000000E+02  0.00000E+00  9.000E+00
      21     1     1     2   501   511  9.499865396E+00 -3.129389766E+01  2.545320767E+02  2.566244991E+02  2.697398305E-06  0.00000E+00  9.000E+00
#rwgt            1           1   2.8899859758939661E-002           2       64409           0
</event>
<event>
      5   9999  3.19816E-02  9.36552E+01 -1.00000E+00  1.25122E-01
      21    -1     0     0   502   512  0.000000000E+00  0.000000000E+00  2.770451487E+02  2.770451487E+02  0.000000000E+00  0.00000E+00  9.000E+00
      21    -1     0     0   501   502  0.000000000E+00  0.000000000E+00 -2.800068477E+02  2.800068477E+02  0.000000000E+00  0.00000E+00  9.000E+00
      25     1     1     2     0     0  1.150160760E+02 -3.345127599E+01 -1.630711787E+02  2.378337548E+02  1.250000000E+02  0.00000E+00  9.000E+00
      25     1     1     2     0     0 -7.712531286E+01 -5.219673956E+01  2.972972871E+01  1.586873349E+02  1.250000000E+02  0.00000E+00  9.000E+00
      21     1     1     2   501   512 -3.789076310E+01  8.564801554E+01  1.303797511E+02  1.605309066E+02  1.907348633E-06  0.00000E+00  9.000E+00
#rwgt            1           1   2.1883423912670570E-002           2       64515           0
</event>
<event>
      5   9999  3.19816E-02  5.01747E+01 -1.00000E+00  1.38989E-01
      21    -1     0     0   502   511  0.000000000E+00  0.000000000E+00  8.035361704E+02  8.035361704E+02  0.000000000E+00  0.00000E+00  9.000E+00
      21    -1     0     0   501   502  0.000000000E+00  0.000000000E+00 -1.843847063E+02  1.843847063E+02  0.000000000E+00  0.00000E+00  9.000E+00
      25     1     1     2     0     0  1.469565875E+02 -1.549618717E+02  9.695340018E+01  2.657712966E+02  1.250000000E+02  0.00000E+00  9.000E+00
      25     1     1     2     0     0 -1.227015502E+02  1.988844961E+02  7.959949535E+01  2.767160871E+02  1.250000000E+02  0.00000E+00  9.000E+00
      21     1     1     2   501   511 -2.425503724E+01 -4.392262445E+01  4.425985686E+02  4.454334930E+02  7.629394531E-06  0.00000E+00  9.000E+00
#rwgt            1           1   2.6704799035955594E-002           2       64575           0
</event>
<event>
      5   9999  3.19816E-02  2.67997E+01 -1.00000E+00  1.56522E-01
      21    -1     0     0   502   501  0.000000000E+00  0.000000000E+00  3.334934173E+02  3.334934173E+02  0.000000000E+00  0.00000E+00  9.000E+00
      21    -1     0     0   501   512  0.000000000E+00  0.000000000E+00 -1.517203271E+03  1.517203271E+03  0.000000000E+00  0.00000E+00  9.000E+00
      25     1     1     2     0     0  4.561828240E+01  7.012560263E+01  2.962947523E+02  3.322863345E+02  1.250000000E+02  0.00000E+00  9.000E+00
      25     1     1     2     0     0 -4.141812333E+01 -9.659408852E+01 -3.310270090E+02  3.691202508E+02  1.250000000E+02  0.00000E+00  9.000E+00
      21     1     1     2   502   512 -4.200159069E+00  2.646848590E+01 -1.148977597E+03  1.149290103E+03  2.157918644E-05  0.00000E+00  9.000E+00
#rwgt            1           1   2.8665694847674957E-002           2       64680           0
</event>
<event>
      5   9999  3.19816E-02  5.30553E+01 -1.00000E+00  1.37622E-01
      21    -1     0     0   502   511  0.000000000E+00  0.000000000E+00  5.414300076E+02  5.414300076E+02  0.000000000E+00  0.00000E+00  9.000E+00
      21    -1     0     0   501   502  0.000000000E+00  0.000000000E+00 -2.620431212E+02  2.620431212E+02  0.000000000E+00  0.00000E+00  9.000E+00
      25     1     1     2     0     0  8.447885297E+01 -2.757714486E+02  2.715326916E+02  4.153812358E+02  1.250000000E+02  0.00000E+00  9.000E+00
      25     1     1     2     0     0 -3.478001836E+01  2.943426619E+02 -2.977649789E+01  3.230462693E+02  1.250000000E+02  0.00000E+00  9.000E+00
      21     1     1     2   501   511 -4.969883461E+01 -1.857121324E+01  3.763069269E+01  6.504562364E+01  6.743495762E-07  0.00000E+00  9.000E+00
#rwgt            1           1   3.3295676909778436E-002           2       64855           0
</event>
<event>
      5   9999  3.19816E-02  1.40461E+02 -1.00000E+00  1.17536E-01
      21    -1     0     0   502   512  0.000000000E+00  0.000000000E+00  1.373637780E+02  1.373637780E+02  0.000000000E+00  0.00000E+00  9.000E+00
      21    -1     0     0   501   502  0.000000000E+00  0.000000000E+00 -8.221806485E+02  8.221806485E+02  0.000000000E+00  0.00000E+00  9.000E+00
      25     1     1     2     0     0 -9.857951978E+01  2.350677459E+02 -4.422557156E+02  5.255377103E+02  1.250000000E+02  0.00000E+00  9.000E+00
      25     1     1     2     0     0  1.461396446E+02 -1.029042193E+02 -1.655404081E+02  2.738150850E+02  1.250000000E+02  0.00000E+00  9.000E+00
      21     1     1     2   501   512 -4.756012482E+01 -1.321635267E+02 -7.702074676E+01  1.601916311E+02  1.348699152E-06  0.00000E+00  9.000E+00
#rwgt            1           1   2.7618827954667673E-002           2       64959           0
</event>
<event>
      5   9999  3.19816E-02  5.49586E+01 -1.00000E+00  1.36772E-01
      21    -1     0     0   502   511  0.000000000E+00  0.000000000E+00  1.830511711E+03  1.830511711E+03  0.000000000E+00  0.00000E+00  9.000E+00
      21    -1     0     0   501   502  0.000000000E+00  0.000000000E+00 -2.261582253E+03  2.261582253E+03  0.000000000E+00  0.00000E+00  9.000E+00
      25     1     1     2     0     0  1.079144629E+03  9.753317672E+02 -1.010538606E+02  1.463441857E+03  1.250000000E+02  0.00000E+00  9.000E+00
      25     1     1     2     0     0 -1.133073710E+03 -9.859193776E+02 -1.094216301E+03  1.862478823E+03  1.250000000E+02  0.00000E+00  9.000E+00
      21     1     1     2   501   511  5.392908092E+01  1.058761037E+01  7.641996194E+02  7.661732842E+02  1.078959322E-05  0.00000E+00  9.000E+00
#rwgt            1           1   4.2772039032715682E-002           2       65028           0
</event>
<event>
      5   9999  3.19816E-02  3.45583E+01 -1.00000E+00  1.48892E-01
      21    -1     0     0   502   512  0.000000000E+00  0.000000000E+00  8.154603147E+02  8.154603147E+02  0.000000000E+00  0.00000E+00  9.000E+00
      21    -1     0     0   501   502  0.000000000E+00  0.000000000E+00 -3.312793230E+02  3.312793230E+02  0.000000000E+00  0.00000E+00  9.000E+00
      25     1     1     2     0     0  1.632421821E+01  2.075652534E+02  5.831314439E+02  6.316779997E+02  1.250000000E+02  0.00000E+00  9.000E+00
      25     1     1     2     0     0 -1.054681780E+01 -1.734933136E+02 -2.677158434E+02  3.427943087E+02  1.250000000E+02  0.00000E+00  9.000E+00
      21     1     1     2   501   512 -5.777400405E+00 -3.407193971E+01  1.687653913E+02  1.722673292E+02  2.697398305E-06  0.00000E+00  9.000E+00
#rwgt            1           1   2.7822302626548903E-002           2       65203           0
</event>
<event>
      5   9999  3.19816E-02  1.87944E+02 -1.00000E+00  1.12640E-01
      21    -1     0     0   511   501  0.000000000E+00  0.000000000E+00  2.847138499E+02  2.847138499E+02  0.000000000E+00  0.00000E+00  9.000E+00
      21    -1     0     0   501   502  0.000000000E+00  0.000000000E+00 -1.055172219E+03  1.055172219E+03  0.000000000E+00  0.00000E+00  9.000E+00
      25     1     1     2     0     0 -1.611340397E+02 -1.877547649E+02 -2.427108038E+02  3.684420779E+02  1.250000000E+02  0.00000E+00  9.000E+00
      25     1     1     2     0     0  1.503312245E+02  1.216231083E-01 -6.936963477E+02  7.207212461E+02  1.250000000E+02  0.00000E+00  9.000E+00
      21     1     1     2   511   502  1.080281526E+01  1.876331418E+02  1.659487821E+02  2.507227452E+02  3.814697266E-06  0.00000E+00  9.000E+00
#rwgt            1           1   2.7772201767391796E-002           2       65329           0
</event>
<event>
      5   9999  3.19816E-02  1.10205E+02 -1.00000E+00  1.21959E-01
      21    -1     0     0   512   501  0.000000000E+00  0.000000000E+00  2.282578363E+03  2.282578363E+03  0.000000000E+00  0.00000E+00  9.000E+00
      21    -1     0     0   501   502  0.000000000E+00  0.000000000E+00 -3.352896908E+02  3.352896908E+02  0.000000000E+00  0.00000E+00  9.000E+00
      25     1     1     2     0     0  7.198079913E+02 -5.613275484E+01  1.556695996E+03  1.720523716E+03  1.250000000E+02  0.00000E+00  9.000E+00
      25     1     1     2     0     0 -6.449883441E+02 -2.478157261E+01  2.181676980E+02  6.927093437E+02  1.250000000E+02  0.00000E+00  9.000E+00
      21     1     1     2   512   502 -7.481964718E+01  8.091432745E+01  1.724249774E+02  2.046349941E+02  2.697398305E-06  0.00000E+00  9.000E+00
#rwgt            1           1   3.0068797597761536E-002           2       65425           0
</event>
<event>
      5   9999  3.19816E-02  7.90596E+01 -1.00000E+00  1.28599E-01
      21    -1     0     0   511   501  0.000000000E+00  0.000000000E+00  2.708977398E+02  2.708977398E+02  0.000000000E+00  0.00000E+00  9.000E+00
      21    -1     0     0   501   502  0.000000000E+00  0.000000000E+00 -1.486365507E+03  1.486365507E+03  0.000000000E+00  0.00000E+00  9.000E+00
      25     1     1     2     0     0 -4.999640075E+02 -3.597587392E+01 -1.034383039E+03  1.156214315E+03  1.250000000E+02  0.00000E+00  9.000E+00
      25     1     1     2     0     0  4.752042628E+02 -3.910654051E+01 -1.688924675E+02  5.210547750E+02  1.250000000E+02  0.00000E+00  9.000E+00
      21     1     1     2   511   502  2.475974468E+01  7.508241443E+01 -1.219226161E+01  7.999415702E+01  1.203954809E-06  0.00000E+00  9.000E+00
#rwgt            1           1   2.2995373070233808E-002           2       65552           0
</event>
<event>
      5   9999  3.19816E-02  1.80628E+02 -1.00000E+00  1.13283E-01
       1    -1     0     0   502     0  0.000000000E+00  0.000000000E+00  2.090177719E+03  2.090177719E+03  0.000000000E+00  0.00000E+00  9.000E+00
      21    -1     0     0   501   502  0.000000000E+00  0.000000000E+00 -2.300538335E+02  2.300538335E+02  0.000000000E+00  0.00000E+00  9.000E+00
      25     1     1     2     0     0 -1.414063822E+02 -6.236007955E+01  3.673812541E+02  4.177062727E+02  1.250000000E+02  0.00000E+00  9.000E+00
      25     1     1     2     0     0  3.072313613E+02 -9.252996501E+00 -6.180182877E+01  3.375221376E+02  1.250000000E+02  0.00000E+00  9.000E+00
       1     1     1     2   501     0 -1.658249791E+02  7.161307606E+01  1.554544460E+03  1.565003142E+03  3.051757812E-05  0.00000E+00  9.000E+00
#rwgt            1           1   2.6081916731433882E-002           2       65683           0
</event>
<event>
      5   9999  3.19816E-02  1.04810E+02 -1.00000E+00  1.22917E-01
      21    -1     0     0   502   511  0.000000000E+00  0.000000000E+00  2.016073658E+02  2.016073658E+02  0.000000000E+00  0.00000E+00  9.000E+00
      21    -1     0     0   501   502  0.000000000E+00  0.000000000E+00 -3.565248337E+02  3.565248337E+02  0.000000000E+00  0.00000E+00  9.000E+00
      25     1     1     2     0     0  8.675733704E+00  3.814768656E+01 -3.888916126E+01  1.366304549E+02  1.250000000E+02  0.00000E+00  9.000E+00
      25     1     1     2     0     0 -7.256333548E+01  4.493940983E+01 -2.244406410E+02  2.707094190E+02  1.250000000E+02  0.00000E+00  9.000E+00
      21     1     1     2   501   511  6.388760177E+01 -8.308709639E+01  1.084123343E+02  1.507923256E+02  1.907348633E-06  0.00000E+00  9.000E+00
#rwgt            1           1   3.9933509554432901E-002           2       65760           0
</event>
<event>
      5   9999  3.19816E-02  4.51089E+01 -1.00000E+00  1.41675E-01
      21    -1     0     0   502   512  0.000000000E+00  0.000000000E+00  2.280609791E+02  2.280609791E+02  0.000000000E+00  0.00000E+00  9.000E+00
      21    -1     0     0   501   502  0.000000000E+00  0.000000000E+00 -5.469842819E+02  5.469842819E+02  0.000000000E+00  0.00000E+00  9.000E+00
      25     1     1     2     0     0 -1.463288777E+02  2.135821718E+02 -3.043682634E+02  4.186818892E+02  1.250000000E+02  0.00000E+00  9.000E+00
      25     1     1     2     0     0  1.266028381E+02 -2.541493638E+02 -2.026119396E+01  3.108949883E+02  1.250000000E+02  0.00000E+00  9.000E+00
      21     1     1     2   501   512  1.972603963E+01  4.056719200E+01  5.706154477E+00  4.546838358E+01  3.039252468E-07  0.00000E+00  9.000E+00
#rwgt            1           1   2.8327341392620154E-002           2       65804           0
</event>
<event>
      5   9999  3.19816E-02  2.55394E+02 -1.00000E+00  1.07914E-01
      21    -1     0     0   502   501  0.000000000E+00  0.000000000E+00  5.922394569E+02  5.922394569E+02  0.000000000E+00  0.00000E+00  9.000E+00
      21    -1     0     0   501   511  0.000000000E+00  0.000000000E+00 -9.281944727E+02  9.281944727E+02  0.000000000E+00  0.00000E+00  9.000E+00
      25     1     1     2     0     0  1.385002608E+02 -3.550191708E+02  2.564740312E+02  4.760513235E+02  1.250000000E+02  0.00000E+00  9.000E+00
      25     1     1     2     0     0 -1.556079473E+01  5.788761213E+02 -4.915170618E+02  7.697751127E+02  1.250000000E+02  0.00000E+00  9.000E+00
      21     1     1     2   502   511 -1.229394660E+02 -2.238569505E+02 -1.009119853E+02  2.746074933E+02  4.473129043E-06  0.00000E+00  9.000E+00
#rwgt            1           1   3.1298267099597335E-002           2       65942           0
</event>
<event>
      5   9999  3.19816E-02  6.00599E+01 -1.00000E+00  1.34680E-01
      21    -1     0     0   502   501  0.000000000E+00  0.000000000E+00  5.977332865E+01  5.977332865E+01  0.000000000E+00  0.00000E+00  9.000E+00
      -4    -1     0     0     0   502  0.000000000E+00  0.000000000E+00 -8.621535464E+02  8.621535464E+02  0.000000000E+00  0.00000E+00  9.000E+00
      25     1     1     2     0     0  5.195151742E+01 -1.088750119E+02 -2.830828038E+02  3.321349156E+02  1.250000000E+02  0.00000E+00  9.000E+00
      25     1     1     2     0     0 -9.333271244E+01  1.524041963E+02 -4.305034430E+02  4.825932539E+02  1.250000000E+02  0.00000E+00  9.000E+00
      -4     1     1     2     0   501  4.138119502E+01 -4.352918437E+01 -8.879397097E+01  1.071987056E+02  1.907348633E-06  0.00000E+00  9.000E+00
#rwgt            1           1   3.6853360836909307E-002           2       66012           0
</event>
<event>
      5   9999  3.19816E-02  1.08927E+02 -1.00000E+00  1.22180E-01
      21    -1     0     0   502   501  0.000000000E+00  0.000000000E+00  5.794665940E+02  5.794665940E+02  0.000000000E+00  0.00000E+00  9.000E+00
      21    -1     0     0   511   502  0.000000000E+00  0.000000000E+00 -5.331735353E+02  5.331735353E+02  0.000000000E+00  0.00000E+00  9.000E+00
      25     1     1     2     0     0 -7.327019177E+01  1.127244359E+02 -2.182115499E+01  1.848688245E+02  1.250000000E+02  0.00000E+00  9.000E+00
      25     1     1     2     0     0 -1.135844396E+00 -1.922780182E+02  4.637793877E+02  5.173861680E+02  1.250000000E+02  0.00000E+00  9.000E+00
      21     1     1     2   511   501  7.440603617E+01  7.955358227E+01 -3.956651739E+02  4.103851368E+02  5.394796609E-06  0.00000E+00  9.000E+00
#rwgt            1           1   2.8184639408382010E-002           2       66082           0
</event>
<event>
      5   9999  3.19816E-02  3.70581E+02 -1.00000E+00  1.02694E-01
       2    -1     0     0   502     0  0.000000000E+00  0.000000000E+00  1.759820020E+03  1.759820020E+03  0.000000000E+00  0.00000E+00  9.000E+00
      21    -1     0     0   501   502  0.000000000E+00  0.000000000E+00 -6.210252965E+02  6.210252965E+02  0.000000000E+00  0.00000E+00  9.000E+00
      25     1     1     2     0     0  2.234071204E+02  9.571631305E+01  2.138765651E+02  3.470454424E+02  1.250000000E+02  0.00000E+00  9.000E+00
      25     1     1     2     0     0  3.285856474E+01  1.719745608E+02 -5.090923582E+02  5.526798024E+02  1.250000000E+02  0.00000E+00  9.000E+00
       2     1     1     2   501     0 -2.562656851E+02 -2.676908739E+02  1.434010517E+03  1.481120072E+03  0.000000000E+00  0.00000E+00  9.000E+00
#rwgt            1           1   2.8545830109429276E-002           2       66133           0
</event>
<event>
      5   9999  3.19816E-02  1.85178E+02 -1.00000E+00  1.12879E-01
      21    -1     0     0   502   501  0.000000000E+00  0.000000000E+00  1.636632211E+03  1.636632211E+03  0.000000000E+00  0.00000E+00  9.000E+00
      21    -1     0     0   511   502  0.000000000E+00  0.000000000E+00 -2.051860008E+02  2.051860008E+02  0.000000000E+00  0.00000E+00  9.000E+00
      25     1     1     2     0     0  7.665652791E+01  2.995938818E+02  1.417448464E+03  1.456165466E+03  1.250000000E+02  0.00000E+00  9.000E+00
      25     1     1     2     0     0  3.314048841E+01 -1.504777918E+02  2.589076387E+01  2.000929520E+02  1.250000000E+02  0.00000E+00  9.000E+00
      21     1     1     2   511   501 -1.097970163E+02 -1.491160900E+02 -1.189301755E+01  1.855597935E+02  3.247222536E-06  0.00000E+00  9.000E+00
#rwgt            1           1   2.7137414477006086E-002           2       66162           0
</event>
<event>
      5   9999  3.19816E-02  9.83341E+01 -1.00000E+00  1.24157E-01
      21    -1     0     0   502   501  0.000000000E+00  0.000000000E+00  4.719421024E+02  4.719421024E+02  0.000000000E+00  0.00000E+00  9.000E+00
      21    -1     0     0   501   512  0.000000000E+00  0.000000000E+00 -2.083059122E+02  2.083059122E+02  0.000000000E+00  0.00000E+00  9.000E+00
      25     1     1     2     0     0  9.328864319E+01 -3.902175647E+01  3.102156440E+02  3.494055154E+02  1.250000000E+02  0.00000E+00  9.000E+00
      25     1     1     2     0     0 -1.895522615E+02  1.894896484E+01 -4.632346660E+01  2.325080357E+02  1.250000000E+02  0.00000E+00  9.000E+00
      21     1     1     2   502   512  9.626361835E+01  2.007279163E+01 -2.559871927E-01  9.833446350E+01  1.436634428E-06  0.00000E+00  9.000E+00
#rwgt            1           1   3.2018604976211847E-002           2       66228           0
</event>
<event>
      5   9999  3.19816E-02  1.24773E+02 -1.00000E+00  1.19654E-01
       2    -1     0     0   502     0  0.000000000E+00  0.000000000E+00  1.105900765E+03  1.105900765E+03  0.000000000E+00  0.00000E+00  9.000E+00
      21    -1     0     0   501   502  0.000000000E+00  0.000000000E+00 -5.877711896E+02  5.877711896E+02  0.000000000E+00  0.00000E+00  9.000E+00
      25     1     1     2     0     0  5.671190613E+02 -3.056615412E+01  7.747982822E+02  9.687598761E+02  1.250000000E+02  0.00000E+00  9.000E+00
      25     1     1     2     0     0 -4.440063501E+02  1.027706361E+01 -3.415139021E+02  5.740243918E+02  1.250000000E+02  0.00000E+00  9.000E+00
       2     1     1     2   501     0 -1.231127112E+02  2.028909051E+01  8.484519539E+01  1.508876868E+02  2.861022949E-06  0.00000E+00  9.000E+00
#rwgt            2          18   4.2719015637432948E-004           2       66307           0
</event>
<event>
      5   9999  3.19816E-02  6.91103E+01 -1.00000E+00  1.31503E-01
      21    -1     0     0   502   501  0.000000000E+00  0.000000000E+00  5.054132232E+01  5.054132232E+01  0.000000000E+00  0.00000E+00  9.000E+00
      21    -1     0     0   511   502  0.000000000E+00  0.000000000E+00 -1.618000403E+03  1.618000403E+03  0.000000000E+00  0.00000E+00  9.000E+00
      25     1     1     2     0     0  1.445493419E+02  3.455848252E+01 -9.310037224E+02  9.510424449E+02  1.250000000E+02  0.00000E+00  9.000E+00
      25     1     1     2     0     0 -9.615633364E+01  1.478061303E+01 -1.260342286E+02  2.024206852E+02  1.250000000E+02  0.00000E+00  9.000E+00
      21     1     1     2   511   501 -4.839300825E+01 -4.933909554E+01 -5.104211302E+02  5.150785957E+02  7.629394531E-06  0.00000E+00  9.000E+00
#rwgt            1           1   3.4285589163821732E-002           2       66341           0
</event>
<event>
      5   9999  3.19816E-02  3.58497E+01 -1.00000E+00  1.47854E-01
      21    -1     0     0   502   512  0.000000000E+00  0.000000000E+00  2.751251284E+02  2.751251284E+02  0.000000000E+00  0.00000E+00  9.000E+00
      21    -1     0     0   501   502  0.000000000E+00  0.000000000E+00 -2.313572115E+02  2.313572115E+02  0.000000000E+00  0.00000E+00  9.000E+00
      25     1     1     2     0     0 -1.185850842E+02  2.296041165E+01 -5.913227536E+01  1.836061782E+02  1.250000000E+02  0.00000E+00  9.000E+00
      25     1     1     2     0     0  1.539575888E+02 -2.879033713E+01 -1.372911113E+01  2.008614228E+02  1.250000000E+02  0.00000E+00  9.000E+00
      21     1     1     2   501   512 -3.537250464E+01  5.829925477E+00  1.166293033E+02  1.220147389E+02  1.348699152E-06  0.00000E+00  9.000E+00
#rwgt            1           1   3.1005436847648046E-002           2       66416           0
</event>
<event>
      5   9999  3.19816E-02  8.97368E+01 -1.00000E+00  1.25981E-01
      21    -1     0     0   502   511  0.000000000E+00  0.000000000E+00  1.049756676E+03  1.049756676E+03  0.000000000E+00  0.00000E+00  9.000E+00
      21    -1     0     0   501   502  0.000000000E+00  0.000000000E+00 -2.463663260E+02  2.463663260E+02  0.000000000E+00  0.00000E+00  9.000E+00
      25     1     1     2     0     0  1.526947223E+02  2.624280342E+02  4.785252984E+02  5.803409451E+02  1.250000000E+02  0.00000E+00  9.000E+00
      25     1     1     2     0     0 -1.614571501E+02 -3.517359585E+02  3.028176435E+01  4.078340116E+02  1.250000000E+02  0.00000E+00  9.000E+00
      21     1     1     2   501   511  8.762427752E+00  8.930792422E+01  2.945832877E+02  3.079480457E+02  5.394796609E-06  0.00000E+00  9.000E+00
#rwgt            1           1   2.7629483819048832E-002           2       66522           0
</event>
<event>
      5   9999  3.19816E-02  7.08397E+01 -1.00000E+00  1.30959E-01
      21    -1     0     0   502   501  0.000000000E+00  0.000000000E+00  8.207047136E+01  8.207047136E+01  0.000000000E+00  0.00000E+00  9.000E+00
      21    -1     0     0   512   502  0.000000000E+00  0.000000000E+00 -1.986755458E+03  1.986755458E+03  0.000000000E+00  0.00000E+00  9.000E+00
      25     1     1     2     0     0  1.501177282E+02 -3.128841817E+02 -9.873800759E+02  1.054028585E+03  1.250000000E+02  0.00000E+00  9.000E+00
      25     1     1     2     0     0 -8.131981791E+01  3.297692828E+02 -7.368089111E+02  8.208977184E+02  1.250000000E+02  0.00000E+00  9.000E+00
      21     1     1     2   512   501 -6.879791032E+01 -1.688510110E+01 -1.804960000E+02  1.938996264E+02  5.394796609E-06  0.00000E+00  9.000E+00
#rwgt            1           1   3.1742343562494446E-002           2       66597           0
</event>
<event>
      5   9999  3.19816E-02  1.77004E+02 -1.00000E+00  1.13614E-01
      21    -1     0     0   502   501  0.000000000E+00  0.000000000E+00  1.406883600E+02  1.406883600E+02  0.000000000E+00  0.00000E+00  9.000E+00
      21    -1     0     0   511   502  0.000000000E+00  0.000000000E+00 -6.876510136E+02  6.876510136E+02  0.000000000E+00  0.00000E+00  9.000E+00
      25     1     1     2     0     0  1.245121371E+02 -9.255985244E+01 -3.162791253E+02  3.738021986E+02  1.250000000E+02  0.00000E+00  9.000E+00
      25     1     1     2     0     0  4.681318462E+01  1.370363367E+02 -4.205956288E+01  1.958684218E+02  1.250000000E+02  0.00000E+00  9.000E+00
      21     1     1     2   511   501 -1.713253217E+02 -4.447648426E+01 -1.886239655E+02  2.586687532E+02  5.394796609E-06  0.00000E+00  9.000E+00
#rwgt            1           1   1.8430549024083028E-002           2       66657           0
</event>
<event>
      5   9999  3.19816E-02  3.54639E+02 -1.00000E+00  1.03284E-01
      21    -1     0     0   502   501  0.000000000E+00  0.000000000E+00  1.867971703E+03  1.867971703E+03  0.000000000E+00  0.00000E+00  9.000E+00
      21    -1     0     0   512   502  0.000000000E+00  0.000000000E+00 -4.649700714E+02  4.649700714E+02  0.000000000E+00  0.00000E+00  9.000E+00
      25     1     1     2     0     0  2.746503971E+02  1.541808048E+01  1.165314792E+03  1.203849709E+03  1.250000000E+02  0.00000E+00  9.000E+00
      25     1     1     2     0     0 -5.291182146E+02 -2.624296503E+02  4.150084695E+02  7.325929539E+02  1.250000000E+02  0.00000E+00  9.000E+00
      21     1     1     2   512   501  2.544678174E+02  2.470115698E+02 -1.773216291E+02  3.964991121E+02  9.344061824E-06  0.00000E+00  9.000E+00
#rwgt            2          11   4.6184651333293142E-003           2       66759           0
</event>
<event>
      5   9999  3.19816E-02  6.93655E+01 -1.00000E+00  1.31421E-01
      21    -1     0     0   502   501  0.000000000E+00  0.000000000E+00  7.410365264E+01  7.410365264E+01  0.000000000E+00  0.00000E+00  9.000E+00
      21    -1     0     0   511   502  0.000000000E+00  0.000000000E+00 -1.746724643E+03  1.746724643E+03  0.000000000E+00  0.00000E+00  9.000E+00
      25     1     1     2     0     0  3.948023576E+01  2.533951699E+02 -3.368490094E+02  4.414295598E+02  1.250000000E+02  0.00000E+00  9.000E+00
      25     1     1     2     0     0 -8.136096605E+01 -1.980998481E+02 -7.592050079E+02  7.986741518E+02  1.250000000E+02  0.00000E+00  9.000E+00
      21     1     1     2   511   501  4.188073030E+01 -5.529532173E+01 -5.765669728E+02  5.807245838E+02  1.078959322E-05  0.00000E+00  9.000E+00
#rwgt            1           1   2.4655410272210177E-002           2       66809           0
</event>
<event>
      5   9999  3.19816E-02  5.37753E+01 -1.00000E+00  1.37295E-01
      21    -1     0     0   502   512  0.000000000E+00  0.000000000E+00  1.050372448E+02  1.050372448E+02  0.000000000E+00  0.00000E+00  9.000E+00
      21    -1     0     0   501   502  0.000000000E+00  0.000000000E+00 -1.590150774E+03  1.590150774E+03  0.000000000E+00  0.00000E+00  9.000E+00
      25     1     1     2     0     0  4.747016436E+01  1.138449916E+02 -1.389126435E+03  1.400182614E+03  1.250000000E+02  0.00000E+00  9.000E+00
      25     1     1     2     0     0 -6.427441988E+01 -1.649272993E+02 -1.044713374E+02  2.405649090E+02  1.250000000E+02  0.00000E+00  9.000E+00
      21     1     1     2   501   512  1.680425552E+01  5.108230767E+01  8.484244047E+00  5.444049556E+01  1.400392070E-06  0.00000E+00  9.000E+00
#rwgt            1           1   3.1243953416072213E-002           2       66894           0
</event>
<event>
      5   9999  3.19816E-02  3.96161E+01 -1.00000E+00  1.45100E-01
       2    -1     0     0   502     0  0.000000000E+00  0.000000000E+00  2.117663349E+03  2.117663349E+03  0.000000000E+00  0.00000E+00  9.000E+00
      21    -1     0     0   501   502  0.000000000E+00  0.000000000E+00 -2.007059023E+02  2.007059023E+02  0.000000000E+00  0.00000E+00  9.000E+00
      25     1     1     2     0     0  1.422403032E+02 -1.220531186E+02  2.186790473E+02  3.139662296E+02  1.250000000E+02  0.00000E+00  9.000E+00
      25     1     1     2     0     0 -1.081221923E+02  1.421873847E+02 -7.509258970E+01  2.305895875E+02  1.250000000E+02  0.00000E+00  9.000E+00
       2     1     1     2   501     0 -3.411811085E+01 -2.013426604E+01  1.773370989E+03  1.773813434E+03  0.000000000E+00  0.00000E+00  9.000E+00
#rwgt            1           1   2.7052143295126840E-002           2       66989           0
</event>
<event>
      5   9999  3.19816E-02  7.96954E+01 -1.00000E+00  1.28430E-01
      21    -1     0     0   502   501  0.000000000E+00  0.000000000E+00  9.680849261E+01  9.680849261E+01  0.000000000E+00  0.00000E+00  9.000E+00
      21    -1     0     0   511   502  0.000000000E+00  0.000000000E+00 -7.766325418E+02  7.766325418E+02  0.000000000E+00  0.00000E+00  9.000E+00
      25     1     1     2     0     0 -3.348591143E+01 -6.870020137E+01 -4.325044911E+02  4.566466454E+02  1.250000000E+02  0.00000E+00  9.000E+00
      25     1     1     2     0     0 -3.252136749E+01  2.404158729E+01  2.440197291E+01  1.336266947E+02  1.250000000E+02  0.00000E+00  9.000E+00
      21     1     1     2   511   501  6.600727892E+01  4.465861408E+01 -2.717215310E+02  2.831676943E+02  0.000000000E+00  0.00000E+00  9.000E+00
#rwgt            1           1   2.1242140802042973E-002           2       67072           0
</event>
<event>
      5   9999  3.19816E-02  1.58624E+02 -1.00000E+00  1.15440E-01
      21    -1     0     0   502   501  0.000000000E+00  0.000000000E+00  6.825950415E+02  6.825950415E+02  0.000000000E+00  0.00000E+00  9.000E+00
      21    -1     0     0   512   502  0.000000000E+00  0.000000000E+00 -6.434856498E+02  6.434856498E+02  0.000000000E+00  0.00000E+00  9.000E+00
      25     1     1     2     0     0 -1.997697566E+02 -2.971884623E+02  3.986671364E+02  5.502630493E+02  1.250000000E+02  0.00000E+00  9.000E+00
      25     1     1     2     0     0  2.404798760E+02  4.504992483E+02 -2.442349784E+02  5.797032587E+02  1.250000000E+02  0.00000E+00  9.000E+00
      21     1     1     2   512   501 -4.071011942E+01 -1.533107860E+02 -1.153227662E+02  1.961143833E+02  2.697398305E-06  0.00000E+00  9.000E+00
#rwgt            1           1   2.5039299525458327E-002           2       67116           0
</event>
<event>
      5   9999  3.19816E-02  2.45786E+02 -1.00000E+00  1.08483E-01
      21    -1     0     0   502   511  0.000000000E+00  0.000000000E+00  4.332557142E+02  4.332557142E+02  0.000000000E+00  0.00000E+00  9.000E+00
      21    -1     0     0   501   502  0.000000000E+00  0.000000000E+00 -4.957335556E+02  4.957335556E+02  0.000000000E+00  0.00000E+00  9.000E+00
      25     1     1     2     0     0  6.564740300E+01 -8.338366198E+01  9.331196436E+01  1.886651513E+02  1.250000000E+02  0.00000E+00  9.000E+00
      25     1     1     2     0     0 -2.981690055E+02  1.630359772E+02 -2.866973518E+02  4.618504707E+02  1.250000000E+02  0.00000E+00  9.000E+00
      21     1     1     2   501   511  2.325216025E+02 -7.965231526E+01  1.309075460E+02  2.784736479E+02  5.046370146E-06  0.00000E+00  9.000E+00
#rwgt            2          11   3.6957762251127600E-003           2       67274           0
</event>
<event>
      5   9999  3.19816E-02  3.76699E+01 -1.00000E+00  1.46475E-01
      21    -1     0     0   502   501  0.000000000E+00  0.000000000E+00  3.840622392E+02  3.840622392E+02  0.000000000E+00  0.00000E+00  9.000E+00
      21    -1     0     0   512   502  0.000000000E+00  0.000000000E+00 -5.418223408E+02  5.418223408E+02  0.000000000E+00  0.00000E+00  9.000E+00
      25     1     1     2     0     0  1.373173196E+02  3.360274778E+02  2.789139027E+01  3.849330354E+02  1.250000000E+02  0.00000E+00  9.000E+00
      25     1     1     2     0     0 -1.607014249E+02 -3.064943413E+02 -1.721548934E+01  3.683545878E+02  1.250000000E+02  0.00000E+00  9.000E+00
      21     1     1     2   512   501  2.338410530E+01 -2.953313644E+01 -1.684360026E+02  1.725969568E+02  3.814697266E-06  0.00000E+00  9.000E+00
#rwgt            1           1   2.7036401601740988E-002           2       67309           0
</event>
<event>
      5   9999  3.19816E-02  1.59618E+01 -1.00000E+00  1.74878E-01
      21    -1     0     0   502   511  0.000000000E+00  0.000000000E+00  2.296311217E+02  2.296311217E+02  0.000000000E+00  0.00000E+00  9.000E+00
      21    -1     0     0   501   502  0.000000000E+00  0.000000000E+00 -3.647898461E+02  3.647898461E+02  0.000000000E+00  0.00000E+00  9.000E+00
      25     1     1     2     0     0 -2.767421396E+01  1.120915923E+02 -2.976715013E+02  3.428756478E+02  1.250000000E+02  0.00000E+00  9.000E+00
      25     1     1     2     0     0  2.961685660E+01 -9.624846980E+01  1.048822254E+02  1.917451625E+02  1.250000000E+02  0.00000E+00  9.000E+00
      21     1     1     2   501   511 -1.942642641E+00 -1.584312247E+01  5.763055141E+01  5.980015758E+01  6.743495762E-07  0.00000E+00  9.000E+00
#rwgt            1           1   2.6691476914684566E-002           2       67446           0
</event>
<event>
      5   9999  3.19816E-02  2.09019E+02 -1.00000E+00  1.10955E-01
       4    -1     0     0   502     0  0.000000000E+00  0.000000000E+00  9.600668888E+02  9.600668888E+02  0.000000000E+00  0.00000E+00  9.000E+00
      21    -1     0     0   501   502  0.000000000E+00  0.000000000E+00 -2.957506896E+02  2.957506896E+02  0.000000000E+00  0.00000E+00  9.000E+00
      25     1     1     2     0     0  8.963005381E+01 -9.721939628E+01  2.341169373E+02  2.965145830E+02  1.250000000E+02  0.00000E+00  9.000E+00
      25     1     1     2     0     0 -2.660957731E+02 -1.480192537E+01 -1.586929244E+02  3.344166588E+02  1.250000000E+02  0.00000E+00  9.000E+00
       4     1     1     2   501     0  1.764657192E+02  1.120213216E+02  5.888921863E+02  6.248863366E+02  7.629394531E-06  0.00000E+00  9.000E+00
#rwgt            1           1   2.6247445377655915E-002           2       67646           0
</event>
<event>
      5   9999  3.19816E-02  4.05691E+01 -1.00000E+00  1.44461E-01
      21    -1     0     0   502   511  0.000000000E+00  0.000000000E+00  9.857566095E+02  9.857566095E+02  0.000000000E+00  0.00000E+00  9.000E+00
      21    -1     0     0   501   502  0.000000000E+00  0.000000000E+00 -4.400051318E+02  4.400051318E+02  0.000000000E+00  0.00000E+00  9.000E+00
      25     1     1     2     0     0  2.163260896E+02  5.342621598E+02  1.877437786E+02  6.189553771E+02  1.250000000E+02  0.00000E+00  9.000E+00
      25     1     1     2     0     0 -1.898421864E+02 -5.035301166E+02  1.199646562E+02  5.653310117E+02  1.250000000E+02  0.00000E+00  9.000E+00
      21     1     1     2   501   511 -2.648390318E+01 -3.073204321E+01  2.380430429E+02  2.414753525E+02  2.697398305E-06  0.00000E+00  9.000E+00
#rwgt            1           1   2.6868384975106734E-002           2       67689           0
</event>
<event>
      5   9999  3.19816E-02  1.19478E+02 -1.00000E+00  1.20449E-01
      21    -1     0     0   502   501  0.000000000E+00  0.000000000E+00  5.344265163E+02  5.344265163E+02  0.000000000E+00  0.00000E+00  9.000E+00
       1    -1     0     0   501     0  0.000000000E+00  0.000000000E+00 -2.588712693E+02  2.588712693E+02  0.000000000E+00  0.00000E+00  9.000E+00
      25     1     1     2     0     0  2.271982171E+02 -3.762274602E+00  1.851355499E+02  3.186429921E+02  1.250000000E+02  0.00000E+00  9.000E+00
      25     1     1     2     0     0 -3.120087665E+02 -8.039282664E+01  5.430226010E+01  3.498374085E+02  1.250000000E+02  0.00000E+00  9.000E+00
       1     1     1     2   502     0  8.481054937E+01  8.415510124E+01  3.611743700E+01  1.248173850E+02  2.336015456E-06  0.00000E+00  9.000E+00
#rwgt            1           1   2.6455214808533335E-002           2       67835           0
</event>
<event>
      5   9999  3.19816E-02  8.62307E+01 -1.00000E+00  1.26793E-01
      21    -1     0     0   502   501  0.000000000E+00  0.000000000E+00  4.161136422E+02  4.161136422E+02  0.000000000E+00  0.00000E+00  9.000E+00
      21    -1     0     0   501   511  0.000000000E+00  0.000000000E+00 -7.787989865E+02  7.787989865E+02  0.000000000E+00  0.00000E+00  9.000E+00
      25     1     1     2     0     0 -1.044076712E+02  3.907585796E+02  1.922112662E+02  4.649337589E+02  1.250000000E+02  0.00000E+00  9.000E+00
      25     1     1     2     0     0  1.636354774E+02 -3.280864277E+02 -4.688043432E+02  6.081280998E+02  1.250000000E+02  0.00000E+00  9.000E+00
      21     1     1     2   502   511 -5.922780617E+01 -6.267215191E+01 -8.609226735E+01  1.218507700E+02  0.000000000E+00  0.00000E+00  9.000E+00
#rwgt            1           1   2.4126176758816755E-002           2       67884           0
</event>
<event>
      5   9999  3.19816E-02  2.12312E+01 -1.00000E+00  1.64256E-01
      21    -1     0     0   502   501  0.000000000E+00  0.000000000E+00  3.432881701E+02  3.432881701E+02  0.000000000E+00  0.00000E+00  9.000E+00
      21    -1     0     0   512   502  0.000000000E+00  0.000000000E+00 -4.022425067E+02  4.022425067E+02  0.000000000E+00  0.00000E+00  9.000E+00
      25     1     1     2     0     0 -1.966024015E+02 -2.592313172E+02  1.006667174E+01  3.486828329E+02  1.250000000E+02  0.00000E+00  9.000E+00
      25     1     1     2     0     0  2.048243779E+02  2.788059194E+02 -5.638951420E+01  3.721431765E+02  1.250000000E+02  0.00000E+00  9.000E+00
      21     1     1     2   512   501 -8.221976450E+00 -1.957460220E+01 -1.263149416E+01  2.470466742E+01  2.920019320E-07  0.00000E+00  9.000E+00
#rwgt            1           1   2.8220541558461789E-002           2       67987           0
</event>
<event>
      5   9999  3.19816E-02  3.92486E+01 -1.00000E+00  1.45353E-01
      21    -1     0     0   502   501  0.000000000E+00  0.000000000E+00  4.526206659E+02  4.526206659E+02  0.000000000E+00  0.00000E+00  9.000E+00
      -1    -1     0     0     0   502  0.000000000E+00  0.000000000E+00 -7.408542344E+02  7.408542344E+02  0.000000000E+00  0.00000E+00  9.000E+00
      25     1     1     2     0     0 -1.457167019E+02  1.354610116E+02 -1.777821043E+01  2.356355398E+02  1.250000000E+02  0.00000E+00  9.000E+00
      25     1     1     2     0     0  1.624275467E+02 -1.709743503E+02  2.910839321E+02  3.949301102E+02  1.250000000E+02  0.00000E+00  9.000E+00
      -1     1     1     2     0   501 -1.671084486E+01  3.551333865E+01 -5.615392902E+02  5.629092502E+02  1.078959322E-05  0.00000E+00  9.000E+00
#rwgt            1           1   2.7477262716889477E-002           2       68217           0
</event>
<event>
      5   9999  3.19816E-02  1.35570E+01 -1.00000E+00  1.81625E-01
      21    -1     0     0   502   511  0.000000000E+00  0.000000000E+00  1.534656018E+03  1.534656018E+03  0.000000000E+00  0.00000E+00  9.000E+00
      21    -1     0     0   501   502  0.000000000E+00  0.000000000E+00 -7.570917076E+01  7.570917076E+01  0.000000000E+00  0.00000E+00  9.000E+00
      25     1     1     2     0     0  1.106860300E+02  4.468701705E+01  9.477931985E+01  1.971203851E+02  1.250000000E+02  0.00000E+00  9.000E+00
      25     1     1     2     0     0 -1.103917639E+02 -5.824078607E+01  2.939614383E+02  3.429528509E+02  1.250000000E+02  0.00000E+00  9.000E+00
      21     1     1     2   501   511 -2.942661751E-01  1.355376902E+01  1.070206089E+03  1.070291953E+03  1.525878906E-05  0.00000E+00  9.000E+00
#rwgt            1           1   2.8183046040474061E-002           2       68328           0
</event>
<event>
      5   9999  3.19816E-02  3.77503E+01 -1.00000E+00  1.46417E-01
      21    -1     0     0   502   512  0.000000000E+00  0.000000000E+00  3.735540907E+02  3.735540907E+02  0.000000000E+00  0.00000E+00  9.000E+00
      21    -1     0     0   501   502  0.000000000E+00  0.000000000E+00 -4.187285597E+02  4.187285597E+02  0.000000000E+00  0.00000E+00  9.000E+00
      25     1     1     2     0     0  3.283414813E+02 -5.261839503E+01  4.434805558E+01  3.580063881E+02  1.250000000E+02  0.00000E+00  9.000E+00
      25     1     1     2     0     0 -3.624394379E+02  3.641928653E+01 -9.354155189E+01  3.963126701E+02  1.250000000E+02  0.00000E+00  9.000E+00
      21     1     1     2   501   512  3.409795650E+01  1.619910850E+01  4.019027391E+00  3.796359223E+01  5.591411304E-07  0.00000E+00  9.000E+00
#rwgt            1           1   2.8358242453716341E-002           2       68583           0
</event>
<event>
      5   9999  3.19816E-02  9.37296E+01 -1.00000E+00  1.25106E-01
      21    -1     0     0   502   511  0.000000000E+00  0.000000000E+00  1.236350637E+03  1.236350637E+03  0.000000000E+00  0.00000E+00  9.000E+00
      21    -1     0     0   501   502  0.000000000E+00  0.000000000E+00 -1.261927051E+03  1.261927051E+03  0.000000000E+00  0.00000E+00  9.000E+00
      25     1     1     2     0     0  3.797357154E+02  3.786267016E+02 -1.079753524E+03  1.212043755E+03  1.250000000E+02  0.00000E+00  9.000E+00
      25     1     1     2     0     0 -4.607156096E+02 -4.258231074E+02  9.579585049E+02  1.151908715E+03  1.250000000E+02  0.00000E+00  9.000E+00
      21     1     1     2   501   511  8.097989419E+01  4.719640579E+01  9.621860460E+01  1.343252167E+02  1.907348633E-06  0.00000E+00  9.000E+00
#rwgt            1           1   3.6844624966688520E-002           2       68767           0
</event>
<event>
      5   9999  3.19816E-02  3.24104E+01 -1.00000E+00  1.50745E-01
      21    -1     0     0   502   501  0.000000000E+00  0.000000000E+00  3.092242755E+02  3.092242755E+02  0.000000000E+00  0.00000E+00  9.000E+00
      21    -1     0     0   501   512  0.000000000E+00  0.000000000E+00 -3.295315114E+02  3.295315114E+02  0.000000000E+00  0.00000E+00  9.000E+00
      25     1     1     2     0     0 -1.329551736E+01 -2.644503482E+02 -2.590326675E+01  2.939502282E+02  1.250000000E+02  0.00000E+00  9.000E+00
      25     1     1     2     0     0 -1.459975822E+01  2.479492246E+02  5.718681190E+01  2.838790277E+02  1.250000000E+02  0.00000E+00  9.000E+00
      21     1     1     2   502   512  2.789527558E+01  1.650112360E+01 -5.159078105E+01  6.092653091E+01  9.536743164E-07  0.00000E+00  9.000E+00
#rwgt            1           1   2.4692459436745237E-002           2       68883           0
</event>
<event>
      5   9999  3.19816E-02  3.26794E+01 -1.00000E+00  1.50503E-01
      21    -1     0     0   502   501  0.000000000E+00  0.000000000E+00  6.830351545E+02  6.830351545E+02  0.000000000E+00  0.00000E+00  9.000E+00
      21    -1     0     0   511   502  0.000000000E+00  0.000000000E+00 -2.654311861E+02  2.654311861E+02  0.000000000E+00  0.00000E+00  9.000E+00
      25     1     1     2     0     0 -1.419440965E+02  3.049596413E+02  4.370332626E+02  5.654834940E+02  1.250000000E+02  0.00000E+00  9.000E+00
      25     1     1     2     0     0  1.092702259E+02 -3.055592482E+02 -6.425688313E+00  3.478113366E+02  1.250000000E+02  0.00000E+00  9.000E+00
      21     1     1     2   511   501  3.267387061E+01  5.996069216E-01 -1.300360594E+01  3.517151002E+01  3.371747881E-07  0.00000E+00  9.000E+00
#rwgt            1           1   2.9847306271700673E-002           2       68975           0
</event>
<event>
      5   9999  3.19816E-02  9.66226E+01 -1.00000E+00  1.24503E-01
      21    -1     0     0   512   501  0.000000000E+00  0.000000000E+00  6.176750472E+02  6.176750472E+02  0.000000000E+00  0.00000E+00  9.000E+00
      21    -1     0     0   501   502  0.000000000E+00  0.000000000E+00 -5.945449543E+02  5.945449543E+02  0.000000000E+00  0.00000E+00  9.000E+00
      25     1     1     2     0     0  3.925276764E+02  1.335863572E+02 -5.071185947E+01  4.360275040E+02  1.250000000E+02  0.00000E+00  9.000E+00
      25     1     1     2     0     0 -4.124604589E+02 -3.904209086E+01 -2.066249877E+02  4.795485382E+02  1.250000000E+02  0.00000E+00  9.000E+00
      21     1     1     2   512   502  1.993278247E+01 -9.454426636E+01  2.804669400E+02  2.966439592E+02  3.814697266E-06  0.00000E+00  9.000E+00
#rwgt            1           1   2.7345787998191092E-002           2       69104           0
</event>
<event>
      5   9999  3.19816E-02  1.01792E+02 -1.00000E+00  1.23482E-01
      21    -1     0     0   502   501  0.000000000E+00  0.000000000E+00  1.686096127E+02  1.686096127E+02  0.000000000E+00  0.00000E+00  9.000E+00
       2    -1     0     0   501     0  0.000000000E+00  0.000000000E+00 -8.416698196E+02  8.416698196E+02  0.000000000E+00  0.00000E+00  9.000E+00
      25     1     1     2     0     0 -1.641187331E+02  2.733395585E+02 -2.581833455E+02  4.288742388E+02  1.250000000E+02  0.00000E+00  9.000E+00
      25     1     1     2     0     0  1.096938888E+02 -1.873194436E+02 -1.370826350E+02  2.855485458E+02  1.250000000E+02  0.00000E+00  9.000E+00
       2     1     1     2   502     0  5.442484425E+01 -8.602011484E+01 -2.777942263E+02  2.958566477E+02  7.629394531E-06  0.00000E+00  9.000E+00
#rwgt            1           1   2.9499272454269702E-002           2       69223           0
</event>
<event>
      5   9999  3.19816E-02  1.00749E+02 -1.00000E+00  1.23682E-01
      21    -1     0     0   502   511  0.000000000E+00  0.000000000E+00  3.190904846E+02  3.190904846E+02  0.000000000E+00  0.00000E+00  9.000E+00
      21    -1     0     0   501   502  0.000000000E+00  0.000000000E+00 -2.104463252E+02  2.104463252E+02  0.000000000E+00  0.00000E+00  9.000E+00
      25     1     1     2     0     0 -9.919374039E+01 -1.478934057E+02 -7.381027988E+00  2.176955148E+02  1.250000000E+02  0.00000E+00  9.000E+00
      25     1     1     2     0     0  5.747072352E+01  5.618929533E+01 -1.180723651E+01  1.490789449E+02  1.250000000E+02  0.00000E+00  9.000E+00
      21     1     1     2   501   511  4.172301688E+01  9.170411039E+01  1.278324239E+02  1.627623501E+02  2.697398305E-06  0.00000E+00  9.000E+00
#rwgt            1           1   2.6060350540184060E-002           2       69302           0
</event>
<event>
      5   9999  3.19816E-02  6.81044E+01 -1.00000E+00  1.31827E-01
      21    -1     0     0   502   501  0.000000000E+00  0.000000000E+00  1.519201152E+02  1.519201152E+02  0.000000000E+00  0.00000E+00  9.000E+00
      21    -1     0     0   501   512  0.000000000E+00  0.000000000E+00 -9.222791376E+02  9.222791376E+02  0.000000000E+00  0.00000E+00  9.000E+00
      25     1     1     2     0     0 -1.065403909E+02  1.857857943E+02 -7.016689110E+02  7.441985467E+02  1.250000000E+02  0.00000E+00  9.000E+00
      25     1     1     2     0     0  4.442513041E+01 -1.578589703E+02  3.176947914E+01  2.086320841E+02  1.250000000E+02  0.00000E+00  9.000E+00
      21     1     1     2   502   512  6.211526048E+01 -2.792682400E+01 -1.004595905E+02  1.213686220E+02  1.348699152E-06  0.00000E+00  9.000E+00
#rwgt            1           1   3.3380767663527718E-002           2       69382           0
</event>
<event>
      5   9999  3.19816E-02  6.20517E+01 -1.00000E+00  1.33928E-01
      21    -1     0     0   502   511  0.000000000E+00  0.000000000E+00  3.020471256E+02  3.020471256E+02  0.000000000E+00  0.00000E+00  9.000E+00
      21    -1     0     0   501   502  0.000000000E+00  0.000000000E+00 -6.356877799E+02  6.356877799E+02  0.000000000E+00  0.00000E+00  9.000E+00
      25     1     1     2     0     0  1.632183991E+02 -3.284084295E+02 -1.282883765E+02  4.081363129E+02  1.250000000E+02  0.00000E+00  9.000E+00
      25     1     1     2     0     0 -1.011667074E+02  3.283807968E+02 -2.585873892E+02  4.478404719E+02  1.250000000E+02  0.00000E+00  9.000E+00
      21     1     1     2   501   511 -6.205169172E+01  2.763276570E-02  5.323511149E+01  8.175812072E+01  1.168007728E-06  0.00000E+00  9.000E+00
#rwgt            1           1   2.9982439931785801E-002           2       69452           0
</event>
<event>
      5   9999  3.19816E-02  4.24173E+01 -1.00000E+00  1.43277E-01
      21    -1     0     0   502   501  0.000000000E+00  0.000000000E+00  6.731947243E+02  6.731947243E+02  0.000000000E+00  0.00000E+00  9.000E+00
      21    -1     0     0   512   502  0.000000000E+00  0.000000000E+00 -4.628646031E+02  4.628646031E+02  0.000000000E+00  0.00000E+00  9.000E+00
      25     1     1     2     0     0 -1.807585316E+02  4.175537750E+02  3.487396274E+02  5.867445180E+02  1.250000000E+02  0.00000E+00  9.000E+00
      25     1     1     2     0     0  2.231217525E+02 -4.154133960E+02 -1.163820860E+02  5.015190883E+02  1.250000000E+02  0.00000E+00  9.000E+00
      21     1     1     2   512   501 -4.236322093E+01 -2.140378983E+00 -2.202742017E+01  4.779572103E+01  4.129530925E-07  0.00000E+00  9.000E+00
#rwgt            1           1   2.9730192108054446E-002           2       69596           0
</event>
<event>
      5   9999  3.19816E-02  3.44056E+01 -1.00000E+00  1.49018E-01
      21    -1     0     0   511   501  0.000000000E+00  0.000000000E+00  7.430400596E+02  7.430400596E+02  0.000000000E+00  0.00000E+00  9.000E+00
      21    -1     0     0   501   502  0.000000000E+00  0.000000000E+00 -1.138075317E+02  1.138075317E+02  0.000000000E+00  0.00000E+00  9.000E+00
      25     1     1     2     0     0  2.548325132E+01  2.375048175E+01 -5.964137888E+01  1.428130791E+02  1.250000000E+02  0.00000E+00  9.000E+00
      25     1     1     2     0     0 -4.915816636E+01  1.214420173E+00  3.759719474E+02  3.992466723E+02  1.250000000E+02  0.00000E+00  9.000E+00
      21     1     1     2   511   502  2.367491504E+01 -2.496490192E+01  3.129019595E+02  3.147878399E+02  3.814697266E-06  0.00000E+00  9.000E+00
#rwgt            1           1   2.8666629997590072E-002           2       69805           0
</event>
<event>
      5   9999  3.19816E-02  1.75365E+01 -1.00000E+00  1.71221E-01
      21    -1     0     0   502   512  0.000000000E+00  0.000000000E+00  4.451767069E+01  4.451767069E+01  0.000000000E+00  0.00000E+00  9.000E+00
      21    -1     0     0   501   502  0.000000000E+00  0.000000000E+00 -1.201816944E+03  1.201816944E+03  0.000000000E+00  0.00000E+00  9.000E+00
      25     1     1     2     0     0 -8.045455132E+01  1.504479032E+02 -6.524205615E+02  6.858462623E+02  1.250000000E+02  0.00000E+00  9.000E+00
      25     1     1     2     0     0  8.408225246E+01 -1.676050598E+02 -4.769451143E+02  5.275063254E+02  1.250000000E+02  0.00000E+00  9.000E+00
      21     1     1     2   501   512 -3.627701135E+00  1.715715658E+01 -2.793359734E+01  3.298202689E+01  5.840038640E-07  0.00000E+00  9.000E+00
#rwgt            1           1   3.7019379438536913E-002           2       69909           0
</event>
<event>
      5   9999  3.19816E-02  4.76515E+01 -1.00000E+00  1.40278E-01
      21    -1     0     0   502   501  0.000000000E+00  0.000000000E+00  3.794707714E+02  3.794707714E+02  0.000000000E+00  0.00000E+00  9.000E+00
      21    -1     0     0   511   502  0.000000000E+00  0.000000000E+00 -1.274004439E+03  1.274004439E+03  0.000000000E+00  0.00000E+00  9.000E+00
      25     1     1     2     0     0  3.693631144E+02 -6.820982246E+01  8.136474476E+01  4.041372438E+02  1.250000000E+02  0.00000E+00  9.000E+00
      25     1     1     2     0     0 -3.791593785E+02  2.157612917E+01 -1.577624782E+02  4.298154990E+02  1.250000000E+02  0.00000E+00  9.000E+00
      21     1     1     2   511   501  9.796264131E+00  4.663369329E+01 -8.181359341E+02  8.195224676E+02  1.078959322E-05  0.00000E+00  9.000E+00
#rwgt            1           1   2.4248029071485371E-002           2       70059           0
</event>
<event>
      5   9999  3.19816E-02  3.79363E+01 -1.00000E+00  1.46282E-01
      21    -1     0     0   502   501  0.000000000E+00  0.000000000E+00  3.016435740E+02  3.016435740E+02  0.000000000E+00  0.00000E+00  9.000E+00
      21    -1     0     0   512   502  0.000000000E+00  0.000000000E+00 -1.830817260E+02  1.830817260E+02  0.000000000E+00  0.00000E+00  9.000E+00
      25     1     1     2     0     0  2.784721853E+01 -4.645674555E+01  2.218045673E+02  2.602997557E+02  1.250000000E+02  0.00000E+00  9.000E+00
      25     1     1     2     0     0 -6.010615909E+01  6.641971505E+01 -1.053866783E+02  1.864287555E+02  1.250000000E+02  0.00000E+00  9.000E+00
      21     1     1     2   512   501  3.225894055E+01 -1.996296950E+01  2.143959125E+00  3.799678878E+01  4.759049244E-07  0.00000E+00  9.000E+00
#rwgt            1           1   2.6639415719872692E-002           2       70161           0
</event>
<event>
      5   9999  3.19816E-02  5.28119E+01 -1.00000E+00  1.37733E-01
      21    -1     0     0   511   501  0.000000000E+00  0.000000000E+00  7.982330857E+01  7.982330857E+01  0.000000000E+00  0.00000E+00  9.000E+00
      21    -1     0     0   501   502  0.000000000E+00  0.000000000E+00 -2.699282923E+03  2.699282923E+03  0.000000000E+00  0.00000E+00  9.000E+00
      25     1     1     2     0     0 -2.930667763E+02  3.773118046E+01 -4.705972028E+02  5.695599219E+02  1.250000000E+02  0.00000E+00  9.000E+00
      25     1     1     2     0     0  2.685184416E+02 -8.449095414E+01 -2.131962794E+03  2.154096384E+03  1.250000000E+02  0.00000E+00  9.000E+00
      21     1     1     2   511   502  2.454833476E+01  4.675977369E+01 -1.689961696E+01  5.544992541E+01  9.233911863E-07  0.00000E+00  9.000E+00
#rwgt            1           1   6.1728454865250880E-002           2       70287           0
</event>
<event>
      5   9999  3.19816E-02  6.15483E+01 -1.00000E+00  1.34115E-01
      21    -1     0     0   502   501  0.000000000E+00  0.000000000E+00  1.047127070E+03  1.047127070E+03  0.000000000E+00  0.00000E+00  9.000E+00
      21    -1     0     0   501   512  0.000000000E+00  0.000000000E+00 -1.809744497E+02  1.809744497E+02  0.000000000E+00  0.00000E+00  9.000E+00
      25     1     1     2     0     0  3.687677642E+01  1.218917714E+01  9.441425252E+02  9.531729017E+02  1.250000000E+02  0.00000E+00  9.000E+00
      25     1     1     2     0     0  2.366804943E+01 -1.120268970E+00 -1.388832432E+02  1.883480470E+02  1.250000000E+02  0.00000E+00  9.000E+00
      21     1     1     2   502   512 -6.054482585E+01 -1.106890817E+01  6.089333873E+01  8.658057153E+01  6.743495762E-07  0.00000E+00  9.000E+00
#rwgt            2          11   4.2008087967425221E-003           2       70441           0
</event>
<event>
      5   9999  3.19816E-02  4.10481E+01 -1.00000E+00  1.44147E-01
      21    -1     0     0   502   501  0.000000000E+00  0.000000000E+00  7.155010678E+02  7.155010678E+02  0.000000000E+00  0.00000E+00  9.000E+00
      21    -1     0     0   511   502  0.000000000E+00  0.000000000E+00 -8.130299529E+02  8.130299529E+02  0.000000000E+00  0.00000E+00  9.000E+00
      25     1     1     2     0     0 -5.733080512E+02  3.275734404E+02 -1.500892563E+02  6.885769858E+02  1.250000000E+02  0.00000E+00  9.000E+00
      25     1     1     2     0     0  5.669967829E+02 -3.681334483E+02  1.761791725E+02  7.096983080E+02  1.250000000E+02  0.00000E+00  9.000E+00
      21     1     1     2   511   501  6.311268351E+00  4.056000790E+01 -1.236188013E+02  1.302557269E+02  2.336015456E-06  0.00000E+00  9.000E+00
#rwgt            1           1   3.0370718791121118E-002           2       70476           0
</event>
<event>
      5   9999  3.19816E-02  1.97039E+01 -1.00000E+00  1.66905E-01
      21    -1     0     0   512   501  0.000000000E+00  0.000000000E+00  7.951620077E+02  7.951620077E+02  0.000000000E+00  0.00000E+00  9.000E+00
      21    -1     0     0   501   502  0.000000000E+00  0.000000000E+00 -7.819354367E+01  7.819354367E+01  0.000000000E+00  0.00000E+00  9.000E+00
      25     1     1     2     0     0 -8.525140115E+01 -3.469683406E+01  5.156727141E+01  1.635721711E+02  1.250000000E+02  0.00000E+00  9.000E+00
      25     1     1     2     0     0  7.879421007E+01  1.608104314E+01  2.294374705E+02  2.733746155E+02  1.250000000E+02  0.00000E+00  9.000E+00
      21     1     1     2   512   502  6.457191082E+00  1.861579092E+01  4.359637221E+02  4.364087648E+02  0.000000000E+00  0.00000E+00  9.000E+00
#rwgt            1           1   3.1339905322566634E-002           2       70612           0
</event>
<event>
      5   9999  3.19816E-02  7.35162E+01 -1.00000E+00  1.30152E-01
      21    -1     0     0   502   501  0.000000000E+00  0.000000000E+00  1.353461177E+03  1.353461177E+03  0.000000000E+00  0.00000E+00  9.000E+00
      21    -1     0     0   501   511  0.000000000E+00  0.000000000E+00 -1.766396728E+02  1.766396728E+02  0.000000000E+00  0.00000E+00  9.000E+00
      25     1     1     2     0     0  2.301949238E+02 -1.673871103E+02  1.158702690E+03  1.199677070E+03  1.250000000E+02  0.00000E+00  9.000E+00
      25     1     1     2     0     0 -1.735178150E+02  1.205647545E+02  4.958685232E+01  2.504558805E+02  1.250000000E+02  0.00000E+00  9.000E+00
      21     1     1     2   502   511 -5.667710876E+01  4.682235587E+01 -3.146803753E+01  7.996790014E+01  2.384185791E-06  0.00000E+00  9.000E+00
#rwgt            1           1   3.0573948839157785E-002           2       70749           0
</event>
<event>
      5   9999  3.19816E-02  1.67126E+02 -1.00000E+00  1.14563E-01
      21    -1     0     0   502   512  0.000000000E+00  0.000000000E+00  1.111413217E+02  1.111413217E+02  0.000000000E+00  0.00000E+00  9.000E+00
      21    -1     0     0   501   502  0.000000000E+00  0.000000000E+00 -1.884774779E+03  1.884774779E+03  0.000000000E+00  0.00000E+00  9.000E+00
      25     1     1     2     0     0  1.884832586E+02 -6.150458640E+01 -1.542019621E+03  1.559730189E+03  1.250000000E+02  0.00000E+00  9.000E+00
      25     1     1     2     0     0 -4.335852848E+01 -2.138088448E+01  1.858248789E+01  1.353048893E+02  1.250000000E+02  0.00000E+00  9.000E+00
      21     1     1     2   501   512 -1.451247301E+02  8.288547089E+01 -2.501963241E+02  3.008810216E+02  4.672030912E-06  0.00000E+00  9.000E+00
#rwgt            1           1   2.8574203088687088E-002           2       70812           0
</event>
<event>
      5   9999  3.19816E-02  1.66687E+02 -1.00000E+00  1.14607E-01
      21    -1     0     0   502   501  0.000000000E+00  0.000000000E+00  4.796965310E+02  4.796965310E+02  0.000000000E+00  0.00000E+00  9.000E+00
      21    -1     0     0   511   502  0.000000000E+00  0.000000000E+00 -2.838016486E+02  2.838016486E+02  0.000000000E+00  0.00000E+00  9.000E+00
      25     1     1     2     0     0 -8.185891900E+01  5.407310243E+01  3.190176037E+02  3.564014794E+02  1.250000000E+02  0.00000E+00  9.000E+00
      25     1     1     2     0     0  5.598690945E+01  1.105937806E+02  3.254510879E+01  1.790243069E+02  1.250000000E+02  0.00000E+00  9.000E+00
      21     1     1     2   511   501  2.587200954E+01 -1.646668830E+02 -1.556678302E+02  2.280723933E+02  4.672030912E-06  0.00000E+00  9.000E+00
#rwgt            2          11   5.7357324627838706E-003           2       70918           0
</event>
<event>
      5   9999  3.19816E-02  4.44244E+01 -1.00000E+00  1.42070E-01
      21    -1     0     0   502   501  0.000000000E+00  0.000000000E+00  2.839921889E+02  2.839921889E+02  0.000000000E+00  0.00000E+00  9.000E+00
      21    -1     0     0   501   512  0.000000000E+00  0.000000000E+00 -3.306646494E+02  3.306646494E+02  0.000000000E+00  0.00000E+00  9.000E+00
      25     1     1     2     0     0  2.651645828E+02 -2.393344093E+01  2.673626557E+00  2.941380863E+02  1.250000000E+02  0.00000E+00  9.000E+00
      25     1     1     2     0     0 -2.387229575E+02 -1.176479716E+01 -2.782894596E+01  2.711577237E+02  1.250000000E+02  0.00000E+00  9.000E+00
      21     1     1     2   502   512 -2.644162525E+01  3.569823809E+01 -2.151714110E+01  4.936102825E+01  5.331201500E-07  0.00000E+00  9.000E+00
#rwgt            1           1   2.6186701885566717E-002           2       70953           0
</event>
<event>
      5   9999  3.19816E-02  4.74636E+01 -1.00000E+00  1.40378E-01
      21    -1     0     0   511   501  0.000000000E+00  0.000000000E+00  4.284214147E+02  4.284214147E+02  0.000000000E+00  0.00000E+00  9.000E+00
      21    -1     0     0   501   502  0.000000000E+00  0.000000000E+00 -1.603397879E+02  1.603397879E+02  0.000000000E+00  0.00000E+00  9.000E+00
      25     1     1     2     0     0  1.153283043E+02  7.532824301E+01 -3.075389502E+01  1.885358428E+02  1.250000000E+02  0.00000E+00  9.000E+00
      25     1     1     2     0     0 -8.111506060E+01 -4.243068530E+01  7.633660372E+01  1.727202744E+02  1.250000000E+02  0.00000E+00  9.000E+00
      21     1     1     2   511   502 -3.421324369E+01 -3.289755771E+01  2.224989181E+02  2.275050854E+02  0.000000000E+00  0.00000E+00  9.000E+00
#rwgt            1           1   3.1070513424362772E-002           2       71048           0
</event>
<event>
      5   9999  3.19816E-02  3.91627E+02 -1.00000E+00  1.01963E-01
      21    -1     0     0   502   501  0.000000000E+00  0.000000000E+00  1.029659168E+03  1.029659168E+03  0.000000000E+00  0.00000E+00  9.000E+00
      21    -1     0     0   512   502  0.000000000E+00  0.000000000E+00 -4.754839542E+02  4.754839542E+02  0.000000000E+00  0.00000E+00  9.000E+00
      25     1     1     2     0     0  3.009960711E+02  4.805058448E+02  5.237384145E+02  7.819280201E+02  1.250000000E+02  0.00000E+00  9.000E+00
      25     1     1     2     0     0 -8.828829939E+01 -1.516795684E+02  2.022852183E+02  2.955432706E+02  1.250000000E+02  0.00000E+00  9.000E+00
      21     1     1     2   512   501 -2.127077717E+02 -3.288262765E+02 -1.718484190E+02  4.276718314E+02  6.607249480E-06  0.00000E+00  9.000E+00
#rwgt            2          11   3.6671640498334955E-003           2       71174           0
</event>
<event>
      5   9999  3.19816E-02  8.59740E+01 -1.00000E+00  1.26854E-01
      21    -1     0     0   511   501  0.000000000E+00  0.000000000E+00  1.235694344E+03  1.235694344E+03  0.000000000E+00  0.00000E+00  9.000E+00
      21    -1     0     0   501   502  0.000000000E+00  0.000000000E+00 -4.303164524E+02  4.303164524E+02  0.000000000E+00  0.00000E+00  9.000E+00
      25     1     1     2     0     0 -2.944236546E+02  4.218993961E+02  6.342093171E+02  8.261542512E+02  1.250000000E+02  0.00000E+00  9.000E+00
      25     1     1     2     0     0  3.665500985E+02 -4.686893783E+02 -4.256484808E+01  6.094796751E+02  1.250000000E+02  0.00000E+00  9.000E+00
      21     1     1     2   511   502 -7.212644392E+01  4.678998212E+01  2.137334222E+02  2.303768698E+02  2.697398305E-06  0.00000E+00  9.000E+00
#rwgt            1           1   2.5587511050117868E-002           2       71194           0
</event>
<event>
      5   9999  3.19816E-02  2.71320E+01 -1.00000E+00  1.56134E-01
      21    -1     0     0   512   501  0.000000000E+00  0.000000000E+00  2.277032006E+02  2.277032006E+02  0.000000000E+00  0.00000E+00  9.000E+00
      21    -1     0     0   501   502  0.000000000E+00  0.000000000E+00 -6.350095592E+02  6.350095592E+02  0.000000000E+00  0.00000E+00  9.000E+00
      25     1     1     2     0     0 -1.753229473E+02 -3.919390079E+01  6.560576260E+01  2.284806640E+02  1.250000000E+02  0.00000E+00  9.000E+00
      25     1     1     2     0     0  1.997698243E+02  2.742549735E+01 -5.246578516E+02  5.758046560E+02  1.250000000E+02  0.00000E+00  9.000E+00
      21     1     1     2   512   502 -2.444687699E+01  1.176840344E+01  5.174573043E+01  5.842743989E+01  1.507891493E-06  0.00000E+00  9.000E+00
#rwgt            1           1   2.7186873901453149E-002           2       71350           0
</event>
<event>
      5   9999  3.19816E-02  3.73468E+01 -1.00000E+00  1.46713E-01
      21    -1     0     0   511   501  0.000000000E+00  0.000000000E+00  2.592055764E+03  2.592055764E+03  0.000000000E+00  0.00000E+00  9.000E+00
      21    -1     0     0   501   502  0.000000000E+00  0.000000000E+00 -4.832227243E+01  4.832227243E+01  0.000000000E+00  0.00000E+00  9.000E+00
      25     1     1     2     0     0 -1.508395346E+02 -2.269715039E+02  5.838467603E+02  6.563312185E+02  1.250000000E+02  0.00000E+00  9.000E+00
      25     1     1     2     0     0  1.375880296E+02  1.920547024E+02  1.593401918E+03  1.615663996E+03  1.250000000E+02  0.00000E+00  9.000E+00
      21     1     1     2   511   502  1.325150504E+01  3.491680151E+01  3.664848125E+02  3.683828215E+02  5.394796609E-06  0.00000E+00  9.000E+00
#rwgt            1           1   8.2763143509120451E-002           2       71464           0
</event>
<event>
      5   9999  3.19816E-02  1.21281E+02 -1.00000E+00  1.20173E-01
      21    -1     0     0   502   501  0.000000000E+00  0.000000000E+00  3.712862564E+02  3.712862564E+02  0.000000000E+00  0.00000E+00  9.000E+00
      21    -1     0     0   501   512  0.000000000E+00  0.000000000E+00 -1.048093334E+03  1.048093334E+03  0.000000000E+00  0.00000E+00  9.000E+00
      25     1     1     2     0     0  3.500297437E+02  3.684928307E+02 -2.312973633E+02  5.722160938E+02  1.250000000E+02  0.00000E+00  9.000E+00
      25     1     1     2     0     0 -3.874938004E+02 -2.531431987E+02 -1.120800271E+02  4.923615104E+02  1.250000000E+02  0.00000E+00  9.000E+00
      21     1     1     2   502   512  3.746405673E+01 -1.153496320E+02 -3.334296867E+02  3.548019858E+02  0.000000000E+00  0.00000E+00  9.000E+00
#rwgt            1           1   2.6091926025191111E-002           2       71605           0
</event>
<event>
      5   9999  3.19816E-02  4.47002E+01 -1.00000E+00  1.41910E-01
      21    -1     0     0   502   501  0.000000000E+00  0.000000000E+00  2.215336392E+02  2.215336392E+02  0.000000000E+00  0.00000E+00  9.000E+00
      21    -1     0     0   501   511  0.000000000E+00  0.000000000E+00 -4.469439020E+02  4.469439020E+02  0.000000000E+00  0.00000E+00  9.000E+00
      25     1     1     2     0     0  5.029458849E+00  2.029862242E+02 -1.044401965E+02  2.603103097E+02  1.250000000E+02  0.00000E+00  9.000E+00
      25     1     1     2     0     0 -8.833458561E+00 -2.475242293E+02  1.873906037E+00  2.774433016E+02  1.250000000E+02  0.00000E+00  9.000E+00
      21     1     1     2   502   511  3.803999712E+00  4.453800508E+01 -1.228439724E+02  1.307239300E+02  1.907348633E-06  0.00000E+00  9.000E+00
#rwgt            1           1   2.6929925176036696E-002           2       71667           0
</event>
<event>
      5   9999  3.19816E-02  2.09539E+02 -1.00000E+00  1.10916E-01
      21    -1     0     0   502   501  0.000000000E+00  0.000000000E+00  4.078824965E+02  4.078824965E+02  0.000000000E+00  0.00000E+00  9.000E+00
      21    -1     0     0   501   512  0.000000000E+00  0.000000000E+00 -4.887393247E+02  4.887393247E+02  0.000000000E+00  0.00000E+00  9.000E+00
      25     1     1     2     0     0  2.963340022E+01 -2.496473871E+02  6.882010602E+01  2.890729376E+02  1.250000000E+02  0.00000E+00  9.000E+00
      25     1     1     2     0     0 -1.674449697E+02  9.180369794E+01  1.264470596E+02  2.609206694E+02  1.250000000E+02  0.00000E+00  9.000E+00
      21     1     1     2   502   512  1.378115695E+02  1.578436891E+02 -2.761239938E+02  3.466282141E+02  5.394796609E-06  0.00000E+00  9.000E+00
#rwgt            1           1   2.6234908047335984E-002           2       71745           0
</event>
<event>
      5   9999  3.19816E-02  1.13385E+02 -1.00000E+00  1.21423E-01
      21    -1     0     0   511   501  0.000000000E+00  0.000000000E+00  1.969100889E+03  1.969100889E+03  0.000000000E+00  0.00000E+00  9.000E+00
      21    -1     0     0   501   502  0.000000000E+00  0.000000000E+00 -2.469804557E+03  2.469804557E+03  0.000000000E+00  0.00000E+00  9.000E+00
      25     1     1     2     0     0  8.826442571E+02  9.276967205E+02 -9.632194238E+01  1.290187973E+03  1.250000000E+02  0.00000E+00  9.000E+00
      25     1     1     2     0     0 -9.783213990E+02 -9.885408278E+02 -1.498766055E+03  2.048475144E+03  1.250000000E+02  0.00000E+00  9.000E+00
      21     1     1     2   511   502  9.567714186E+01  6.084410732E+01  1.094384329E+03  1.100242328E+03  0.000000000E+00  0.00000E+00  9.000E+00
#rwgt            1           1   3.7754700049660271E-002           2       71780           0
</event>
<event>
      5   9999  3.19816E-02  1.49509E+01 -1.00000E+00  1.77518E-01
       2    -1     0     0   502     0  0.000000000E+00  0.000000000E+00  8.051350516E+02  8.051350516E+02  0.000000000E+00  0.00000E+00  9.000E+00
      21    -1     0     0   501   502  0.000000000E+00  0.000000000E+00 -7.076162747E+01  7.076162747E+01  0.000000000E+00  0.00000E+00  9.000E+00
      25     1     1     2     0     0  3.283540415E+01  2.354482537E+01  3.047307842E+02  3.318408857E+02  1.250000000E+02  0.00000E+00  9.000E+00
      25     1     1     2     0     0 -2.852916336E+01 -3.786219773E+01  2.122231471E+01  1.353619068E+02  1.250000000E+02  0.00000E+00  9.000E+00
       2     1     1     2   501     0 -4.306240795E+00  1.431737235E+01  4.084203252E+02  4.086938866E+02  7.629394531E-06  0.00000E+00  9.000E+00
#rwgt            2          18   4.8624891875129959E-004           2       71970           0
</event>
<event>
      5   9999  3.19816E-02  6.74055E+01 -1.00000E+00  1.32057E-01
      21    -1     0     0   511   501  0.000000000E+00  0.000000000E+00  3.672672871E+02  3.672672871E+02  0.000000000E+00  0.00000E+00  9.000E+00
      21    -1     0     0   501   502  0.000000000E+00  0.000000000E+00 -1.506185334E+03  1.506185334E+03  0.000000000E+00  0.00000E+00  9.000E+00
      25     1     1     2     0     0 -5.475097058E+02  1.539226599E+02 -7.118018502E+02  9.196444623E+02  1.250000000E+02  0.00000E+00  9.000E+00
      25     1     1     2     0     0  5.019531359E+02 -2.036026082E+02 -5.697667656E+02  7.960340068E+02  1.250000000E+02  0.00000E+00  9.000E+00
      21     1     1     2   511   502  4.555656982E+01  4.967994830E+01  1.426505688E+02  1.577741521E+02  1.907348633E-06  0.00000E+00  9.000E+00
#rwgt            1           1   2.9531015211512801E-002           2       71989           0
</event>
<event>
      5   9999  3.19816E-02  4.67611E+01 -1.00000E+00  1.40756E-01
      21    -1     0     0   502   512  0.000000000E+00  0.000000000E+00  2.022856567E+02  2.022856567E+02  0.000000000E+00  0.00000E+00  9.000E+00
      21    -1     0     0   501   502  0.000000000E+00  0.000000000E+00 -1.689843025E+03  1.689843025E+03  0.000000000E+00  0.00000E+00  9.000E+00
      25     1     1     2     0     0 -3.044871605E+02  2.990807752E+02 -9.171194530E+02  1.019261906E+03  1.250000000E+02  0.00000E+00  9.000E+00
      25     1     1     2     0     0  2.587892990E+02 -2.891660082E+02 -6.577315403E+02  7.738376191E+02  1.250000000E+02  0.00000E+00  9.000E+00
      21     1     1     2   501   512  4.569786151E+01 -9.914767005E+00  8.729362455E+01  9.902915752E+01  1.907348633E-06  0.00000E+00  9.000E+00
#rwgt            1           1   3.0530501323511278E-002           2       72082           0
</event>
<event>
      5   9999  3.19816E-02  5.68398E+01 -1.00000E+00  1.35971E-01
      21    -1     0     0   502   511  0.000000000E+00  0.000000000E+00  1.284975763E+03  1.284975763E+03  0.000000000E+00  0.00000E+00  9.000E+00
      21    -1     0     0   501   502  0.000000000E+00  0.000000000E+00 -6.253331024E+02  6.253331024E+02  0.000000000E+00  0.00000E+00  9.000E+00
      25     1     1     2     0     0 -1.815523983E+02 -6.961961824E+02 -1.477827648E+02  7.450604964E+02  1.250000000E+02  0.00000E+00  9.000E+00
      25     1     1     2     0     0  2.027228328E+02  6.434460451E+02  4.908485287E+02  8.436092923E+02  1.250000000E+02  0.00000E+00  9.000E+00
      21     1     1     2   501   511 -2.117043450E+01  5.275013729E+01  3.165768967E+02  3.216390770E+02  3.814697266E-06  0.00000E+00  9.000E+00
#rwgt            1           1   3.4062312683192125E-002           2       72167           0
</event>
<event>
      5   9999  3.19816E-02  4.37642E+01 -1.00000E+00  1.42459E-01
      21    -1     0     0   512   501  0.000000000E+00  0.000000000E+00  2.318423124E+02  2.318423124E+02  0.000000000E+00  0.00000E+00  9.000E+00
      21    -1     0     0   501   502  0.000000000E+00  0.000000000E+00 -7.720059260E+02  7.720059260E+02  0.000000000E+00  0.00000E+00  9.000E+00
      25     1     1     2     0     0 -3.328717620E+02  5.887100119E+01 -4.983102612E+02  6.149857894E+02  1.250000000E+02  0.00000E+00  9.000E+00
      25     1     1     2     0     0  2.996150622E+02 -8.731909040E+01 -5.998254207E+01  3.414918951E+02  1.250000000E+02  0.00000E+00  9.000E+00
      21     1     1     2   512   502  3.325669985E+01  2.844808921E+01  1.812918966E+01  4.737055396E+01  5.331201500E-07  0.00000E+00  9.000E+00
#rwgt            1           1   2.7311206554628556E-002           2       72361           0
</event>
<event>
      5   9999  3.19816E-02  2.06115E+02 -1.00000E+00  1.11174E-01
      21    -1     0     0   502   501  0.000000000E+00  0.000000000E+00  9.108119542E+02  9.108119542E+02  0.000000000E+00  0.00000E+00  9.000E+00
      21    -1     0     0   511   502  0.000000000E+00  0.000000000E+00 -7.705717290E+02  7.705717290E+02  0.000000000E+00  0.00000E+00  9.000E+00
      25     1     1     2     0     0  2.052412385E+02  1.892608511E+02  6.128886033E+02  6.849825368E+02  1.250000000E+02  0.00000E+00  9.000E+00
      25     1     1     2     0     0 -1.844822250E+02 -3.943279353E+02  2.919570677E+01  4.538783991E+02  1.250000000E+02  0.00000E+00  9.000E+00
      21     1     1     2   511   501 -2.075901349E+01  2.050670842E+02 -5.018440849E+02  5.425227472E+02  0.000000000E+00  0.00000E+00  9.000E+00
#rwgt            1           1   2.7811544939495083E-002           2       72447           0
</event>
<event>
      5   9999  3.19816E-02  4.97419E+00 -1.00000E+00  2.42991E-01
      21    -1     0     0   502   501  0.000000000E+00  0.000000000E+00  1.029367463E+02  1.029367463E+02  0.000000000E+00  0.00000E+00  9.000E+00
      21    -1     0     0   512   502  0.000000000E+00  0.000000000E+00 -2.198997574E+02  2.198997574E+02  0.000000000E+00  0.00000E+00  9.000E+00
      25     1     1     2     0     0  4.257390970E+01 -3.102239337E+01  7.438880498E+00  1.358501513E+02  1.250000000E+02  0.00000E+00  9.000E+00
      25     1     1     2     0     0 -3.782288786E+01  3.249559049E+01 -1.190340100E+02  1.796681101E+02  1.250000000E+02  0.00000E+00  9.000E+00
      21     1     1     2   512   501 -4.751021841E+00 -1.473197121E+00 -5.367881617E+00  7.318242368E+00  1.032382731E-07  0.00000E+00  9.000E+00
#rwgt            1           1   4.3354271989820913E-002           2       72524           0
</event>
<event>
      5   9999  3.19816E-02  3.26853E+01 -1.00000E+00  1.50498E-01
      21    -1     0     0   502   501  0.000000000E+00  0.000000000E+00  4.898222615E+02  4.898222615E+02  0.000000000E+00  0.00000E+00  9.000E+00
      21    -1     0     0   501   511  0.000000000E+00  0.000000000E+00 -3.154997890E+02  3.154997890E+02  0.000000000E+00  0.00000E+00  9.000E+00
      25     1     1     2     0     0 -1.829832767E+02 -2.255956889E+02  3.703737706E+01  3.183913656E+02  1.250000000E+02  0.00000E+00  9.000E+00
      25     1     1     2     0     0  1.503554573E+02  2.275338206E+02  2.367901129E+02  3.821949249E+02  1.250000000E+02  0.00000E+00  9.000E+00
      21     1     1     2   502   511  3.262781935E+01 -1.938131665E+00 -9.950501734E+01  1.047357600E+02  1.348699152E-06  0.00000E+00  9.000E+00
#rwgt            1           1   2.7107050240286212E-002           2       72833           0
</event>
<event>
      5   9999  3.19816E-02  1.84937E+02 -1.00000E+00  1.12900E-01
      21    -1     0     0   512   501  0.000000000E+00  0.000000000E+00  1.387836214E+02  1.387836214E+02  0.000000000E+00  0.00000E+00  9.000E+00
      21    -1     0     0   501   502  0.000000000E+00  0.000000000E+00 -1.070398841E+03  1.070398841E+03  0.000000000E+00  0.00000E+00  9.000E+00
      25     1     1     2     0     0 -1.237026624E+02  7.404704502E+01 -8.284922307E+02  8.501821510E+02  1.250000000E+02  0.00000E+00  9.000E+00
      25     1     1     2     0     0  3.645729972E+01  8.901682427E+01 -3.252468232E+01  1.610465295E+02  1.250000000E+02  0.00000E+00  9.000E+00
      21     1     1     2   512   502  8.724536268E+01 -1.630638693E+02 -7.059830636E+01  1.979537816E+02  3.303624740E-06  0.00000E+00  9.000E+00
#rwgt            1           1   2.7386539428500712E-002           2       72941           0
</event>
<event>
      5   9999  3.19816E-02  3.88788E+01 -1.00000E+00  1.45610E-01
      21    -1     0     0   511   501  0.000000000E+00  0.000000000E+00  1.800747990E+03  1.800747990E+03  0.000000000E+00  0.00000E+00  9.000E+00
      21    -1     0     0   501   502  0.000000000E+00  0.000000000E+00 -1.053558671E+03  1.053558671E+03  0.000000000E+00  0.00000E+00  9.000E+00
      25     1     1     2     0     0 -5.935707333E+02  1.243919537E+02 -8.867181977E+02  1.081523803E+03  1.250000000E+02  0.00000E+00  9.000E+00
      25     1     1     2     0     0  6.278529642E+02 -1.060538103E+02  1.536643649E+03  1.668036409E+03  1.250000000E+02  0.00000E+00  9.000E+00
      21     1     1     2   511   502 -3.428223091E+01 -1.833814337E+01  9.726386684E+01  1.047464494E+02  0.000000000E+00  0.00000E+00  9.000E+00
#rwgt            1           1   5.7273560610486746E-002           2       72994           0
</event>
<event>
      5   9999  3.19816E-02  1.38521E+01 -1.00000E+00  1.80704E-01
      21    -1     0     0   502   501  0.000000000E+00  0.000000000E+00  4.059106816E+02  4.059106816E+02  0.000000000E+00  0.00000E+00  9.000E+00
      21    -1     0     0   512   502  0.000000000E+00  0.000000000E+00 -4.377031554E+02  4.377031554E+02  0.000000000E+00  0.00000E+00  9.000E+00
      25     1     1     2     0     0 -2.922852140E+02 -5.866941415E+01 -2.219233299E+02  3.921067595E+02  1.250000000E+02  0.00000E+00  9.000E+00
      25     1     1     2     0     0  2.803509253E+02  6.570163404E+01  2.429244393E+02  3.969264784E+02  1.250000000E+02  0.00000E+00  9.000E+00
      21     1     1     2   512   501  1.193428873E+01 -7.032219890E+00 -5.279358324E+01  5.458059908E+01  0.000000000E+00  0.00000E+00  9.000E+00
#rwgt            1           1   2.6144136134106013E-002           2       73169           0
</event>
<event>
      5   9999  3.19816E-02  1.21934E+02 -1.00000E+00  1.20074E-01
      21    -1     0     0   511   501  0.000000000E+00  0.000000000E+00  7.036005010E+02  7.036005010E+02  0.000000000E+00  0.00000E+00  9.000E+00
      21    -1     0     0   501   502  0.000000000E+00  0.000000000E+00 -9.789586032E+02  9.789586032E+02  0.000000000E+00  0.00000E+00  9.000E+00
      25     1     1     2     0     0 -4.169874832E+02  3.575935316E+02  2.248251306E+01  5.638103923E+02  1.250000000E+02  0.00000E+00  9.000E+00
      25     1     1     2     0     0  3.027085670E+02 -4.001170269E+02 -6.005098066E+02  7.924412530E+02  1.250000000E+02  0.00000E+00  9.000E+00
      21     1     1     2   511   502  1.142789162E+02  4.252349525E+01  3.026691914E+02  3.263074589E+02  5.394796609E-06  0.00000E+00  9.000E+00
#rwgt            1           1   2.8630346061204074E-002           2       73417           0
</event>
<event>
      5   9999  3.19816E-02  2.56746E+01 -1.00000E+00  1.57890E-01
      21    -1     0     0   502   501  0.000000000E+00  0.000000000E+00  2.734731568E+02  2.734731568E+02  0.000000000E+00  0.00000E+00  9.000E+00
      21    -1     0     0   512   502  0.000000000E+00  0.000000000E+00 -1.533133332E+03  1.533133332E+03  0.000000000E+00  0.00000E+00  9.000E+00
      25     1     1     2     0     0 -5.065220397E+01  2.464425102E+02  1.680358957E+02  3.273539657E+02  1.250000000E+02  0.00000E+00  9.000E+00
      25     1     1     2     0     0  4.787453124E+01 -2.209186125E+02 -6.267092740E+02  6.778543488E+02  1.250000000E+02  0.00000E+00  9.000E+00
      21     1     1     2   512   501  2.777672733E+00 -2.552389769E+01 -8.009867969E+02  8.013981742E+02  1.078959322E-05  0.00000E+00  9.000E+00
#rwgt            1           1   2.7885975851406689E-002           2       73506           0
</event>
<event>
      5   9999  3.19816E-02  1.34505E+02 -1.00000E+00  1.18302E-01
      21    -1     0     0   502   501  0.000000000E+00  0.000000000E+00  1.492052832E+03  1.492052832E+03  0.000000000E+00  0.00000E+00  9.000E+00
      21    -1     0     0   511   502  0.000000000E+00  0.000000000E+00 -3.658565926E+02  3.658565926E+02  0.000000000E+00  0.00000E+00  9.000E+00
      25     1     1     2     0     0 -4.493554929E+02 -9.464309265E+00  8.911738841E+02  1.005895533E+03  1.250000000E+02  0.00000E+00  9.000E+00
      25     1     1     2     0     0  5.123745657E+02  1.282927142E+02  3.735718841E+02  6.589140070E+02  1.250000000E+02  0.00000E+00  9.000E+00
      21     1     1     2   511   501 -6.301907280E+01 -1.188284049E+02 -1.385495288E+02  1.930998842E+02  4.264961200E-06  0.00000E+00  9.000E+00
#rwgt            1           1   3.0097319558494505E-002           2       73645           0
</event>
<event>
      5   9999  3.19816E-02  7.05589E+01 -1.00000E+00  1.31046E-01
      21    -1     0     0   502   501  0.000000000E+00  0.000000000E+00  2.779849930E+02  2.779849930E+02  0.000000000E+00  0.00000E+00  9.000E+00
       2    -1     0     0   501     0  0.000000000E+00  0.000000000E+00 -1.472940034E+03  1.472940034E+03  0.000000000E+00  0.00000E+00  9.000E+00
      25     1     1     2     0     0  1.478925175E+02 -2.103216390E+02  1.016354535E+02  3.034174582E+02  1.250000000E+02  0.00000E+00  9.000E+00
      25     1     1     2     0     0 -2.100048383E+02  1.768460733E+02 -2.319437310E+02  3.805252424E+02  1.250000000E+02  0.00000E+00  9.000E+00
       2     1     1     2   502     0  6.211232083E+01  3.347556565E+01 -1.064646763E+03  1.066982326E+03  1.525878906E-05  0.00000E+00  9.000E+00
#rwgt            1           1   2.9731422824036700E-002           2       73709           0
</event>
<event>
      5   9999  3.19816E-02  1.06103E+02 -1.00000E+00  1.22682E-01
      21    -1     0     0   502   501  0.000000000E+00  0.000000000E+00  1.728557580E+02  1.728557580E+02  0.000000000E+00  0.00000E+00  9.000E+00
       2    -1     0     0   501     0  0.000000000E+00  0.000000000E+00 -1.602613443E+03  1.602613443E+03  0.000000000E+00  0.00000E+00  9.000E+00
      25     1     1     2     0     0  3.106062404E+02  3.958770499E+01 -3.406075309E+02  4.792514090E+02  1.250000000E+02  0.00000E+00  9.000E+00
      25     1     1     2     0     0 -2.062484367E+02 -5.875215699E+01 -5.194669221E+01  2.536014441E+02  1.250000000E+02  0.00000E+00  9.000E+00
       2     1     1     2   502     0 -1.043578037E+02  1.916445200E+01 -1.037203462E+03  1.042616348E+03  1.525878906E-05  0.00000E+00  9.000E+00
#rwgt            1           1   2.4521174766769016E-002           2       73792           0
</event>
<event>
      5   9999  3.19816E-02  9.55439E+01 -1.00000E+00  1.24725E-01
      21    -1     0     0   502   501  0.000000000E+00  0.000000000E+00  5.128558584E+01  5.128558584E+01  0.000000000E+00  0.00000E+00  9.000E+00
      21    -1     0     0   501   511  0.000000000E+00  0.000000000E+00 -1.006089385E+03  1.006089385E+03  0.000000000E+00  0.00000E+00  9.000E+00
      25     1     1     2     0     0 -7.953156764E+01  1.291824572E+02 -3.703757990E+02  4.193049129E+02  1.250000000E+02  0.00000E+00  9.000E+00
      25     1     1     2     0     0 -1.134129383E+01 -9.967392155E+01 -3.799228292E+02  4.123467857E+02  1.250000000E+02  0.00000E+00  9.000E+00
      21     1     1     2   502   511  9.087286147E+01 -2.950853568E+01 -2.045051706E+02  2.257232718E+02  2.697398305E-06  0.00000E+00  9.000E+00
#rwgt            1           1   2.3997788505193653E-002           2       73867           0
</event>
<event>
      5   9999  3.19816E-02  2.07948E+02 -1.00000E+00  1.11035E-01
      21    -1     0     0   502   501  0.000000000E+00  0.000000000E+00  7.594226211E+02  7.594226211E+02  0.000000000E+00  0.00000E+00  9.000E+00
      -4    -1     0     0     0   502  0.000000000E+00  0.000000000E+00 -7.967186131E+02  7.967186131E+02  0.000000000E+00  0.00000E+00  9.000E+00
      25     1     1     2     0     0  1.629722218E+02  3.661336164E+01  2.065847070E+02  2.936030049E+02  1.250000000E+02  0.00000E+00  9.000E+00
      25     1     1     2     0     0 -7.118365169E+01  1.499803416E+02  4.727164785E+02  5.163788185E+02  1.250000000E+02  0.00000E+00  9.000E+00
      -4     1     1     2     0   501 -9.178857012E+01 -1.865937033E+02 -7.165971774E+02  7.461594108E+02  7.629394531E-06  0.00000E+00  9.000E+00
#rwgt            1           1   3.2367784572335773E-002           2       73913           0
</event>
<event>
      5   9999  3.19816E-02  1.02655E+02 -1.00000E+00  1.23318E-01
      -1    -1     0     0     0   501  0.000000000E+00  0.000000000E+00  9.432979516E+02  9.432979516E+02  0.000000000E+00  0.00000E+00  9.000E+00
      21    -1     0     0   501   502  0.000000000E+00  0.000000000E+00 -2.241147271E+02  2.241147271E+02  0.000000000E+00  0.00000E+00  9.000E+00
      25     1     1     2     0     0 -1.718672129E+02  6.954936958E+01 -6.342069518E+01  2.324277054E+02  1.250000000E+02  0.00000E+00  9.000E+00
      25     1     1     2     0     0  1.590833131E+02  3.230634440E+01  7.224249516E+01  2.172445132E+02  1.250000000E+02  0.00000E+00  9.000E+00
      -1     1     1     2     0   502  1.278389980E+01 -1.018557140E+02  7.103614245E+02  7.177404600E+02  7.629394531E-06  0.00000E+00  9.000E+00
#rwgt            1           1   3.0451421693786628E-002           2       73944           0
</event>
<event>
      5   9999  3.19816E-02  2.39933E+01 -1.00000E+00  1.60100E-01
      21    -1     0     0   502   501  0.000000000E+00  0.000000000E+00  4.275860611E+02  4.275860611E+02  0.000000000E+00  0.00000E+00  9.000E+00
      21    -1     0     0   511   502  0.000000000E+00  0.000000000E+00 -1.160631289E+03  1.160631289E+03  0.000000000E+00  0.00000E+00  9.000E+00
      25     1     1     2     0     0 -4.404486075E+02  9.413824561E+01  2.266358274E+02  5.194668261E+02  1.250000000E+02  0.00000E+00  9.000E+00
      25     1     1     2     0     0  4.209026649E+02 -8.022304573E+01 -9.132313176E+02  1.016469985E+03  1.250000000E+02  0.00000E+00  9.000E+00
      21     1     1     2   511   501  1.954594267E+01 -1.391519987E+01 -4.644973768E+01  5.228053934E+01  6.743495762E-07  0.00000E+00  9.000E+00
#rwgt            1           1   3.1440653126918711E-002           2       73993           0
</event>
<event>
      5   9999  3.19816E-02  3.99131E+01 -1.00000E+00  1.44899E-01
      21    -1     0     0   502   501  0.000000000E+00  0.000000000E+00  4.542590735E+02  4.542590735E+02  0.000000000E+00  0.00000E+00  9.000E+00
      21    -1     0     0   501   512  0.000000000E+00  0.000000000E+00 -9.233095674E+02  9.233095674E+02  0.000000000E+00  0.00000E+00  9.000E+00
      25     1     1     2     0     0 -3.175523894E+02 -4.327187782E+02 -2.927743278E+02  6.240407584E+02  1.250000000E+02  0.00000E+00  9.000E+00
      25     1     1     2     0     0  2.823402444E+02  4.139261557E+02  5.454678354E+01  5.192795274E+02  1.250000000E+02  0.00000E+00  9.000E+00
      21     1     1     2   502   512  3.521214500E+01  1.879262249E+01 -2.308229496E+02  2.342483551E+02  0.000000000E+00  0.00000E+00  9.000E+00
#rwgt            1           1   2.2703085889654761E-002           2       74190           0
</event>
<event>
      5   9999  3.19816E-02  1.98773E+01 -1.00000E+00  1.66590E-01
      21    -1     0     0   502   511  0.000000000E+00  0.000000000E+00  3.524931154E+02  3.524931154E+02  0.000000000E+00  0.00000E+00  9.000E+00
      21    -1     0     0   501   502  0.000000000E+00  0.000000000E+00 -5.226138863E+02  5.226138863E+02  0.000000000E+00  0.00000E+00  9.000E+00
      25     1     1     2     0     0  1.745004342E+02 -3.492994348E+02 -8.194747166E+01  4.180919574E+02  1.250000000E+02  0.00000E+00  9.000E+00
      25     1     1     2     0     0 -1.874556661E+02  3.643749104E+02 -8.661699580E+01  4.370768880E+02  1.250000000E+02  0.00000E+00  9.000E+00
      21     1     1     2   501   511  1.295523189E+01 -1.507547556E+01 -1.556303499E+00  1.993815631E+01  4.364794050E-07  0.00000E+00  9.000E+00
#rwgt            1           1   2.8397255462367856E-002           2       74346           0
</event>
<event>
      5   9999  3.19816E-02  2.66639E+01 -1.00000E+00  1.56683E-01
      21    -1     0     0   502   501  0.000000000E+00  0.000000000E+00  5.298956915E+02  5.298956915E+02  0.000000000E+00  0.00000E+00  9.000E+00
      21    -1     0     0   512   502  0.000000000E+00  0.000000000E+00 -3.880247689E+02  3.880247689E+02  0.000000000E+00  0.00000E+00  9.000E+00
      25     1     1     2     0     0 -1.931069099E+02 -3.296342936E+02 -9.742254342E+01  4.136002879E+02  1.250000000E+02  0.00000E+00  9.000E+00
      25     1     1     2     0     0  1.741057108E+02  3.483404295E+02  2.453949983E+02  4.769670414E+02  1.250000000E+02  0.00000E+00  9.000E+00
      21     1     1     2   512   501  1.900119909E+01 -1.870613592E+01 -6.101532342E+00  2.735313117E+01  1.685873940E-07  0.00000E+00  9.000E+00
#rwgt            1           1   3.1069674559950158E-002           2       74502           0
</event>
<event>
      5   9999  3.19816E-02  8.47630E+01 -1.00000E+00  1.27145E-01
      21    -1     0     0   511   501  0.000000000E+00  0.000000000E+00  6.619831003E+02  6.619831003E+02  0.000000000E+00  0.00000E+00  9.000E+00
      21    -1     0     0   501   502  0.000000000E+00  0.000000000E+00 -2.605805916E+02  2.605805916E+02  0.000000000E+00  0.00000E+00  9.000E+00
      25     1     1     2     0     0  1.241369128E+02 -1.928908989E+02  3.868708148E+02  4.668092752E+02  1.250000000E+02  0.00000E+00  9.000E+00
      25     1     1     2     0     0 -1.021378723E+02  1.110324129E+02 -1.656928605E+02  2.565920219E+02  1.250000000E+02  0.00000E+00  9.000E+00
      21     1     1     2   511   502 -2.199904055E+01  8.185848604E+01  1.802245544E+02  1.991623948E+02  2.697398305E-06  0.00000E+00  9.000E+00
#rwgt            1           1   2.7962225033040859E-002           2       74671           0
</event>
<event>
      5   9999  3.19816E-02  1.60174E+01 -1.00000E+00  1.74740E-01
      21    -1     0     0   502   501  0.000000000E+00  0.000000000E+00  9.149516275E+02  9.149516275E+02  0.000000000E+00  0.00000E+00  9.000E+00
      21    -1     0     0   512   502  0.000000000E+00  0.000000000E+00 -1.309061743E+02  1.309061743E+02  0.000000000E+00  0.00000E+00  9.000E+00
      25     1     1     2     0     0  1.093123145E+02 -2.713332491E+02  5.321031990E+02  6.199433269E+02  1.250000000E+02  0.00000E+00  9.000E+00
      25     1     1     2     0     0 -9.802852419E+01  2.827013212E+02  2.506336798E+02  4.098437141E+02  1.250000000E+02  0.00000E+00  9.000E+00
      21     1     1     2   512   501 -1.128379032E+01 -1.136807210E+01  1.308574433E+00  1.607076085E+01  9.424321831E-08  0.00000E+00  9.000E+00
#rwgt            1           1   2.8859126913198703E-002           2       74727           0
</event>
<event>
      5   9999  3.19816E-02  3.16502E+01 -1.00000E+00  1.51442E-01
      21    -1     0     0   502   501  0.000000000E+00  0.000000000E+00  9.171469315E+02  9.171469315E+02  0.000000000E+00  0.00000E+00  9.000E+00
      21    -1     0     0   511   502  0.000000000E+00  0.000000000E+00 -8.775298526E+01  8.775298526E+01  0.000000000E+00  0.00000E+00  9.000E+00
      25     1     1     2     0     0 -3.832734058E+01  1.737080433E+02  7.223203900E+02  7.543309719E+02  1.250000000E+02  0.00000E+00  9.000E+00
      25     1     1     2     0     0  4.019931565E+01 -1.421132142E+02  8.180684692E+01  2.100702521E+02  1.250000000E+02  0.00000E+00  9.000E+00
      21     1     1     2   511   501 -1.871975070E+00 -3.159482907E+01  2.526670936E+01  4.049869277E+01  5.840038640E-07  0.00000E+00  9.000E+00
#rwgt            1           1   3.4334570685803173E-002           2       74925           0
</event>
<event>
      5   9999  3.19816E-02  9.28532E+00 -1.00000E+00  1.99555E-01
       3    -1     0     0   502     0  0.000000000E+00  0.000000000E+00  1.909908009E+02  1.909908009E+02  0.000000000E+00  0.00000E+00  9.000E+00
      21    -1     0     0   501   502  0.000000000E+00  0.000000000E+00 -8.129361271E+02  8.129361271E+02  0.000000000E+00  0.00000E+00  9.000E+00
      25     1     1     2     0     0  8.511288808E+00  1.352197111E+02 -3.469031838E+02  3.928404654E+02  1.250000000E+02  0.00000E+00  9.000E+00
      25     1     1     2     0     0 -1.692723689E+01 -1.312968208E+02 -4.242086695E+02  4.616312184E+02  1.250000000E+02  0.00000E+00  9.000E+00
       3     1     1     2   501     0  8.415948084E+00 -3.922890290E+00  1.491665271E+02  1.494552443E+02  3.303624740E-06  0.00000E+00  9.000E+00
#rwgt            1           1   2.8667576515297704E-002           2       75055           0
</event>
<event>
      5   9999  3.19816E-02  8.82746E+01 -1.00000E+00  1.26314E-01
      21    -1     0     0   502   501  0.000000000E+00  0.000000000E+00  2.715773383E+03  2.715773383E+03  0.000000000E+00  0.00000E+00  9.000E+00
      21    -1     0     0   501   511  0.000000000E+00  0.000000000E+00 -3.487650890E+02  3.487650890E+02  0.000000000E+00  0.00000E+00  9.000E+00
      25     1     1     2     0     0 -2.797360469E+02 -3.234579917E+02  1.978155271E+03  2.027708215E+03  1.250000000E+02  0.00000E+00  9.000E+00
      25     1     1     2     0     0  2.686772148E+02  2.358788565E+02  6.548921398E+02  7.565282516E+02  1.250000000E+02  0.00000E+00  9.000E+00
      21     1     1     2   502   511  1.105883207E+01  8.757913522E+01 -2.660391168E+02  2.803020056E+02  3.814697266E-06  0.00000E+00  9.000E+00
#rwgt            1           1   6.5078490299566291E-002           2       75228           0
</event>
<event>
      5   9999  3.19816E-02  1.41489E+02 -1.00000E+00  1.17408E-01
      21    -1     0     0   502   512  0.000000000E+00  0.000000000E+00  2.844849878E+02  2.844849878E+02  0.000000000E+00  0.00000E+00  9.000E+00
      21    -1     0     0   501   502  0.000000000E+00  0.000000000E+00 -1.503530990E+03  1.503530990E+03  0.000000000E+00  0.00000E+00  9.000E+00
      25     1     1     2     0     0 -4.234770640E+00 -1.438284754E+02 -1.298347826E+03  1.312263937E+03  1.250000000E+02  0.00000E+00  9.000E+00
      25     1     1     2     0     0  3.913246093E+01  2.809460480E+02  1.136450827E+02  3.301548670E+02  1.250000000E+02  0.00000E+00  9.000E+00
      21     1     1     2   501   512 -3.489769029E+01 -1.371175727E+02 -3.434325890E+01  1.455971736E+02  1.966049969E-06  0.00000E+00  9.000E+00
#rwgt            1           1   3.4275487844282200E-002           2       75328           0
</event>
<event>
      5   9999  3.19816E-02  3.63380E+01 -1.00000E+00  1.47475E-01
      21    -1     0     0   511   501  0.000000000E+00  0.000000000E+00  1.063425042E+03  1.063425042E+03  0.000000000E+00  0.00000E+00  9.000E+00
      21    -1     0     0   501   502  0.000000000E+00  0.000000000E+00 -8.866753294E+02  8.866753294E+02  0.000000000E+00  0.00000E+00  9.000E+00
      25     1     1     2     0     0 -8.241804002E+02  4.176246939E+02 -4.029813099E-01  9.323673522E+02  1.250000000E+02  0.00000E+00  9.000E+00
      25     1     1     2     0     0  8.133340383E+02 -4.523062228E+02  1.153742186E+02  9.460599280E+02  1.250000000E+02  0.00000E+00  9.000E+00
      21     1     1     2   511   502  1.084636195E+01  3.468152892E+01  6.177847553E+01  7.167309156E+01  1.168007728E-06  0.00000E+00  9.000E+00
#rwgt            1           1   2.9360884179955447E-002           2       75390           0
</event>
<event>
      5   9999  3.19816E-02  1.24385E+01 -1.00000E+00  1.85404E-01
       2    -1     0     0   502     0  0.000000000E+00  0.000000000E+00  1.488836604E+03  1.488836604E+03  0.000000000E+00  0.00000E+00  9.000E+00
      21    -1     0     0   501   502  0.000000000E+00  0.000000000E+00 -3.366015738E+02  3.366015738E+02  0.000000000E+00  0.00000E+00  9.000E+00
      25     1     1     2     0     0 -5.954673598E+02 -1.983748753E+02  8.386245816E+02  1.054917133E+03  1.250000000E+02  0.00000E+00  9.000E+00
      25     1     1     2     0     0  6.023477356E+02  2.087371163E+02  2.348392037E+02  6.907737907E+02  1.250000000E+02  0.00000E+00  9.000E+00
       2     1     1     2   501     0 -6.880375803E+00 -1.036224096E+01  7.877124505E+01  7.974725485E+01  9.536743164E-07  0.00000E+00  9.000E+00
#rwgt            1           1   2.6967555628726169E-002           2       75706           0
</event>
<event>
      5   9999  3.19816E-02  1.26872E+01 -1.00000E+00  1.84521E-01
      21    -1     0     0   502   501  0.000000000E+00  0.000000000E+00  6.283734482E+02  6.283734482E+02  0.000000000E+00  0.00000E+00  9.000E+00
      21    -1     0     0   501   511  0.000000000E+00  0.000000000E+00 -1.018262258E+02  1.018262258E+02  0.000000000E+00  0.00000E+00  9.000E+00
      25     1     1     2     0     0 -1.390283979E+02  1.492068906E+02  1.610723837E+02  2.883763243E+02  1.250000000E+02  0.00000E+00  9.000E+00
      25     1     1     2     0     0  1.272791764E+02 -1.444192391E+02  3.620622561E+02  4.286851790E+02  1.250000000E+02  0.00000E+00  9.000E+00
      21     1     1     2   502   511  1.174922145E+01 -4.787651431E+00  3.412582488E+00  1.313817073E+01  3.009887021E-07  0.00000E+00  9.000E+00
#rwgt            1           1   3.0614984332137767E-002           2       75960           0
</event>
<event>
      5   9999  3.19816E-02  5.46196E+01 -1.00000E+00  1.36921E-01
      21    -1     0     0   502   501  0.000000000E+00  0.000000000E+00  1.683945962E+03  1.683945962E+03  0.000000000E+00  0.00000E+00  9.000E+00
      -1    -1     0     0     0   502  0.000000000E+00  0.000000000E+00 -1.777315039E+02  1.777315039E+02  0.000000000E+00  0.00000E+00  9.000E+00
      25     1     1     2     0     0  1.870099807E+02 -8.155100134E+01  1.239361191E+02  2.694595708E+02  1.250000000E+02  0.00000E+00  9.000E+00
      25     1     1     2     0     0 -2.355869791E+02  5.657940376E+01  1.466614758E+03  1.491739355E+03  1.250000000E+02  0.00000E+00  9.000E+00
      -1     1     1     2     0   501  4.857699840E+01  2.497159758E+01 -8.433641918E+01  1.004785403E+02  3.693564745E-06  0.00000E+00  9.000E+00
#rwgt            1           1   3.2520986160043709E-002           2       76145           0
</event>
<event>
      5   9999  3.19816E-02  1.23515E+02 -1.00000E+00  1.19838E-01
      21    -1     0     0   502   501  0.000000000E+00  0.000000000E+00  1.755159267E+03  1.755159267E+03  0.000000000E+00  0.00000E+00  9.000E+00
       2    -1     0     0   501     0  0.000000000E+00  0.000000000E+00 -1.735042575E+03  1.735042575E+03  0.000000000E+00  0.00000E+00  9.000E+00
      25     1     1     2     0     0  3.587532737E+02  2.793998657E+02  1.581869723E+03  1.650668052E+03  1.250000000E+02  0.00000E+00  9.000E+00
      25     1     1     2     0     0 -2.535134550E+02 -2.147421962E+02 -9.483664421E+01  3.674265529E+02  1.250000000E+02  0.00000E+00  9.000E+00
       2     1     1     2   502     0 -1.052398187E+02 -6.465766954E+01 -1.466916386E+03  1.472107237E+03  2.157918644E-05  0.00000E+00  9.000E+00
#rwgt            1           1   3.0068442894494053E-002           2       76291           0
</event>
<event>
      5   9999  3.19816E-02  1.24608E+02 -1.00000E+00  1.19678E-01
      21    -1     0     0   502   501  0.000000000E+00  0.000000000E+00  2.089843417E+03  2.089843417E+03  0.000000000E+00  0.00000E+00  9.000E+00
      21    -1     0     0   511   502  0.000000000E+00  0.000000000E+00 -1.846899130E+02  1.846899130E+02  0.000000000E+00  0.00000E+00  9.000E+00
      25     1     1     2     0     0  4.324102922E+02 -1.665649829E+02  7.635852616E+02  9.018924581E+02  1.250000000E+02  0.00000E+00  9.000E+00
      25     1     1     2     0     0 -5.503267121E+02  2.068503554E+02  1.074356395E+03  1.231061828E+03  1.250000000E+02  0.00000E+00  9.000E+00
      21     1     1     2   511   501  1.179164200E+02 -4.028537257E+01  6.721184711E+01  1.415790441E+02  2.697398305E-06  0.00000E+00  9.000E+00
#rwgt            1           1   2.5084298706129413E-002           2       76389           0
</event>
<event>
      5   9999  3.19816E-02  6.22775E+01 -1.00000E+00  1.33844E-01
      21    -1     0     0   502   512  0.000000000E+00  0.000000000E+00  1.006926371E+03  1.006926371E+03  0.000000000E+00  0.00000E+00  9.000E+00
      21    -1     0     0   501   502  0.000000000E+00  0.000000000E+00 -9.426633171E+01  9.426633171E+01  0.000000000E+00  0.00000E+00  9.000E+00
      25     1     1     2     0     0  7.150860750E+00  1.747187967E+02  1.930816810E+02  2.889348166E+02  1.250000000E+02  0.00000E+00  9.000E+00
      25     1     1     2     0     0 -5.480166441E+01 -2.148172941E+02  3.249997061E+02  4.127947446E+02  1.250000000E+02  0.00000E+00  9.000E+00
      21     1     1     2   501   512  4.765080366E+01  4.009849739E+01  3.945786517E+02  3.994631410E+02  0.000000000E+00  0.00000E+00  9.000E+00
#rwgt            1           1   3.1720561465528624E-002           2       76466           0
</event>
<event>
      5   9999  3.19816E-02  1.05678E+02 -1.00000E+00  1.22759E-01
      21    -1     0     0   511   501  0.000000000E+00  0.000000000E+00  1.264317466E+03  1.264317466E+03  0.000000000E+00  0.00000E+00  9.000E+00
      21    -1     0     0   501   502  0.000000000E+00  0.000000000E+00 -3.407209136E+02  3.407209136E+02  0.000000000E+00  0.00000E+00  9.000E+00
      25     1     1     2     0     0  4.721362068E+02 -6.043856252E+00 -5.260669098E+01  4.912652949E+02  1.250000000E+02  0.00000E+00  9.000E+00
      25     1     1     2     0     0 -3.760787502E+02 -3.800977387E+01  5.784276463E+02  7.021990539E+02  1.250000000E+02  0.00000E+00  9.000E+00
      21     1     1     2   511   502 -9.605745660E+01  4.405363012E+01  3.977755967E+02  4.115740306E+02  5.394796609E-06  0.00000E+00  9.000E+00
#rwgt            1           1   3.0596255155808383E-002           2       76536           0
</event>
<event>
      5   9999  3.19816E-02  2.16656E+02 -1.00000E+00  1.10398E-01
       2    -1     0     0   502     0  0.000000000E+00  0.000000000E+00  7.992873110E+02  7.992873110E+02  0.000000000E+00  0.00000E+00  9.000E+00
      21    -1     0     0   501   502  0.000000000E+00  0.000000000E+00 -3.319052933E+02  3.319052933E+02  0.000000000E+00  0.00000E+00  9.000E+00
      25     1     1     2     0     0 -4.108624074E+02  1.290743045E+02  3.374454778E+02  5.612152390E+02  1.250000000E+02  0.00000E+00  9.000E+00
      25     1     1     2     0     0  2.140935558E+02 -3.840051880E+01 -8.491662956E+01  2.648518161E+02  1.250000000E+02  0.00000E+00  9.000E+00
       2     1     1     2   501     0  1.967688516E+02 -9.067378575E+01  2.148531695E+02  3.051255493E+02  2.697398305E-06  0.00000E+00  9.000E+00
#rwgt            1           1   2.9218313556145899E-002           2       76596           0
</event>
<event>
      5   9999  3.19816E-02  5.87795E+02 -1.00000E+00  9.68963E-02
      21    -1     0     0   502   501  0.000000000E+00  0.000000000E+00  7.129413889E+02  7.129413889E+02  0.000000000E+00  0.00000E+00  9.000E+00
      21    -1     0     0   501   511  0.000000000E+00  0.000000000E+00 -9.263348836E+02  9.263348836E+02  0.000000000E+00  0.00000E+00  9.000E+00
      25     1     1     2     0     0  2.165820209E+02  1.229442211E+02 -2.878640540E+02  4.006416939E+02  1.250000000E+02  0.00000E+00  9.000E+00
      25     1     1     2     0     0  3.473210716E+02 -2.888253063E+02  3.543847119E+02  5.875929785E+02  1.250000000E+02  0.00000E+00  9.000E+00
      21     1     1     2   502   511 -5.639030926E+02  1.658810852E+02 -2.799141526E+02  6.510416001E+02  1.078959322E-05  0.00000E+00  9.000E+00
#rwgt            2          11   2.0339488515294093E-003           2       76663           0
</event>
<event>
      5   9999  3.19816E-02  3.57241E+01 -1.00000E+00  1.47952E-01
      21    -1     0     0   502   501  0.000000000E+00  0.000000000E+00  9.955883903E+02  9.955883903E+02  0.000000000E+00  0.00000E+00  9.000E+00
      -1    -1     0     0     0   502  0.000000000E+00  0.000000000E+00 -4.544723480E+02  4.544723480E+02  0.000000000E+00  0.00000E+00  9.000E+00
      25     1     1     2     0     0  2.562434897E+02  1.568367525E+02  6.697704240E+02  7.446313946E+02  1.250000000E+02  0.00000E+00  9.000E+00
      25     1     1     2     0     0 -2.240032432E+02 -1.414491908E+02  2.128265290E+02  3.620848768E+02  1.250000000E+02  0.00000E+00  9.000E+00
      -1     1     1     2     0   501 -3.224024653E+01 -1.538756167E+01 -3.414809107E+02  3.433444669E+02  8.529922400E-06  0.00000E+00  9.000E+00
#rwgt            1           1   2.6925332766969727E-002           2       76698           0
</event>
<event>
      5   9999  3.19816E-02  5.27955E+01 -1.00000E+00  1.37741E-01
      21    -1     0     0   502   511  0.000000000E+00  0.000000000E+00  2.454980529E+02  2.454980529E+02  0.000000000E+00  0.00000E+00  9.000E+00
      21    -1     0     0   501   502  0.000000000E+00  0.000000000E+00 -1.965514764E+02  1.965514764E+02  0.000000000E+00  0.00000E+00  9.000E+00
      25     1     1     2     0     0 -5.049777903E+01 -1.543165023E+02  5.745348733E+01  2.128133261E+02  1.250000000E+02  0.00000E+00  9.000E+00
      25     1     1     2     0     0  1.726562602E+01  1.132922452E+02 -3.003217226E+01  1.722212706E+02  1.250000000E+02  0.00000E+00  9.000E+00
      21     1     1     2   501   511  3.323215301E+01  4.102425705E+01  2.152526143E+01  5.701493260E+01  5.840038640E-07  0.00000E+00  9.000E+00
#rwgt            1           1   2.4996224752676720E-002           2       76797           0
</event>
<event>
      5   9999  3.19816E-02  3.12026E+01 -1.00000E+00  1.51864E-01
      21    -1     0     0   512   501  0.000000000E+00  0.000000000E+00  6.560937010E+02  6.560937010E+02  0.000000000E+00  0.00000E+00  9.000E+00
      21    -1     0     0   501   502  0.000000000E+00  0.000000000E+00 -1.510648194E+02  1.510648194E+02  0.000000000E+00  0.00000E+00  9.000E+00
      25     1     1     2     0     0 -6.435705203E-01 -1.698368278E+02 -6.897903426E+00  2.109918087E+02  1.250000000E+02  0.00000E+00  9.000E+00
      25     1     1     2     0     0 -2.373068766E+01  1.893175753E+02  2.754212156E+02  3.576117111E+02  1.250000000E+02  0.00000E+00  9.000E+00
      21     1     1     2   512   502  2.437425818E+01 -1.948074756E+01  2.365055694E+02  2.385550007E+02  2.697398305E-06  0.00000E+00  9.000E+00
#rwgt            1           1   2.6855117669768697E-002           2       76898           0
</event>
<event>
      5   9999  3.19816E-02  3.54380E+01 -1.00000E+00  1.48179E-01
      21    -1     0     0   502   501  0.000000000E+00  0.000000000E+00  7.660488421E+01  7.660488421E+01  0.000000000E+00  0.00000E+00  9.000E+00
      21    -1     0     0   511   502  0.000000000E+00  0.000000000E+00 -8.682638412E+02  8.682638412E+02  0.000000000E+00  0.00000E+00  9.000E+00
      25     1     1     2     0     0  4.768516814E+01 -1.186202514E+02 -6.806354114E+02  7.037287848E+02  1.250000000E+02  0.00000E+00  9.000E+00
      25     1     1     2     0     0 -1.658158001E+01  1.016374168E+02 -4.814337157E+01  1.689612308E+02  1.250000000E+02  0.00000E+00  9.000E+00
      21     1     1     2   511   501 -3.110358813E+01  1.698283463E+01 -6.288017407E+01  7.217870987E+01  9.536743164E-07  0.00000E+00  9.000E+00
#rwgt            1           1   2.7717392335190740E-002           2       77006           0
</event>
<event>
      5   9999  3.19816E-02  8.08360E+01 -1.00000E+00  1.28131E-01
      21    -1     0     0   512   501  0.000000000E+00  0.000000000E+00  1.744180793E+02  1.744180793E+02  0.000000000E+00  0.00000E+00  9.000E+00
      21    -1     0     0   501   502  0.000000000E+00  0.000000000E+00 -3.325489752E+03  3.325489752E+03  0.000000000E+00  0.00000E+00  9.000E+00
      25     1     1     2     0     0  5.860860812E+02  2.240451037E+02 -1.747147767E+03  1.860602973E+03  1.250000000E+02  0.00000E+00  9.000E+00
      25     1     1     2     0     0 -6.475628001E+02 -2.765339531E+02 -1.381159201E+03  1.555324515E+03  1.250000000E+02  0.00000E+00  9.000E+00
      21     1     1     2   512   502  6.147671893E+01  5.248884940E+01 -2.276470404E+01  8.398034313E+01  1.936921693E-06  0.00000E+00  9.000E+00
#rwgt            1           1   4.2780317058462289E-002           2       77125           0
</event>
<event>
      5   9999  3.19816E-02  4.52481E+01 -1.00000E+00  1.41596E-01
      21    -1     0     0   502   501  0.000000000E+00  0.000000000E+00  1.405779776E+03  1.405779776E+03  0.000000000E+00  0.00000E+00  9.000E+00
      21    -1     0     0   511   502  0.000000000E+00  0.000000000E+00 -2.433757730E+03  2.433757730E+03  0.000000000E+00  0.00000E+00  9.000E+00
      25     1     1     2     0     0 -1.268673127E+03 -8.513994685E+02 -1.462136321E+03  2.118461748E+03  1.250000000E+02  0.00000E+00  9.000E+00
      25     1     1     2     0     0  1.282208710E+03  8.082233507E+02  5.336842895E+02  1.611746904E+03  1.250000000E+02  0.00000E+00  9.000E+00
      21     1     1     2   511   501 -1.353558362E+01  4.317611777E+01 -9.952592231E+01  1.093288543E+02  1.907348633E-06  0.00000E+00  9.000E+00
#rwgt            1           1   2.3630930093720328E-002           2       77232           0
</event>
<event>
      5   9999  3.19816E-02  1.63258E+02 -1.00000E+00  1.14954E-01
      21    -1     0     0   502   501  0.000000000E+00  0.000000000E+00  7.855040236E+02  7.855040236E+02  0.000000000E+00  0.00000E+00  9.000E+00
      21    -1     0     0   512   502  0.000000000E+00  0.000000000E+00 -3.610710467E+02  3.610710467E+02  0.000000000E+00  0.00000E+00  9.000E+00
      25     1     1     2     0     0 -7.862017284E+01 -1.499652782E+02  5.486104541E+02  5.875960743E+02  1.250000000E+02  0.00000E+00  9.000E+00
      25     1     1     2     0     0  3.585332836E+01  3.075218340E+02 -1.885989452E+02  3.834706008E+02  1.250000000E+02  0.00000E+00  9.000E+00
      21     1     1     2   512   501  4.276684449E+01 -1.575565558E+02  6.442146797E+01  1.755083952E+02  1.907348633E-06  0.00000E+00  9.000E+00
#rwgt            1           1   3.2445155276327665E-002           2       77437           0
</event>
<event>
      5   9999  3.19816E-02  1.59650E+01 -1.00000E+00  1.74870E-01
      21    -1     0     0   511   501  0.000000000E+00  0.000000000E+00  2.615680423E+03  2.615680423E+03  0.000000000E+00  0.00000E+00  9.000E+00
      21    -1     0     0   501   502  0.000000000E+00  0.000000000E+00 -1.091914153E+02  1.091914153E+02  0.000000000E+00  0.00000E+00  9.000E+00
      25     1     1     2     0     0  2.522938157E+02  1.492522438E+01  1.004600453E+03  1.043418421E+03  1.250000000E+02  0.00000E+00  9.000E+00
      25     1     1     2     0     0 -2.394190414E+02 -5.484748823E+00  1.135712926E+02  2.930443625E+02  1.250000000E+02  0.00000E+00  9.000E+00
      21     1     1     2   511   502 -1.287477426E+01 -9.440475558E+00  1.388317263E+03  1.388409055E+03  3.051757812E-05  0.00000E+00  9.000E+00
#rwgt            1           1   3.0723166021237858E-002           2       77503           0
</event>
<event>
      5   9999  3.19816E-02  2.25435E+01 -1.00000E+00  1.62191E-01
      21    -1     0     0   502   512  0.000000000E+00  0.000000000E+00  3.903807954E+02  3.903807954E+02  0.000000000E+00  0.00000E+00  9.000E+00
      21    -1     0     0   501   502  0.000000000E+00  0.000000000E+00 -1.734927017E+02  1.734927017E+02  0.000000000E+00  0.00000E+00  9.000E+00
      25     1     1     2     0     0 -2.361324777E+01  1.962920358E+02  1.818430475E+02  2.962769696E+02  1.250000000E+02  0.00000E+00  9.000E+00
      25     1     1     2     0     0  2.378957828E+00 -2.038626523E+02  1.894642040E+01  2.398949922E+02  1.250000000E+02  0.00000E+00  9.000E+00
      21     1     1     2   501   512  2.123428994E+01  7.570616480E+00  1.609862583E+01  2.770153528E+01  2.384185791E-07  0.00000E+00  9.000E+00
#rwgt            1           1   3.0795209354251785E-002           2       77675           0
</event>
<event>
      5   9999  3.19816E-02  7.90782E+00 -1.00000E+00  2.08331E-01
      21    -1     0     0   502   511  0.000000000E+00  0.000000000E+00  8.772407448E+01  8.772407448E+01  0.000000000E+00  0.00000E+00  9.000E+00
      21    -1     0     0   501   502  0.000000000E+00  0.000000000E+00 -1.793049060E+03  1.793049060E+03  0.000000000E+00  0.00000E+00  9.000E+00
      25     1     1     2     0     0 -2.807335293E+02 -1.080871542E+02 -4.758369775E+02  5.766627927E+02  1.250000000E+02  0.00000E+00  9.000E+00
      25     1     1     2     0     0  2.733011661E+02  1.107878231E+02 -1.245621205E+03  1.286143326E+03  1.250000000E+02  0.00000E+00  9.000E+00
      21     1     1     2   501   511  7.432363245E+00 -2.700668959E+00  1.613319649E+01  1.796701603E+01  7.907449699E-07  0.00000E+00  9.000E+00
#rwgt            1           1   3.5715477246186261E-002           2       77817           0
</event>
<event>
      5   9999  3.19816E-02  9.15340E+01 -1.00000E+00  1.25581E-01
      21    -1     0     0   502   501  0.000000000E+00  0.000000000E+00  9.231337112E+02  9.231337112E+02  0.000000000E+00  0.00000E+00  9.000E+00
      21    -1     0     0   512   502  0.000000000E+00  0.000000000E+00 -6.349949949E+02  6.349949949E+02  0.000000000E+00  0.00000E+00  9.000E+00
      25     1     1     2     0     0  6.213890147E+02 -5.941148403E+01  1.998940462E+02  6.672605651E+02  1.250000000E+02  0.00000E+00  9.000E+00
      25     1     1     2     0     0 -7.117101027E+02  4.455983577E+01  1.954568276E+02  7.498968067E+02  1.250000000E+02  0.00000E+00  9.000E+00
      21     1     1     2   512   501  9.032108802E+01  1.485164826E+01 -1.072121575E+02  1.409713343E+02  1.348699152E-06  0.00000E+00  9.000E+00
#rwgt            2          11   4.6131056392385954E-003           2       78089           0
</event>
<event>
      5   9999  3.19816E-02  4.49787E+01 -1.00000E+00  1.41750E-01
      21    -1     0     0   502   501  0.000000000E+00  0.000000000E+00  2.172277480E+03  2.172277480E+03  0.000000000E+00  0.00000E+00  9.000E+00
      21    -1     0     0   511   502  0.000000000E+00  0.000000000E+00 -1.674861173E+01  1.674861173E+01  0.000000000E+00  0.00000E+00  9.000E+00
      25     1     1     2     0     0  3.913847125E+01 -6.818331454E+01  1.252297485E+03  1.260973741E+03  1.250000000E+02  0.00000E+00  9.000E+00
      25     1     1     2     0     0 -2.211084532E+01  1.098143460E+02  7.338511210E+02  7.528017986E+02  1.250000000E+02  0.00000E+00  9.000E+00
      21     1     1     2   511   501 -1.702762593E+01 -4.163103145E+01  1.693802614E+02  1.752505514E+02  3.814697266E-06  0.00000E+00  9.000E+00
#rwgt            1           1   6.6044515415205660E-002           2       78109           0
</event>
<event>
      5   9999  3.19816E-02  9.29588E+01 -1.00000E+00  1.25271E-01
      21    -1     0     0   502   501  0.000000000E+00  0.000000000E+00  1.242638893E+02  1.242638893E+02  0.000000000E+00  0.00000E+00  9.000E+00
      21    -1     0     0   512   502  0.000000000E+00  0.000000000E+00 -6.809673060E+02  6.809673060E+02  0.000000000E+00  0.00000E+00  9.000E+00
      25     1     1     2     0     0 -1.963168403E+01 -1.141562632E+02 -1.132193231E+01  1.707929787E+02  1.250000000E+02  0.00000E+00  9.000E+00
      25     1     1     2     0     0  1.018415267E+02  1.575484565E+02 -4.364831163E+02  4.912593241E+02  1.250000000E+02  0.00000E+00  9.000E+00
      21     1     1     2   512   501 -8.220984272E+01 -4.339219337E+01 -1.088983681E+02  1.431788925E+02  1.348699152E-06  0.00000E+00  9.000E+00
#rwgt            1           1   3.0695444807608187E-002           2       78165           0
</event>
<event>
      5   9999  3.19816E-02  2.28245E+02 -1.00000E+00  1.09599E-01
      21    -1     0     0   502   501  0.000000000E+00  0.000000000E+00  1.687538278E+03  1.687538278E+03  0.000000000E+00  0.00000E+00  9.000E+00
      21    -1     0     0   501   511  0.000000000E+00  0.000000000E+00 -9.755906662E+02  9.755906662E+02  0.000000000E+00  0.00000E+00  9.000E+00
      25     1     1     2     0     0 -2.557098456E+02  5.801784242E+02  7.501486351E+02  9.901224691E+02  1.250000000E+02  0.00000E+00  9.000E+00
      25     1     1     2     0     0  7.184399216E+01 -7.154149412E+02  6.317434624E+02  9.652486206E+02  1.250000000E+02  0.00000E+00  9.000E+00
      21     1     1     2   502   511  1.838658535E+02  1.352365169E+02 -6.699444854E+02  7.077578548E+02  7.629394531E-06  0.00000E+00  9.000E+00
#rwgt            2          11   4.5971060969714267E-003           2       78261           0
</event>
<event>
      5   9999  3.19816E-02  1.36163E+02 -1.00000E+00  1.18084E-01
      21    -1     0     0   502   501  0.000000000E+00  0.000000000E+00  6.058585186E+01  6.058585186E+01  0.000000000E+00  0.00000E+00  9.000E+00
      21    -1     0     0   512   502  0.000000000E+00  0.000000000E+00 -1.702598421E+03  1.702598421E+03  0.000000000E+00  0.00000E+00  9.000E+00
      25     1     1     2     0     0 -5.638678909E+01  1.099164590E+02 -1.830316200E+02  2.537452893E+02  1.250000000E+02  0.00000E+00  9.000E+00
      25     1     1     2     0     0 -3.470442128E+01 -2.111226291E+02 -8.475857027E+02  8.830649380E+02  1.250000000E+02  0.00000E+00  9.000E+00
      21     1     1     2   512   501  9.109121038E+01  1.012061701E+02 -6.113952468E+02  6.263740458E+02  1.078959322E-05  0.00000E+00  9.000E+00
#rwgt            1           1   2.6511735507263767E-002           2       78311           0
</event>
<event>
      5   9999  3.19816E-02  6.93675E+01 -1.00000E+00  1.31421E-01
      21    -1     0     0   511   501  0.000000000E+00  0.000000000E+00  1.175302305E+03  1.175302305E+03  0.000000000E+00  0.00000E+00  9.000E+00
      21    -1     0     0   501   502  0.000000000E+00  0.000000000E+00 -3.678110556E+02  3.678110556E+02  0.000000000E+00  0.00000E+00  9.000E+00
      25     1     1     2     0     0 -3.042091918E+02 -1.238712821E+02 -2.412401457E+02  4.262735446E+02  1.250000000E+02  0.00000E+00  9.000E+00
      25     1     1     2     0     0  2.442293909E+02  8.902491008E+01  9.696698970E+02  1.011661079E+03  1.250000000E+02  0.00000E+00  9.000E+00
      21     1     1     2   511   502  5.997980090E+01  3.484637204E+01  7.906149766E+01  1.051787363E+02  1.348699152E-06  0.00000E+00  9.000E+00
#rwgt            1           1   3.2869603826482838E-002           2       78359           0
</event>
<event>
      5   9999  3.19816E-02  5.74067E+01 -1.00000E+00  1.35737E-01
      21    -1     0     0   502   512  0.000000000E+00  0.000000000E+00  4.067737359E+02  4.067737359E+02  0.000000000E+00  0.00000E+00  9.000E+00
      21    -1     0     0   501   502  0.000000000E+00  0.000000000E+00 -2.912298523E+02  2.912298523E+02  0.000000000E+00  0.00000E+00  9.000E+00
      25     1     1     2     0     0  3.097903349E+01  9.194733642E+01  2.820614919E+02  3.234156744E+02  1.250000000E+02  0.00000E+00  9.000E+00
      25     1     1     2     0     0 -6.431377415E+01 -1.386841199E+02 -2.203521994E+02  2.958878816E+02  1.250000000E+02  0.00000E+00  9.000E+00
      21     1     1     2   501   512  3.333474067E+01  4.673678350E+01  5.383459108E+01  7.870003217E+01  6.743495762E-07  0.00000E+00  9.000E+00
#rwgt            1           1   2.7442729311765075E-002           2       78456           0
</event>
<event>
      5   9999  3.19816E-02  3.84837E+01 -1.00000E+00  1.45889E-01
      21    -1     0     0   511   501  0.000000000E+00  0.000000000E+00  6.799371414E+02  6.799371414E+02  0.000000000E+00  0.00000E+00  9.000E+00
      21    -1     0     0   501   502  0.000000000E+00  0.000000000E+00 -1.801217569E+02  1.801217569E+02  0.000000000E+00  0.00000E+00  9.000E+00
      25     1     1     2     0     0 -1.747857504E+02  2.623945072E+02  3.108444236E+02  4.600545529E+02  1.250000000E+02  0.00000E+00  9.000E+00
      25     1     1     2     0     0  1.404049869E+02 -2.451041693E+02  1.439815516E+02  3.408009703E+02  1.250000000E+02  0.00000E+00  9.000E+00
      21     1     1     2   511   502  3.438076346E+01 -1.729033787E+01  4.498940929E+01  5.920337514E+01  6.743495762E-07  0.00000E+00  9.000E+00
#rwgt            1           1   3.1009692494724468E-002           2       78553           0
</event>
<event>
      5   9999  3.19816E-02  3.74014E+01 -1.00000E+00  1.46673E-01
      21    -1     0     0   502   512  0.000000000E+00  0.000000000E+00  5.877904422E+01  5.877904422E+01  0.000000000E+00  0.00000E+00  9.000E+00
      21    -1     0     0   501   502  0.000000000E+00  0.000000000E+00 -2.491804544E+03  2.491804544E+03  0.000000000E+00  0.00000E+00  9.000E+00
      25     1     1     2     0     0  4.635370665E+01 -2.901190403E+02 -1.860097212E+03  1.887300814E+03  1.250000000E+02  0.00000E+00  9.000E+00
      25     1     1     2     0     0 -2.916442627E+01  2.569016304E+02 -5.468982476E+02  6.177149057E+02  1.250000000E+02  0.00000E+00  9.000E+00
      21     1     1     2   501   512 -1.718928038E+01  3.321740990E+01 -2.603004047E+01  4.556786903E+01  1.348699152E-06  0.00000E+00  9.000E+00
#rwgt            1           1   7.0188467826383244E-002           2       78697           0
</event>
<event>
      5   9999  3.19816E-02  1.08027E+02 -1.00000E+00  1.22338E-01
      21    -1     0     0   502   511  0.000000000E+00  0.000000000E+00  4.917285097E+02  4.917285097E+02  0.000000000E+00  0.00000E+00  9.000E+00
      21    -1     0     0   501   502  0.000000000E+00  0.000000000E+00 -9.510219721E+02  9.510219721E+02  0.000000000E+00  0.00000E+00  9.000E+00
      25     1     1     2     0     0  2.676785880E+02 -2.565635061E+01 -7.727437375E+02  8.276883221E+02  1.250000000E+02  0.00000E+00  9.000E+00
      25     1     1     2     0     0 -3.630967386E+02  7.630391865E+01  3.216840596E+02  5.067219787E+02  1.250000000E+02  0.00000E+00  9.000E+00
      21     1     1     2   501   511  9.541815059E+01 -5.064756804E+01 -8.233784496E+00  1.083401810E+02  1.440411326E-06  0.00000E+00  9.000E+00
#rwgt            1           1   2.6501686962340572E-002           2       78847           0
</event>
<event>
      5   9999  3.19816E-02  9.30781E+01 -1.00000E+00  1.25245E-01
      21    -1     0     0   502   501  0.000000000E+00  0.000000000E+00  3.330143962E+02  3.330143962E+02  0.000000000E+00  0.00000E+00  9.000E+00
      21    -1     0     0   512   502  0.000000000E+00  0.000000000E+00 -7.704050974E+02  7.704050974E+02  0.000000000E+00  0.00000E+00  9.000E+00
      25     1     1     2     0     0 -2.308695202E+02 -2.864302637E+02 -3.394887898E+02  5.159657641E+02  1.250000000E+02  0.00000E+00  9.000E+00
      25     1     1     2     0     0  3.236035394E+02  2.944264151E+02 -3.696379300E+00  4.550217884E+02  1.250000000E+02  0.00000E+00  9.000E+00
      21     1     1     2   512   501 -9.273401919E+01 -7.996151472E+00 -9.420553202E+01  1.324319411E+02  1.348699152E-06  0.00000E+00  9.000E+00
#rwgt            1           1   2.7855548787706606E-002           2       78907           0
</event>
<event>
      5   9999  3.19816E-02  7.79797E+01 -1.00000E+00  1.28889E-01
      21    -1     0     0   502   501  0.000000000E+00  0.000000000E+00  1.786513236E+02  1.786513236E+02  0.000000000E+00  0.00000E+00  9.000E+00
      21    -1     0     0   511   502  0.000000000E+00  0.000000000E+00 -1.349914418E+03  1.349914418E+03  0.000000000E+00  0.00000E+00  9.000E+00
      25     1     1     2     0     0 -4.964684493E+01  1.267799115E+02  9.447244058E+01  2.075764852E+02  1.250000000E+02  0.00000E+00  9.000E+00
      25     1     1     2     0     0  7.983387897E+01 -1.986796388E+02 -5.791486453E+02  6.299882542E+02  1.250000000E+02  0.00000E+00  9.000E+00
      21     1     1     2   511   501 -3.018703404E+01  7.189972735E+01 -6.865868897E+02  6.910010021E+02  0.000000000E+00  0.00000E+00  9.000E+00
#rwgt            1           1   2.7770273662932856E-002           2       78976           0
</event>
<event>
      5   9999  3.19816E-02  4.12328E+02 -1.00000E+00  1.01290E-01
       4    -1     0     0   502     0  0.000000000E+00  0.000000000E+00  9.331738423E+02  9.331738423E+02  0.000000000E+00  0.00000E+00  9.000E+00
      21    -1     0     0   501   502  0.000000000E+00  0.000000000E+00 -4.687556251E+02  4.687556251E+02  0.000000000E+00  0.00000E+00  9.000E+00
      25     1     1     2     0     0 -5.715929460E+01  4.064649457E+02  4.067993123E+02  5.912627314E+02  1.250000000E+02  0.00000E+00  9.000E+00
      25     1     1     2     0     0  3.529690933E+02 -1.192180889E+02  6.479960739E+01  3.982764400E+02  1.250000000E+02  0.00000E+00  9.000E+00
       4     1     1     2   501     0 -2.958097987E+02 -2.872468568E+02 -7.180702439E+00  4.123902960E+02  6.545664746E-06  0.00000E+00  9.000E+00
#rwgt            2          20   1.1604114244533194E-005           2       79050           0
</event>
<event>
      5   9999  3.19816E-02  1.29363E+02 -1.00000E+00  1.18999E-01
      21    -1     0     0   502   501  0.000000000E+00  0.000000000E+00  6.362893564E+02  6.362893564E+02  0.000000000E+00  0.00000E+00  9.000E+00
       2    -1     0     0   501     0  0.000000000E+00  0.000000000E+00 -4.831631053E+02  4.831631053E+02  0.000000000E+00  0.00000E+00  9.000E+00
      25     1     1     2     0     0  1.386228308E+01 -3.477932680E+02 -1.408928145E+02  3.957626881E+02  1.250000000E+02  0.00000E+00  9.000E+00
      25     1     1     2     0     0 -8.655956666E+01  2.407891416E+02  4.428409769E+02  5.265027067E+02  1.250000000E+02  0.00000E+00  9.000E+00
       2     1     1     2   502     0  7.269728358E+01  1.070041264E+02 -1.488219113E+02  1.971870670E+02  1.907348633E-06  0.00000E+00  9.000E+00
#rwgt            1           1   2.8739492877775021E-002           2       79084           0
</event>
<event>
      5   9999  3.19816E-02  2.49200E+02 -1.00000E+00  1.08278E-01
      21    -1     0     0   502   501  0.000000000E+00  0.000000000E+00  3.124911581E+03  3.124911581E+03  0.000000000E+00  0.00000E+00  9.000E+00
      21    -1     0     0   501   511  0.000000000E+00  0.000000000E+00 -1.491025036E+02  1.491025036E+02  0.000000000E+00  0.00000E+00  9.000E+00
      25     1     1     2     0     0  3.040358632E+02  2.622736274E+02  1.680207616E+03  1.732035766E+03  1.250000000E+02  0.00000E+00  9.000E+00
      25     1     1     2     0     0 -2.706758645E+02 -1.531645033E+01  1.254349839E+03  1.289386883E+03  1.250000000E+02  0.00000E+00  9.000E+00
      21     1     1     2   502   511 -3.335999867E+01 -2.469571771E+02  4.125162274E+01  2.525914353E+02  6.162094108E-06  0.00000E+00  9.000E+00
#rwgt            2          11   8.3059679234599622E-003           2       79304           0
</event>
<event>
      5   9999  3.19816E-02  2.10855E+01 -1.00000E+00  1.64497E-01
      21    -1     0     0   512   501  0.000000000E+00  0.000000000E+00  8.928687340E+02  8.928687340E+02  0.000000000E+00  0.00000E+00  9.000E+00
      21    -1     0     0   501   502  0.000000000E+00  0.000000000E+00 -5.251945754E+01  5.251945754E+01  0.000000000E+00  0.00000E+00  9.000E+00
      25     1     1     2     0     0  7.195400033E+01  1.076533180E+02  3.529878364E+02  3.962221949E+02  1.250000000E+02  0.00000E+00  9.000E+00
      25     1     1     2     0     0 -7.575804979E+01 -1.283928795E+02  2.812590100E+02  3.419877839E+02  1.250000000E+02  0.00000E+00  9.000E+00
      21     1     1     2   512   502  3.804049461E+00  2.073956144E+01  2.061024300E+02  2.071782128E+02  2.697398305E-06  0.00000E+00  9.000E+00
#rwgt            1           1   3.1701744492932740E-002           2       79324           0
</event>
<event>
      5   9999  3.19816E-02  6.32655E+01 -1.00000E+00  1.33485E-01
      21    -1     0     0   502   501  0.000000000E+00  0.000000000E+00  6.887881415E+02  6.887881415E+02  0.000000000E+00  0.00000E+00  9.000E+00
      -3    -1     0     0     0   502  0.000000000E+00  0.000000000E+00 -1.541114200E+02  1.541114200E+02  0.000000000E+00  0.00000E+00  9.000E+00
      25     1     1     2     0     0 -1.822796131E+02 -1.146548321E+02  2.498255760E+01  2.502413157E+02  1.250000000E+02  0.00000E+00  9.000E+00
      25     1     1     2     0     0  1.276931686E+02  8.267286664E+01  4.872553924E+02  5.255313175E+02  1.250000000E+02  0.00000E+00  9.000E+00
      -3     1     1     2     0   501  5.458644452E+01  3.198196550E+01  2.243877147E+01  6.712692834E+01  1.168007728E-06  0.00000E+00  9.000E+00
#rwgt            1           1   3.2737679910822971E-002           2       79402           0
</event>
<event>
      5   9999  3.19816E-02  4.45475E+01 -1.00000E+00  1.41998E-01
      21    -1     0     0   511   501  0.000000000E+00  0.000000000E+00  8.195248447E+01  8.195248447E+01  0.000000000E+00  0.00000E+00  9.000E+00
      21    -1     0     0   501   502  0.000000000E+00  0.000000000E+00 -9.716512598E+02  9.716512598E+02  0.000000000E+00  0.00000E+00  9.000E+00
      25     1     1     2     0     0  3.757131273E+01 -9.140775841E+00 -7.374085921E+01  1.501927816E+02  1.250000000E+02  0.00000E+00  9.000E+00
      25     1     1     2     0     0 -8.211115933E+01  9.967459905E+00 -8.396716284E+02  8.529449198E+02  1.250000000E+02  0.00000E+00  9.000E+00
      21     1     1     2   511   502  4.453984660E+01 -8.266840640E-01  2.371371220E+01  5.046604292E+01  1.215700987E-06  0.00000E+00  9.000E+00
#rwgt            1           1   3.2493354593514101E-002           2       79479           0
</event>
<event>
      5   9999  3.19816E-02  1.45469E+02 -1.00000E+00  1.16924E-01
      21    -1     0     0   502   501  0.000000000E+00  0.000000000E+00  1.583627808E+02  1.583627808E+02  0.000000000E+00  0.00000E+00  9.000E+00
      21    -1     0     0   512   502  0.000000000E+00  0.000000000E+00 -1.352620504E+03  1.352620504E+03  0.000000000E+00  0.00000E+00  9.000E+00
      25     1     1     2     0     0 -2.721273022E+02  8.609655104E+01 -1.021425974E+02  3.279085161E+02  1.250000000E+02  0.00000E+00  9.000E+00
      25     1     1     2     0     0  1.874398269E+02 -2.043727286E+02 -8.184744277E+02  8.731708250E+02  1.250000000E+02  0.00000E+00  9.000E+00
      21     1     1     2   512   501  8.468747534E+01  1.182761775E+02 -2.736406979E+02  3.099039435E+02  3.814697266E-06  0.00000E+00  9.000E+00
#rwgt            2          11   3.5748783146080112E-003           2       79673           0
</event>
<event>
      5   9999  3.19816E-02  1.09881E+02 -1.00000E+00  1.22015E-01
      -1    -1     0     0     0   501  0.000000000E+00  0.000000000E+00  1.820572494E+03  1.820572494E+03  0.000000000E+00  0.00000E+00  9.000E+00
      21    -1     0     0   501   502  0.000000000E+00  0.000000000E+00 -1.132433819E+02  1.132433819E+02  0.000000000E+00  0.00000E+00  9.000E+00
      25     1     1     2     0     0  1.276530781E+02 -8.153050036E-01  4.200669714E+02  4.564835523E+02  1.250000000E+02  0.00000E+00  9.000E+00
      25     1     1     2     0     0 -2.019321949E+02 -8.015709830E+01  7.717229074E+01  2.622638637E+02  1.250000000E+02  0.00000E+00  9.000E+00
      -1     1     1     2     0   502  7.427911680E+01  8.097240331E+01  1.210089850E+03  1.215068460E+03  1.525878906E-05  0.00000E+00  9.000E+00
#rwgt            1           1   2.7179374197291536E-002           2       79693           0
</event>
<event>
      5   9999  3.19816E-02  3.01287E+01 -1.00000E+00  1.52911E-01
      21    -1     0     0   502   501  0.000000000E+00  0.000000000E+00  1.249146155E+02  1.249146155E+02  0.000000000E+00  0.00000E+00  9.000E+00
      21    -1     0     0   511   502  0.000000000E+00  0.000000000E+00 -1.848172967E+03  1.848172967E+03  0.000000000E+00  0.00000E+00  9.000E+00
      25     1     1     2     0     0 -2.829095794E+02  2.241157436E+02 -4.725157462E+02  6.075868885E+02  1.250000000E+02  0.00000E+00  9.000E+00
      25     1     1     2     0     0  2.530546862E+02 -2.281685668E+02 -5.199670959E+02  6.341043683E+02  1.250000000E+02  0.00000E+00  9.000E+00
      21     1     1     2   511   501  2.985489314E+01  4.052823138E+00 -7.307755099E+02  7.313963261E+02  1.078959322E-05  0.00000E+00  9.000E+00
#rwgt            1           1   2.9730340792933768E-002           2       79736           0
</event>
<event>
      5   9999  3.19816E-02  1.53831E+02 -1.00000E+00  1.15961E-01
      -2    -1     0     0     0   501  0.000000000E+00  0.000000000E+00  9.566045513E+02  9.566045513E+02  0.000000000E+00  0.00000E+00  9.000E+00
      21    -1     0     0   501   502  0.000000000E+00  0.000000000E+00 -3.784740306E+02  3.784740306E+02  0.000000000E+00  0.00000E+00  9.000E+00
      25     1     1     2     0     0 -1.391402431E+01  2.667124701E+02 -1.773674560E+02  3.441124180E+02  1.250000000E+02  0.00000E+00  9.000E+00
      25     1     1     2     0     0  1.569927652E+02 -3.232151193E+02  2.326176617E+02  4.459268081E+02  1.250000000E+02  0.00000E+00  9.000E+00
      -2     1     1     2     0   502 -1.430787409E+02  5.650264921E+01  5.228803150E+02  5.450393557E+02  7.629394531E-06  0.00000E+00  9.000E+00
#rwgt            1           1   3.0096547475549310E-002           2       79861           0
</event>
<event>
      5   9999  3.19816E-02  7.44965E+01 -1.00000E+00  1.29866E-01
      21    -1     0     0   502   501  0.000000000E+00  0.000000000E+00  2.113691064E+03  2.113691064E+03  0.000000000E+00  0.00000E+00  9.000E+00
      21    -1     0     0   511   502  0.000000000E+00  0.000000000E+00 -2.287933223E+02  2.287933223E+02  0.000000000E+00  0.00000E+00  9.000E+00
      25     1     1     2     0     0 -1.792857729E+02 -1.764713299E+02  1.884221779E+03  1.905046517E+03  1.250000000E+02  0.00000E+00  9.000E+00
      25     1     1     2     0     0  2.001722016E+02  2.479800039E+02  5.299468340E+01  3.464050073E+02  1.250000000E+02  0.00000E+00  9.000E+00
      21     1     1     2   511   501 -2.088642868E+01 -7.150867403E+01 -5.231872109E+01  9.103286187E+01  2.431401974E-06  0.00000E+00  9.000E+00
#rwgt            1           1   2.5575819564880829E-002           2       79910           0
</event>
<event>
      5   9999  3.19816E-02  1.06564E+02 -1.00000E+00  1.22599E-01
       2    -1     0     0   502     0  0.000000000E+00  0.000000000E+00  2.134773988E+03  2.134773988E+03  0.000000000E+00  0.00000E+00  9.000E+00
      21    -1     0     0   501   502  0.000000000E+00  0.000000000E+00 -1.701395854E+02  1.701395854E+02  0.000000000E+00  0.00000E+00  9.000E+00
      25     1     1     2     0     0 -2.635150442E+02 -6.152490990E+01  6.304445021E+02  6.973598521E+02  1.250000000E+02  0.00000E+00  9.000E+00
      25     1     1     2     0     0  2.259149889E+02 -3.818574676E+01 -8.017525773E+00  2.611226038E+02  1.250000000E+02  0.00000E+00  9.000E+00
       2     1     1     2   501     0  3.760005527E+01  9.971065666E+01  1.342207426E+03  1.346431118E+03  0.000000000E+00  0.00000E+00  9.000E+00
#rwgt            1           1   3.0737130262061808E-002           2       80122           0
</event>
<event>
      5   9999  3.19816E-02  1.67158E+01 -1.00000E+00  1.73064E-01
       3    -1     0     0   502     0  0.000000000E+00  0.000000000E+00  6.301382958E+02  6.301382958E+02  0.000000000E+00  0.00000E+00  9.000E+00
      21    -1     0     0   501   502  0.000000000E+00  0.000000000E+00 -1.397296189E+02  1.397296189E+02  0.000000000E+00  0.00000E+00  9.000E+00
      25     1     1     2     0     0 -3.968529379E+01 -5.405082058E+01 -4.882358474E+01  1.500171863E+02  1.250000000E+02  0.00000E+00  9.000E+00
      25     1     1     2     0     0  4.039919693E+01  3.735024007E+01  7.595724714E+01  1.562742427E+02  1.250000000E+02  0.00000E+00  9.000E+00
       3     1     1     2   501     0 -7.139031358E-01  1.670058051E+01  4.632750145E+02  4.635764857E+02  5.394796609E-06  0.00000E+00  9.000E+00
#rwgt            1           1   5.8650394337712561E-002           2       80247           0
</event>
<event>
      5   9999  3.19816E-02  2.22484E+01 -1.00000E+00  1.62640E-01
      21    -1     0     0   511   501  0.000000000E+00  0.000000000E+00  5.779064267E+02  5.779064267E+02  0.000000000E+00  0.00000E+00  9.000E+00
      21    -1     0     0   501   502  0.000000000E+00  0.000000000E+00 -1.850846414E+02  1.850846414E+02  0.000000000E+00  0.00000E+00  9.000E+00
      25     1     1     2     0     0 -1.759249659E+02  1.690236260E+02  3.794636012E+02  4.681198612E+02  1.250000000E+02  0.00000E+00  9.000E+00
      25     1     1     2     0     0  1.543816640E+02 -1.634669254E+02 -1.632866894E+01  2.577726892E+02  1.250000000E+02  0.00000E+00  9.000E+00
      21     1     1     2   511   502  2.154330197E+01 -5.556700671E+00  2.968685303E+01  3.709851782E+01  5.840038640E-07  0.00000E+00  9.000E+00
#rwgt            1           1   3.1447263364107615E-002           2       80370           0
</event>
<event>
      5   9999  3.19816E-02  1.56343E+01 -1.00000E+00  1.75706E-01
      21    -1     0     0   502   512  0.000000000E+00  0.000000000E+00  2.243025910E+02  2.243025910E+02  0.000000000E+00  0.00000E+00  9.000E+00
      21    -1     0     0   501   502  0.000000000E+00  0.000000000E+00 -1.053527316E+03  1.053527316E+03  0.000000000E+00  0.00000E+00  9.000E+00
      25     1     1     2     0     0  9.514998565E+00  1.988745838E+02 -8.440502789E+02  8.761777837E+02  1.250000000E+02  0.00000E+00  9.000E+00
      25     1     1     2     0     0  5.971263987E+00 -2.010206586E+02 -1.203190722E+02  2.656061752E+02  1.250000000E+02  0.00000E+00  9.000E+00
      21     1     1     2   501   512 -1.548626255E+01  2.146074788E+00  1.351446262E+02  1.360459480E+02  3.814697266E-06  0.00000E+00  9.000E+00
#rwgt            1           1   3.0958190422851650E-002           2       80545           0
</event>
<event>
      5   9999  3.19816E-02  1.30253E+01 -1.00000E+00  1.83360E-01
      21    -1     0     0   502   511  0.000000000E+00  0.000000000E+00  7.736269584E+02  7.736269584E+02  0.000000000E+00  0.00000E+00  9.000E+00
      21    -1     0     0   501   502  0.000000000E+00  0.000000000E+00 -1.212562728E+03  1.212562728E+03  0.000000000E+00  0.00000E+00  9.000E+00
      25     1     1     2     0     0  1.813475636E+02  4.278256984E+02 -9.611029957E+02  1.074832887E+03  1.250000000E+02  0.00000E+00  9.000E+00
      25     1     1     2     0     0 -1.773573312E+02 -4.402247973E+02  1.151368070E+02  5.041180213E+02  1.250000000E+02  0.00000E+00  9.000E+00
      21     1     1     2   501   511 -3.990232381E+00  1.239909892E+01  4.070304194E+02  4.072387776E+02  9.344061824E-06  0.00000E+00  9.000E+00
#rwgt            1           1   3.3267594186196965E-002           2       80745           0
</event>
<event>
      5   9999  3.19816E-02  1.85241E+02 -1.00000E+00  1.12874E-01
      21    -1     0     0   502   501  0.000000000E+00  0.000000000E+00  4.577604301E+02  4.577604301E+02  0.000000000E+00  0.00000E+00  9.000E+00
      21    -1     0     0   512   502  0.000000000E+00  0.000000000E+00 -7.290419221E+02  7.290419221E+02  0.000000000E+00  0.00000E+00  9.000E+00
      25     1     1     2     0     0  8.310101977E+01 -1.009995286E+02  3.545835314E+02  3.980718088E+02  1.250000000E+02  0.00000E+00  9.000E+00
      25     1     1     2     0     0  9.177032160E+01  3.989142182E+01 -2.764674030E+01  1.624883371E+02  1.250000000E+02  0.00000E+00  9.000E+00
      21     1     1     2   512   501 -1.748713414E+02  6.110810674E+01 -5.982182830E+02  6.262422062E+02  0.000000000E+00  0.00000E+00  9.000E+00
#rwgt            1           1   2.6533802278744363E-002           2       80995           0
</event>
<event>
      5   9999  3.19816E-02  5.82405E+01 -1.00000E+00  1.35398E-01
      21    -1     0     0   502   501  0.000000000E+00  0.000000000E+00  1.888725306E+02  1.888725306E+02  0.000000000E+00  0.00000E+00  9.000E+00
      21    -1     0     0   501   511  0.000000000E+00  0.000000000E+00 -9.287111533E+02  9.287111533E+02  0.000000000E+00  0.00000E+00  9.000E+00
      25     1     1     2     0     0  3.023161062E+02  1.190468175E+02 -5.684525714E+02  6.665812019E+02  1.250000000E+02  0.00000E+00  9.000E+00
      25     1     1     2     0     0 -3.006749945E+02 -6.082947772E+01 -7.698990191E+01  3.400854638E+02  1.250000000E+02  0.00000E+00  9.000E+00
      21     1     1     2   502   511 -1.641111691E+00 -5.821733980E+01 -9.439614941E+01  1.109170182E+02  0.000000000E+00  0.00000E+00  9.000E+00
#rwgt            1           1   2.8121818749370676E-002           2       81035           0
</event>
<event>
      5   9999  3.19816E-02  1.77887E+01 -1.00000E+00  1.70680E-01
      21    -1     0     0   502   501  0.000000000E+00  0.000000000E+00  2.558672673E+02  2.558672673E+02  0.000000000E+00  0.00000E+00  9.000E+00
      21    -1     0     0   512   502  0.000000000E+00  0.000000000E+00 -9.457488750E+02  9.457488750E+02  0.000000000E+00  0.00000E+00  9.000E+00
      25     1     1     2     0     0  2.208951014E+02 -4.039724210E+02 -2.396602750E+02  5.339011240E+02  1.250000000E+02  0.00000E+00  9.000E+00
      25     1     1     2     0     0 -2.032706641E+02  4.015606375E+02 -4.018638991E+02  6.161895016E+02  1.250000000E+02  0.00000E+00  9.000E+00
      21     1     1     2   512   501 -1.762443739E+01  2.411783525E+00 -4.835743361E+01  5.152551677E+01  6.743495762E-07  0.00000E+00  9.000E+00
#rwgt            1           1   2.7240556791666280E-002           2       81123           0
</event>
<event>
      5   9999  3.19816E-02  7.93406E+01 -1.00000E+00  1.28524E-01
      21    -1     0     0   511   501  0.000000000E+00  0.000000000E+00  2.408198838E+03  2.408198838E+03  0.000000000E+00  0.00000E+00  9.000E+00
      21    -1     0     0   501   502  0.000000000E+00  0.000000000E+00 -2.944929986E+02  2.944929986E+02  0.000000000E+00  0.00000E+00  9.000E+00
      25     1     1     2     0     0 -8.138000801E+01 -6.300683864E+02  1.340807462E+03  1.488958874E+03  1.250000000E+02  0.00000E+00  9.000E+00
      25     1     1     2     0     0  1.390228037E+02  5.755501834E+02  2.029343548E+02  6.382732220E+02  1.250000000E+02  0.00000E+00  9.000E+00
      21     1     1     2   511   502 -5.764279564E+01  5.451820293E+01  5.699640223E+02  5.754597406E+02  0.000000000E+00  0.00000E+00  9.000E+00
#rwgt            1           1   3.3327702157060317E-002           2       81352           0
</event>
<event>
      5   9999  3.19816E-02  1.53940E+01 -1.00000E+00  1.76329E-01
      21    -1     0     0   502   501  0.000000000E+00  0.000000000E+00  1.146748328E+02  1.146748328E+02  0.000000000E+00  0.00000E+00  9.000E+00
      21    -1     0     0   501   512  0.000000000E+00  0.000000000E+00 -4.760225651E+02  4.760225651E+02  0.000000000E+00  0.00000E+00  9.000E+00
      25     1     1     2     0     0 -1.324291101E+02 -8.206120962E+01 -1.429010105E+02  2.455956232E+02  1.250000000E+02  0.00000E+00  9.000E+00
      25     1     1     2     0     0  1.222571243E+02  7.050668275E+01 -7.834866056E+01  2.041604991E+02  1.250000000E+02  0.00000E+00  9.000E+00
      21     1     1     2   502   512  1.017198576E+01  1.155452687E+01 -1.400980613E+02  1.409412756E+02  1.907348633E-06  0.00000E+00  9.000E+00
#rwgt            1           1   2.5226241169858738E-002           2       81428           0
</event>
<event>
      5   9999  3.19816E-02  2.09580E+01 -1.00000E+00  1.64710E-01
       2    -1     0     0   502     0  0.000000000E+00  0.000000000E+00  2.506101403E+03  2.506101403E+03  0.000000000E+00  0.00000E+00  9.000E+00
      21    -1     0     0   501   502  0.000000000E+00  0.000000000E+00 -6.358273681E+02  6.358273681E+02  0.000000000E+00  0.00000E+00  9.000E+00
      25     1     1     2     0     0 -4.563874450E+00  4.204920737E+01 -5.628779220E+02  5.781397062E+02  1.250000000E+02  0.00000E+00  9.000E+00
      25     1     1     2     0     0 -1.639181134E+01 -4.235786333E+01  2.472004164E+00  1.330187613E+02  1.250000000E+02  0.00000E+00  9.000E+00
       2     1     1     2   501     0  2.095568579E+01  3.086559586E-01  2.430679953E+03  2.430770304E+03  3.051757812E-05  0.00000E+00  9.000E+00
#rwgt            1           1   3.0861603041791905E-002           2       81618           0
</event>
<event>
      5   9999  3.19816E-02  1.21990E+02 -1.00000E+00  1.20066E-01
      21    -1     0     0   502   501  0.000000000E+00  0.000000000E+00  9.801378861E+02  9.801378861E+02  0.000000000E+00  0.00000E+00  9.000E+00
       2    -1     0     0   501     0  0.000000000E+00  0.000000000E+00 -1.012430492E+03  1.012430492E+03  0.000000000E+00  0.00000E+00  9.000E+00
      25     1     1     2     0     0  4.213320389E+02  7.620156421E+02  1.918630301E+02  9.003471264E+02  1.250000000E+02  0.00000E+00  9.000E+00
      25     1     1     2     0     0 -3.830559941E+02 -6.461860311E+02  7.883947588E+01  7.655905853E+02  1.250000000E+02  0.00000E+00  9.000E+00
       2     1     1     2   502     0 -3.827604479E+01 -1.158296110E+02 -3.029951120E+02  3.266306665E+02  3.814697266E-06  0.00000E+00  9.000E+00
#rwgt            1           1   3.0786003679362045E-002           2       81799           0
</event>
<event>
      5   9999  3.19816E-02  1.44119E+02 -1.00000E+00  1.17086E-01
      21    -1     0     0   502   501  0.000000000E+00  0.000000000E+00  4.007371198E+02  4.007371198E+02  0.000000000E+00  0.00000E+00  9.000E+00
       1    -1     0     0   501     0  0.000000000E+00  0.000000000E+00 -1.121308107E+03  1.121308107E+03  0.000000000E+00  0.00000E+00  9.000E+00
      25     1     1     2     0     0 -2.008536750E+02 -5.114376780E+02 -3.612820672E+02  6.693731615E+02  1.250000000E+02  0.00000E+00  9.000E+00
      25     1     1     2     0     0  3.241961190E+02  4.368936086E+02 -4.176731165E+02  6.971764347E+02  1.250000000E+02  0.00000E+00  9.000E+00
       1     1     1     2   502     0 -1.233424440E+02  7.454406938E+01  5.838419651E+01  1.554956307E+02  2.023048729E-06  0.00000E+00  9.000E+00
#rwgt            2          12   5.4591429459309389E-005           2       81929           0
</event>
<event>
      5   9999  3.19816E-02  6.85805E+01 -1.00000E+00  1.31673E-01
      21    -1     0     0   502   501  0.000000000E+00  0.000000000E+00  1.538073441E+03  1.538073441E+03  0.000000000E+00  0.00000E+00  9.000E+00
      21    -1     0     0   501   511  0.000000000E+00  0.000000000E+00 -2.390177453E+02  2.390177453E+02  0.000000000E+00  0.00000E+00  9.000E+00
      25     1     1     2     0     0 -2.351308534E+02 -4.544431247E+02  7.769650909E+02  9.386718405E+02  1.250000000E+02  0.00000E+00  9.000E+00
      25     1     1     2     0     0  2.217509016E+02  3.871805330E+02  5.843666176E+02  7.457825228E+02  1.250000000E+02  0.00000E+00  9.000E+00
      21     1     1     2   502   511  1.337995177E+01  6.726259169E+01 -6.227601234E+01  9.263682347E+01  1.168007728E-06  0.00000E+00  9.000E+00
#rwgt            1           1   3.6058766064825179E-002           2       81978           0
</event>
<event>
      5   9999  3.19816E-02  1.73407E+01 -1.00000E+00  1.71649E-01
      21    -1     0     0   502   501  0.000000000E+00  0.000000000E+00  3.143399281E+02  3.143399281E+02  0.000000000E+00  0.00000E+00  9.000E+00
      21    -1     0     0   501   512  0.000000000E+00  0.000000000E+00 -1.912910116E+02  1.912910116E+02  0.000000000E+00  0.00000E+00  9.000E+00
      25     1     1     2     0     0 -8.837248691E+01  1.803924319E+02  1.170088343E+02  2.639454361E+02  1.250000000E+02  0.00000E+00  9.000E+00
      25     1     1     2     0     0  7.483225632E+01 -1.695591329E+02  1.044152905E+01  2.237949769E+02  1.250000000E+02  0.00000E+00  9.000E+00
      21     1     1     2   502   512  1.354023059E+01 -1.083329899E+01 -4.401446823E+00  1.789052670E+01  3.097148194E-07  0.00000E+00  9.000E+00
#rwgt            1           1   2.7606353376135612E-002           2       82070           0
</event>
<event>
      5   9999  3.19816E-02  1.26327E+02 -1.00000E+00  1.19429E-01
      21    -1     0     0   502   501  0.000000000E+00  0.000000000E+00  8.438440063E+02  8.438440063E+02  0.000000000E+00  0.00000E+00  9.000E+00
      21    -1     0     0   511   502  0.000000000E+00  0.000000000E+00 -6.568307274E+02  6.568307274E+02  0.000000000E+00  0.00000E+00  9.000E+00
      25     1     1     2     0     0  2.581175096E+02  2.998895644E+02  6.955019925E+01  4.207381962E+02  1.250000000E+02  0.00000E+00  9.000E+00
      25     1     1     2     0     0 -1.580680602E+02 -2.227619131E+02  5.514391296E+02  6.279478443E+02  1.250000000E+02  0.00000E+00  9.000E+00
      21     1     1     2   511   501 -1.000494494E+02 -7.712765129E+01 -4.339760499E+02  4.519886932E+02  7.629394531E-06  0.00000E+00  9.000E+00
#rwgt            1           1   2.0232766536395080E-002           2       82208           0
</event>
<event>
      5   9999  3.19816E-02  4.86869E+01 -1.00000E+00  1.39738E-01
      21    -1     0     0   502   501  0.000000000E+00  0.000000000E+00  5.095871639E+02  5.095871639E+02  0.000000000E+00  0.00000E+00  9.000E+00
      21    -1     0     0   512   502  0.000000000E+00  0.000000000E+00 -2.858026880E+02  2.858026880E+02  0.000000000E+00  0.00000E+00  9.000E+00
      25     1     1     2     0     0 -3.070008179E+02 -4.983657887E+01  2.556407607E+02  4.215570962E+02  1.250000000E+02  0.00000E+00  9.000E+00
      25     1     1     2     0     0  2.583169182E+02  5.037308516E+01  3.246572909E+01  2.931622443E+02  1.250000000E+02  0.00000E+00  9.000E+00
      21     1     1     2   512   501  4.868389966E+01 -5.365062916E-01 -6.432201398E+01  8.067051139E+01  9.536743164E-07  0.00000E+00  9.000E+00
#rwgt            1           1   2.8001175891144290E-002           2       82287           0
</event>
<event>
      5   9999  3.19816E-02  6.11919E+01 -1.00000E+00  1.34248E-01
      21    -1     0     0   502   511  0.000000000E+00  0.000000000E+00  5.088996142E+02  5.088996142E+02  0.000000000E+00  0.00000E+00  9.000E+00
      21    -1     0     0   501   502  0.000000000E+00  0.000000000E+00 -2.587697916E+02  2.587697916E+02  0.000000000E+00  0.00000E+00  9.000E+00
      25     1     1     2     0     0  2.155678343E+01 -2.603479014E+02  1.933028469E+02  3.481906307E+02  1.250000000E+02  0.00000E+00  9.000E+00
      25     1     1     2     0     0 -1.850833066E+01  3.214637900E+02  1.572731692E+01  3.457656361E+02  1.250000000E+02  0.00000E+00  9.000E+00
      21     1     1     2   501   511 -3.048452774E+00 -6.111588858E+01  4.109965877E+01  7.371313894E+01  8.259061849E-07  0.00000E+00  9.000E+00
#rwgt            1           1   2.6622721840575587E-002           2       82379           0
</event>
<event>
      5   9999  3.19816E-02  1.66671E+01 -1.00000E+00  1.73178E-01
      21    -1     0     0   512   501  0.000000000E+00  0.000000000E+00  2.921525694E+02  2.921525694E+02  0.000000000E+00  0.00000E+00  9.000E+00
      21    -1     0     0   501   502  0.000000000E+00  0.000000000E+00 -6.828060505E+02  6.828060505E+02  0.000000000E+00  0.00000E+00  9.000E+00
      25     1     1     2     0     0 -1.446082393E+02  2.325139751E+01 -6.239233517E+02  6.529605801E+02  1.250000000E+02  0.00000E+00  9.000E+00
      25     1     1     2     0     0  1.578020128E+02 -1.306731976E+01  2.281807851E+02  3.045713394E+02  1.250000000E+02  0.00000E+00  9.000E+00
      21     1     1     2   512   502 -1.319377349E+01 -1.018407775E+01  5.089085460E+00  1.742670047E+01  8.429369702E-08  0.00000E+00  9.000E+00
#rwgt            1           1   2.4937674907470512E-002           2       82459           0
</event>
<event>
      5   9999  3.19816E-02  1.35792E+02 -1.00000E+00  1.18133E-01
      21    -1     0     0   511   501  0.000000000E+00  0.000000000E+00  3.049561043E+02  3.049561043E+02  0.000000000E+00  0.00000E+00  9.000E+00
      21    -1     0     0   501   502  0.000000000E+00  0.000000000E+00 -1.068604717E+03  1.068604717E+03  0.000000000E+00  0.00000E+00  9.000E+00
      25     1     1     2     0     0  3.758067700E+01 -1.694691331E+02 -2.620803383E+02  3.382945434E+02  1.250000000E+02  0.00000E+00  9.000E+00
      25     1     1     2     0     0 -8.291373929E+01  2.974706680E+02 -7.112769168E+02  7.854319441E+02  1.250000000E+02  0.00000E+00  9.000E+00
      21     1     1     2   511   502  4.533306229E+01 -1.280015349E+02  2.097086425E+02  2.498343336E+02  3.814697266E-06  0.00000E+00  9.000E+00
#rwgt            1           1   3.3012407935962836E-002           2       82609           0
</event>
<event>
      5   9999  3.19816E-02  8.70513E+01 -1.00000E+00  1.26599E-01
      21    -1     0     0   512   501  0.000000000E+00  0.000000000E+00  2.347233556E+02  2.347233556E+02  0.000000000E+00  0.00000E+00  9.000E+00
      21    -1     0     0   501   502  0.000000000E+00  0.000000000E+00 -1.158179763E+03  1.158179763E+03  0.000000000E+00  0.00000E+00  9.000E+00
      25     1     1     2     0     0  2.287751702E+02 -2.741793933E+02 -8.554285466E+02  9.353584428E+02  1.250000000E+02  0.00000E+00  9.000E+00
      25     1     1     2     0     0 -2.463782060E+02  1.889264445E+02 -1.207059908E+02  3.557953879E+02  1.250000000E+02  0.00000E+00  9.000E+00
      21     1     1     2   512   502  1.760303583E+01  8.525294872E+01  5.267813025E+01  1.017492877E+02  9.536743164E-07  0.00000E+00  9.000E+00
#rwgt            1           1   2.9033247544100631E-002           2       82674           0
</event>
<event>
      5   9999  3.19816E-02  2.65376E+01 -1.00000E+00  1.56833E-01
      21    -1     0     0   502   501  0.000000000E+00  0.000000000E+00  1.569391398E+02  1.569391398E+02  0.000000000E+00  0.00000E+00  9.000E+00
      21    -1     0     0   511   502  0.000000000E+00  0.000000000E+00 -7.903057296E+02  7.903057296E+02  0.000000000E+00  0.00000E+00  9.000E+00
      25     1     1     2     0     0  2.496895127E+02  2.579792442E+01 -5.261129363E+02  5.961796771E+02  1.250000000E+02  0.00000E+00  9.000E+00
      25     1     1     2     0     0 -2.232069829E+02 -2.750661270E+01 -1.797562309E+01  2.579265283E+02  1.250000000E+02  0.00000E+00  9.000E+00
      21     1     1     2   511   501 -2.648252980E+01  1.708688279E+00 -8.927803049E+01  9.313866398E+01  0.000000000E+00  0.00000E+00  9.000E+00
#rwgt            1           1   2.7030101157213052E-002           2       82795           0
</event>
<event>
      5   9999  3.19816E-02  3.06053E+01 -1.00000E+00  1.52440E-01
      21    -1     0     0   502   512  0.000000000E+00  0.000000000E+00  2.562412932E+02  2.562412932E+02  0.000000000E+00  0.00000E+00  9.000E+00
      21    -1     0     0   501   502  0.000000000E+00  0.000000000E+00 -1.726892561E+02  1.726892561E+02  0.000000000E+00  0.00000E+00  9.000E+00
      25     1     1     2     0     0  1.059481524E+02  6.042704712E+01  7.522873831E+01  1.901599382E+02  1.250000000E+02  0.00000E+00  9.000E+00
      25     1     1     2     0     0 -1.000451865E+02 -9.045766840E+01 -3.352612668E+01  1.869241298E+02  1.250000000E+02  0.00000E+00  9.000E+00
      21     1     1     2   501   512 -5.902965823E+00  3.003062129E+01  4.184942542E+01  5.184648135E+01  0.000000000E+00  0.00000E+00  9.000E+00
#rwgt            1           1   2.6322291419359770E-002           2       82964           0
</event>
<event>
      5   9999  3.19816E-02  1.37091E+02 -1.00000E+00  1.17964E-01
      21    -1     0     0   502   511  0.000000000E+00  0.000000000E+00  4.622044973E+02  4.622044973E+02  0.000000000E+00  0.00000E+00  9.000E+00
      21    -1     0     0   501   502  0.000000000E+00  0.000000000E+00 -7.614754879E+02  7.614754879E+02  0.000000000E+00  0.00000E+00  9.000E+00
      25     1     1     2     0     0 -3.179195447E+02 -3.190715518E+01 -5.014507701E+02  6.075926088E+02  1.250000000E+02  0.00000E+00  9.000E+00
      25     1     1     2     0     0  3.737776710E+02  1.571023611E+02  7.856732896E+01  4.314959147E+02  1.250000000E+02  0.00000E+00  9.000E+00
      21     1     1     2   501   511 -5.585812633E+01 -1.251952059E+02  1.236124504E+02  1.845914618E+02  1.348699152E-06  0.00000E+00  9.000E+00
#rwgt            1           1   2.9966917787061537E-002           2       83064           0
</event>
<event>
      5   9999  3.19816E-02  7.54479E+01 -1.00000E+00  1.29593E-01
      21    -1     0     0   502   501  0.000000000E+00  0.000000000E+00  2.044536504E+02  2.044536504E+02  0.000000000E+00  0.00000E+00  9.000E+00
       2    -1     0     0   501     0  0.000000000E+00  0.000000000E+00 -9.945630233E+02  9.945630233E+02  0.000000000E+00  0.00000E+00  9.000E+00
      25     1     1     2     0     0  8.024896019E+01 -2.045275354E+01  1.146931335E+02  1.887795688E+02  1.250000000E+02  0.00000E+00  9.000E+00
      25     1     1     2     0     0 -1.438559346E+02  6.103030659E+01 -1.460420191E+02  2.477347363E+02  1.250000000E+02  0.00000E+00  9.000E+00
       2     1     1     2   502     0  6.360697442E+01 -4.057755305E+01 -7.587604873E+02  7.625023686E+02  1.078959322E-05  0.00000E+00  9.000E+00
#rwgt            1           1   2.7299072442997861E-002           2       83168           0
</event>
<event>
      5   9999  5.21303E-02  1.43634E+01 -1.00000E+00  1.79176E-01
      21    -1     0     0   502   501  0.000000000E+00  0.000000000E+00  1.785365549E+03  1.785365549E+03  0.000000000E+00  0.00000E+00  9.000E+00
      21    -1     0     0   511   502  0.000000000E+00  0.000000000E+00 -2.068887006E+01  2.068887006E+01  0.000000000E+00  0.00000E+00  9.000E+00
      25     1     1     2     0     0  1.042130350E+02  7.092950863E+01  9.258076763E+02  9.426750264E+02  1.250000000E+02  0.00000E+00  9.000E+00
      25     1     1     2     0     0 -9.041502347E+01 -6.693924121E+01  8.291609295E+02  8.460428982E+02  1.250000000E+02  0.00000E+00  9.000E+00
      21     1     1     2   511   501 -1.379801154E+01 -3.990267414E+00  9.708072997E+00  1.733649439E+01  2.064765462E-07  0.00000E+00  9.000E+00
#rwgt            1           1  0.15732278704817546                2       83261           0
</event>
<event>
      5   9999  3.19816E-02  2.06633E+01 -1.00000E+00  1.65208E-01
      21    -1     0     0   502   501  0.000000000E+00  0.000000000E+00  2.986448544E+03  2.986448544E+03  0.000000000E+00  0.00000E+00  9.000E+00
      21    -1     0     0   512   502  0.000000000E+00  0.000000000E+00 -3.211876191E+01  3.211876191E+01  0.000000000E+00  0.00000E+00  9.000E+00
      25     1     1     2     0     0  1.495632980E+02 -1.044857404E+01  2.592021772E+03  2.599361502E+03  1.250000000E+02  0.00000E+00  9.000E+00
      25     1     1     2     0     0 -1.300235348E+02  3.727746427E+00  2.707626218E+02  3.253573620E+02  1.250000000E+02  0.00000E+00  9.000E+00
      21     1     1     2   512   501 -1.953976328E+01  6.720827617E+00  9.154538818E+01  9.384844149E+01  0.000000000E+00  0.00000E+00  9.000E+00
#rwgt            1           1   4.4156167546396577E-002           2       83372           0
</event>
<event>
      5   9999  3.19816E-02  8.65059E+01 -1.00000E+00  1.26727E-01
       2    -1     0     0   502     0  0.000000000E+00  0.000000000E+00  4.658216420E+03  4.658216420E+03  0.000000000E+00  0.00000E+00  9.000E+00
      21    -1     0     0   501   502  0.000000000E+00  0.000000000E+00 -9.019346163E+02  9.019346163E+02  0.000000000E+00  0.00000E+00  9.000E+00
      25     1     1     2     0     0  2.211139023E+02  2.220697088E+01 -8.587530021E+02  8.958047923E+02  1.250000000E+02  0.00000E+00  9.000E+00
      25     1     1     2     0     0 -2.287744234E+02 -1.083730517E+02  8.004396356E+02  8.487703255E+02  1.250000000E+02  0.00000E+00  9.000E+00
       2     1     1     2   501     0  7.660521055E+00  8.616608081E+01  3.814595170E+03  3.815575919E+03  6.103515625E-05  0.00000E+00  9.000E+00
#rwgt            1           1   2.4868430901337151E-002           2       83564           0
</event>
<event>
      5   9999  3.19816E-02  7.21628E+01 -1.00000E+00  1.30555E-01
      21    -1     0     0   511   501  0.000000000E+00  0.000000000E+00  1.180488067E+03  1.180488067E+03  0.000000000E+00  0.00000E+00  9.000E+00
      21    -1     0     0   501   502  0.000000000E+00  0.000000000E+00 -1.525999434E+02  1.525999434E+02  0.000000000E+00  0.00000E+00  9.000E+00
      25     1     1     2     0     0  1.172367101E+02  8.261688653E+01  1.395110683E+02  2.359201863E+02  1.250000000E+02  0.00000E+00  9.000E+00
      25     1     1     2     0     0 -5.910712539E+01 -3.985684749E+01 -5.276076607E+01  1.532674753E+02  1.250000000E+02  0.00000E+00  9.000E+00
      21     1     1     2   511   502 -5.812958466E+01 -4.276003904E+01  9.411378214E+02  9.439003487E+02  1.525878906E-05  0.00000E+00  9.000E+00
#rwgt            1           1   2.3702175125383099E-002           2       83667           0
</event>
<event>
      5   9999  3.19816E-02  5.65863E+01 -1.00000E+00  1.36077E-01
      21    -1     0     0   502   501  0.000000000E+00  0.000000000E+00  1.592238444E+02  1.592238444E+02  0.000000000E+00  0.00000E+00  9.000E+00
      21    -1     0     0   501   512  0.000000000E+00  0.000000000E+00 -3.535181793E+02  3.535181793E+02  0.000000000E+00  0.00000E+00  9.000E+00
      25     1     1     2     0     0  7.891294920E+01  1.322300831E+02  8.828576120E-01  1.983376612E+02  1.250000000E+02  0.00000E+00  9.000E+00
      25     1     1     2     0     0 -1.109607554E+02 -8.559371700E+01 -1.664833634E+02  2.509587295E+02  1.250000000E+02  0.00000E+00  9.000E+00
      21     1     1     2   502   512  3.204780618E+01 -4.663636606E+01 -2.869382905E+01  6.344563299E+01  8.259061849E-07  0.00000E+00  9.000E+00
#rwgt            1           1   2.6485994601984704E-002           2       83736           0
</event>
<event>
      5   9999  3.19816E-02  2.26899E+02 -1.00000E+00  1.09689E-01
      21    -1     0     0   502   501  0.000000000E+00  0.000000000E+00  3.031936565E+02  3.031936565E+02  0.000000000E+00  0.00000E+00  9.000E+00
       2    -1     0     0   501     0  0.000000000E+00  0.000000000E+00 -8.761302828E+02  8.761302828E+02  0.000000000E+00  0.00000E+00  9.000E+00
      25     1     1     2     0     0 -2.764876936E+02 -1.723805778E+01 -6.253880957E+02  6.953257263E+02  1.250000000E+02  0.00000E+00  9.000E+00
      25     1     1     2     0     0  9.551139875E+01 -1.196218713E+02  1.385034574E+02  2.413297062E+02  1.250000000E+02  0.00000E+00  9.000E+00
       2     1     1     2   502     0  1.809762949E+02  1.368599291E+02 -8.605198802E+01  2.426685067E+02  4.955437110E-06  0.00000E+00  9.000E+00
#rwgt            1           1   2.8458755908587870E-002           2       83784           0
</event>
<event>
      5   9999  3.19816E-02  5.55055E+01 -1.00000E+00  1.36536E-01
       2    -1     0     0   502     0  0.000000000E+00  0.000000000E+00  1.551498772E+03  1.551498772E+03  0.000000000E+00  0.00000E+00  9.000E+00
      21    -1     0     0   501   502  0.000000000E+00  0.000000000E+00 -6.701227300E+02  6.701227300E+02  0.000000000E+00  0.00000E+00  9.000E+00
      25     1     1     2     0     0  2.907095048E+02 -4.371420481E+02  6.655430459E+02  8.568417195E+02  1.250000000E+02  0.00000E+00  9.000E+00
      25     1     1     2     0     0 -3.305739516E+02  3.985196935E+02 -4.495985844E+02  6.970372807E+02  1.250000000E+02  0.00000E+00  9.000E+00
       2     1     1     2   501     0  3.986444685E+01  3.862235451E+01  6.654315805E+02  6.677425018E+02  1.321449896E-05  0.00000E+00  9.000E+00
#rwgt            1           1   3.3536060272009727E-002           2       83885           0
</event>
<event>
      5   9999  3.19816E-02  2.16641E+01 -1.00000E+00  1.63555E-01
      21    -1     0     0   502   501  0.000000000E+00  0.000000000E+00  4.609078358E+02  4.609078358E+02  0.000000000E+00  0.00000E+00  9.000E+00
      21    -1     0     0   501   511  0.000000000E+00  0.000000000E+00 -5.597021782E+02  5.597021782E+02  0.000000000E+00  0.00000E+00  9.000E+00
      25     1     1     2     0     0 -8.308008650E+01 -2.417587230E+02  3.691948871E+02  4.661324335E+02  1.250000000E+02  0.00000E+00  9.000E+00
      25     1     1     2     0     0  9.666089062E+01  2.248799364E+02 -4.437245877E+02  5.219490620E+02  1.250000000E+02  0.00000E+00  9.000E+00
      21     1     1     2   502   511 -1.358080411E+01  1.687878656E+01 -2.426464174E+01  3.252851849E+01  5.840038640E-07  0.00000E+00  9.000E+00
#rwgt            1           1   2.8401435912727757E-002           2       84045           0
</event>
<event>
      5   9999  3.19816E-02  3.91051E+01 -1.00000E+00  1.45452E-01
      21    -1     0     0   502   501  0.000000000E+00  0.000000000E+00  3.349992148E+02  3.349992148E+02  0.000000000E+00  0.00000E+00  9.000E+00
       2    -1     0     0   501     0  0.000000000E+00  0.000000000E+00 -4.767783301E+02  4.767783301E+02  0.000000000E+00  0.00000E+00  9.000E+00
      25     1     1     2     0     0 -3.371373856E+01 -5.674949170E+01 -1.804733187E+01  1.425055338E+02  1.250000000E+02  0.00000E+00  9.000E+00
      25     1     1     2     0     0 -5.136756939E+00  5.229447796E+01  2.548492370E+02  2.886766917E+02  1.250000000E+02  0.00000E+00  9.000E+00
       2     1     1     2   502     0  3.885049550E+01  4.455013737E+00 -3.785810204E+02  3.805953194E+02  0.000000000E+00  0.00000E+00  9.000E+00
#rwgt            1           1   2.8376530286566944E-002           2       84219           0
</event>
<event>
      5   9999  3.19816E-02  8.89948E+01 -1.00000E+00  1.26149E-01
      21    -1     0     0   502   511  0.000000000E+00  0.000000000E+00  5.985889034E+02  5.985889034E+02  0.000000000E+00  0.00000E+00  9.000E+00
      21    -1     0     0   501   502  0.000000000E+00  0.000000000E+00 -3.077205969E+03  3.077205969E+03  0.000000000E+00  0.00000E+00  9.000E+00
      25     1     1     2     0     0  1.127155975E+02  1.295826961E+02 -2.907583770E+03  2.915332719E+03  1.250000000E+02  0.00000E+00  9.000E+00
      25     1     1     2     0     0 -3.299163812E+01 -9.003324563E+01 -1.239326200E+02  2.004463215E+02  1.250000000E+02  0.00000E+00  9.000E+00
      21     1     1     2   501   511 -7.972395937E+01 -3.954945049E+01  5.528993247E+02  5.600158319E+02  1.078959322E-05  0.00000E+00  9.000E+00
#rwgt            1           1   3.7953503590601817E-002           2       84316           0
</event>
<event>
      5   9999  3.19816E-02  6.03915E+01 -1.00000E+00  1.34553E-01
      21    -1     0     0   512   501  0.000000000E+00  0.000000000E+00  1.512294579E+02  1.512294579E+02  0.000000000E+00  0.00000E+00  9.000E+00
      21    -1     0     0   501   502  0.000000000E+00  0.000000000E+00 -1.463802520E+03  1.463802520E+03  0.000000000E+00  0.00000E+00  9.000E+00
      25     1     1     2     0     0  2.218885667E+02 -1.178792080E+02 -1.190105337E+03  1.222745172E+03  1.250000000E+02  0.00000E+00  9.000E+00
      25     1     1     2     0     0 -2.238310672E+02  1.782395036E+02 -1.049145200E+02  3.293959984E+02  1.250000000E+02  0.00000E+00  9.000E+00
      21     1     1     2   512   502  1.942500519E+00 -6.036029557E+01 -1.755320514E+01  6.289080696E+01  1.526623782E-06  0.00000E+00  9.000E+00
#rwgt            1           1   2.7393859037384779E-002           2       84459           0
</event>
<event>
      5   9999  3.19816E-02  2.83643E+02 -1.00000E+00  1.06389E-01
      21    -1     0     0   511   501  0.000000000E+00  0.000000000E+00  1.051759085E+03  1.051759085E+03  0.000000000E+00  0.00000E+00  9.000E+00
      21    -1     0     0   501   502  0.000000000E+00  0.000000000E+00 -1.406379759E+03  1.406379759E+03  0.000000000E+00  0.00000E+00  9.000E+00
      25     1     1     2     0     0  2.952151672E+02 -6.415220089E+02 -1.097746646E+02  7.255190969E+02  1.250000000E+02  0.00000E+00  9.000E+00
      25     1     1     2     0     0 -9.098095137E+01  4.446932071E+02 -9.016612101E+02  1.017176248E+03  1.250000000E+02  0.00000E+00  9.000E+00
      21     1     1     2   511   502 -2.042342159E+02  1.968288019E+02  6.568152011E+02  7.154434992E+02  0.000000000E+00  0.00000E+00  9.000E+00
#rwgt            1           1   3.0483551652249218E-002           2       84559           0
</event>
<event>
      5   9999  3.19816E-02  2.30868E+01 -1.00000E+00  1.61385E-01
      21    -1     0     0   502   512  0.000000000E+00  0.000000000E+00  6.326627508E+01  6.326627508E+01  0.000000000E+00  0.00000E+00  9.000E+00
      21    -1     0     0   501   502  0.000000000E+00  0.000000000E+00 -1.218278225E+03  1.218278225E+03  0.000000000E+00  0.00000E+00  9.000E+00
      25     1     1     2     0     0  2.123103526E+02 -9.237574101E+01 -5.648389489E+02  6.231187700E+02  1.250000000E+02  0.00000E+00  9.000E+00
      25     1     1     2     0     0 -2.260151735E+02  7.379675366E+01 -5.500529131E+02  6.121372613E+02  1.250000000E+02  0.00000E+00  9.000E+00
      21     1     1     2   501   512  1.370482086E+01  1.857898735E+01 -4.012008820E+01  4.628846901E+01  6.743495762E-07  0.00000E+00  9.000E+00
#rwgt            1           1   2.8295748721832888E-002           2       84605           0
</event>
<event>
      5   9999  3.19816E-02  2.24785E+02 -1.00000E+00  1.09832E-01
      21    -1     0     0   511   501  0.000000000E+00  0.000000000E+00  3.776142647E+02  3.776142647E+02  0.000000000E+00  0.00000E+00  9.000E+00
      21    -1     0     0   501   502  0.000000000E+00  0.000000000E+00 -1.141304215E+03  1.141304215E+03  0.000000000E+00  0.00000E+00  9.000E+00
      25     1     1     2     0     0 -2.370421116E+02  1.868082621E+02 -9.507726562E+02  1.005325785E+03  1.250000000E+02  0.00000E+00  9.000E+00
      25     1     1     2     0     0  3.930889325E+01 -7.989873816E+01  2.379255772E+02  2.831299661E+02  1.250000000E+02  0.00000E+00  9.000E+00
      21     1     1     2   511   502  1.977332184E+02 -1.069095239E+02 -5.084287156E+01  2.304627292E+02  3.814697266E-06  0.00000E+00  9.000E+00
#rwgt            2          11   4.9138350339295355E-003           2       84762           0
</event>
<event>
      5   9999  3.19816E-02  3.73290E+01 -1.00000E+00  1.46726E-01
      21    -1     0     0   502   501  0.000000000E+00  0.000000000E+00  3.728912412E+02  3.728912412E+02  0.000000000E+00  0.00000E+00  9.000E+00
       2    -1     0     0   501     0  0.000000000E+00  0.000000000E+00 -2.003009330E+03  2.003009330E+03  0.000000000E+00  0.00000E+00  9.000E+00
      25     1     1     2     0     0  3.399687603E+02  1.298877482E+02 -1.029483841E+02  3.983377397E+02  1.250000000E+02  0.00000E+00  9.000E+00
      25     1     1     2     0     0 -3.029816909E+02 -1.349283052E+02  8.538121836E+01  3.645799021E+02  1.250000000E+02  0.00000E+00  9.000E+00
       2     1     1     2   502     0 -3.698706939E+01  5.040557028E+00 -1.612550923E+03  1.612982929E+03  0.000000000E+00  0.00000E+00  9.000E+00
#rwgt            1           1   2.7202975182926581E-002           2       84782           0
</event>
<event>
      5   9999  3.19816E-02  5.34829E+01 -1.00000E+00  1.37427E-01
      21    -1     0     0   502   501  0.000000000E+00  0.000000000E+00  5.520674633E+02  5.520674633E+02  0.000000000E+00  0.00000E+00  9.000E+00
      21    -1     0     0   511   502  0.000000000E+00  0.000000000E+00 -7.359380840E+01  7.359380840E+01  0.000000000E+00  0.00000E+00  9.000E+00
      25     1     1     2     0     0  6.809820402E+00  1.292537112E+02  2.578733138E+02  3.144464048E+02  1.250000000E+02  0.00000E+00  9.000E+00
      25     1     1     2     0     0 -4.360728218E+01 -9.044173415E+01  1.933865977E+02  2.512064460E+02  1.250000000E+02  0.00000E+00  9.000E+00
      21     1     1     2   511   501  3.679746177E+01 -3.881197702E+01  2.721374340E+01  6.000842094E+01  3.371747881E-07  0.00000E+00  9.000E+00
#rwgt            1           1   3.6867129298526903E-002           2       84948           0
</event>
<event>
      5   9999  3.19816E-02  1.67956E+01 -1.00000E+00  1.72879E-01
      21    -1     0     0   502   501  0.000000000E+00  0.000000000E+00  3.779911033E+02  3.779911033E+02  0.000000000E+00  0.00000E+00  9.000E+00
      21    -1     0     0   501   512  0.000000000E+00  0.000000000E+00 -6.812291952E+02  6.812291952E+02  0.000000000E+00  0.00000E+00  9.000E+00
      25     1     1     2     0     0  3.201891914E+02 -7.256707511E+01  2.112533376E+02  4.099269098E+02  1.250000000E+02  0.00000E+00  9.000E+00
      25     1     1     2     0     0 -3.361692874E+02  6.739707246E+01 -4.338624691E+02  5.669336798E+02  1.250000000E+02  0.00000E+00  9.000E+00
      21     1     1     2   502   512  1.598009601E+01  5.170002655E+00 -8.062896042E+01  8.235970892E+01  9.536743164E-07  0.00000E+00  9.000E+00
#rwgt            1           1   2.7611492316051863E-002           2       85019           0
</event>
<event>
      5   9999  3.19816E-02  8.70690E+01 -1.00000E+00  1.26594E-01
      21    -1     0     0   502   501  0.000000000E+00  0.000000000E+00  4.721942392E+01  4.721942392E+01  0.000000000E+00  0.00000E+00  9.000E+00
      21    -1     0     0   511   502  0.000000000E+00  0.000000000E+00 -1.408396525E+03  1.408396525E+03  0.000000000E+00  0.00000E+00  9.000E+00
      25     1     1     2     0     0 -3.932741053E+01  9.158117033E+01 -6.205701782E+02  6.408323510E+02  1.250000000E+02  0.00000E+00  9.000E+00
      25     1     1     2     0     0  1.262783252E+02 -8.704777234E+01 -2.619809572E+02  3.283025312E+02  1.250000000E+02  0.00000E+00  9.000E+00
      21     1     1     2   511   501 -8.695091465E+01 -4.533397988E+00 -4.786259662E+02  4.864810672E+02  0.000000000E+00  0.00000E+00  9.000E+00
#rwgt            1           1   2.9612774489508512E-002           2       85304           0
</event>
<event>
      5   9999  3.19816E-02  3.11301E+02 -1.00000E+00  1.05073E-01
      21    -1     0     0   502   501  0.000000000E+00  0.000000000E+00  1.219930950E+03  1.219930950E+03  0.000000000E+00  0.00000E+00  9.000E+00
      -1    -1     0     0     0   502  0.000000000E+00  0.000000000E+00 -8.395674929E+02  8.395674929E+02  0.000000000E+00  0.00000E+00  9.000E+00
      25     1     1     2     0     0 -1.078313587E+02 -1.911482209E+02 -4.606017559E+01  2.567329041E+02  1.250000000E+02  0.00000E+00  9.000E+00
      25     1     1     2     0     0 -1.047407121E+01  4.790928917E+02  1.019237750E+03  1.133185905E+03  1.250000000E+02  0.00000E+00  9.000E+00
      -1     1     1     2     0   501  1.183054299E+02 -2.879446708E+02 -5.928141172E+02  6.695796336E+02  0.000000000E+00  0.00000E+00  9.000E+00
#rwgt            2          10   2.6835546495092977E-004           2       85415           0
</event>
<event>
      5   9999  3.19816E-02  2.49436E+01 -1.00000E+00  1.58824E-01
      21    -1     0     0   502   501  0.000000000E+00  0.000000000E+00  3.036799028E+02  3.036799028E+02  0.000000000E+00  0.00000E+00  9.000E+00
      21    -1     0     0   501   511  0.000000000E+00  0.000000000E+00 -4.665588176E+02  4.665588176E+02  0.000000000E+00  0.00000E+00  9.000E+00
      25     1     1     2     0     0 -3.112911231E+02  5.132023487E+01  5.179987466E+01  3.432843673E+02  1.250000000E+02  0.00000E+00  9.000E+00
      25     1     1     2     0     0  2.885817172E+02 -4.100208374E+01 -1.371951600E+02  3.455547573E+02  1.250000000E+02  0.00000E+00  9.000E+00
      21     1     1     2   502   511  2.270940584E+01 -1.031815114E+01 -7.748362941E+01  8.139959572E+01  9.536743164E-07  0.00000E+00  9.000E+00
#rwgt            1           1   2.7852559710893860E-002           2       85434           0
</event>
<event>
      5   9999  3.19816E-02  2.51624E+02 -1.00000E+00  1.08134E-01
      21    -1     0     0   512   501  0.000000000E+00  0.000000000E+00  4.519175939E+02  4.519175939E+02  0.000000000E+00  0.00000E+00  9.000E+00
      21    -1     0     0   501   502  0.000000000E+00  0.000000000E+00 -9.337128981E+02  9.337128981E+02  0.000000000E+00  0.00000E+00  9.000E+00
      25     1     1     2     0     0 -1.501295680E+02  2.585862991E+01 -6.269950830E+02  6.572331322E+02  1.250000000E+02  0.00000E+00  9.000E+00
      25     1     1     2     0     0  2.926838004E+02 -2.332059545E+02  2.373339727E+02  4.604359226E+02  1.250000000E+02  0.00000E+00  9.000E+00
      21     1     1     2   512   502 -1.425542323E+02  2.073473246E+02 -9.213419385E+01  2.679614373E+02  3.303624740E-06  0.00000E+00  9.000E+00
#rwgt            2          11   4.2839328725100146E-003           2       85598           0
</event>
<event>
      5   9999  3.19816E-02  4.37743E+01 -1.00000E+00  1.42453E-01
       2    -1     0     0   502     0  0.000000000E+00  0.000000000E+00  7.352292176E+02  7.352292176E+02  0.000000000E+00  0.00000E+00  9.000E+00
      21    -1     0     0   501   502  0.000000000E+00  0.000000000E+00 -1.547792199E+02  1.547792199E+02  0.000000000E+00  0.00000E+00  9.000E+00
      25     1     1     2     0     0  9.374025523E+01 -1.928764272E+02  2.986965549E+00  2.482387431E+02  1.250000000E+02  0.00000E+00  9.000E+00
      25     1     1     2     0     0 -1.216864246E+02  1.591836925E+02  4.817281229E+02  5.365016480E+02  1.250000000E+02  0.00000E+00  9.000E+00
       2     1     1     2   501     0  2.794616942E+01  3.369273470E+01  9.573490921E+01  1.052680464E+02  0.000000000E+00  0.00000E+00  9.000E+00
#rwgt            1           1   2.6722818867198062E-002           2       85678           0
</event>
<event>
      5   9999  3.19816E-02  3.18064E+01 -1.00000E+00  1.51297E-01
      21    -1     0     0   502   501  0.000000000E+00  0.000000000E+00  2.144899590E+03  2.144899590E+03  0.000000000E+00  0.00000E+00  9.000E+00
      21    -1     0     0   511   502  0.000000000E+00  0.000000000E+00 -8.446939360E+01  8.446939360E+01  0.000000000E+00  0.00000E+00  9.000E+00
      25     1     1     2     0     0 -8.353137316E+01 -2.267197111E+02  1.362961886E+03  1.389845107E+03  1.250000000E+02  0.00000E+00  9.000E+00
      25     1     1     2     0     0  5.682709922E+01  2.439977710E+02  7.372307174E+02  7.886053272E+02  1.250000000E+02  0.00000E+00  9.000E+00
      21     1     1     2   511   501  2.670427393E+01 -1.727805991E+01 -3.976240754E+01  5.091854921E+01  2.900487199E-06  0.00000E+00  9.000E+00
#rwgt            1           1   8.5708887513628901E-002           2       85806           0
</event>
<event>
      5   9999  3.19816E-02  3.27671E+01 -1.00000E+00  1.50425E-01
      21    -1     0     0   502   501  0.000000000E+00  0.000000000E+00  6.597351011E+02  6.597351011E+02  0.000000000E+00  0.00000E+00  9.000E+00
      21    -1     0     0   512   502  0.000000000E+00  0.000000000E+00 -3.077195481E+02  3.077195481E+02  0.000000000E+00  0.00000E+00  9.000E+00
      25     1     1     2     0     0 -1.129586632E+02 -1.775770210E+02  4.358197858E+02  4.998571233E+02  1.250000000E+02  0.00000E+00  9.000E+00
      25     1     1     2     0     0  8.553359782E+01  1.955087111E+02  1.102644695E+02  2.707820262E+02  1.250000000E+02  0.00000E+00  9.000E+00
      21     1     1     2   512   501  2.742506534E+01 -1.793169012E+01 -1.940687023E+02  1.968154997E+02  3.814697266E-06  0.00000E+00  9.000E+00
#rwgt            1           1   2.6528162606975877E-002           2       85918           0
</event>
<event>
      5   9999  3.19816E-02  4.85835E+01 -1.00000E+00  1.39791E-01
      21    -1     0     0   502   501  0.000000000E+00  0.000000000E+00  6.829735456E+02  6.829735456E+02  0.000000000E+00  0.00000E+00  9.000E+00
      21    -1     0     0   501   511  0.000000000E+00  0.000000000E+00 -3.561540548E+02  3.561540548E+02  0.000000000E+00  0.00000E+00  9.000E+00
      25     1     1     2     0     0  5.761099696E+01 -6.494340744E+01  2.555604184E+02  2.974437772E+02  1.250000000E+02  0.00000E+00  9.000E+00
      25     1     1     2     0     0 -2.909125704E+01  2.561168914E+01  3.940722926E+02  4.152351522E+02  1.250000000E+02  0.00000E+00  9.000E+00
      21     1     1     2   502   511 -2.851973992E+01  3.933171831E+01 -3.228132202E+02  3.264486709E+02  5.394796609E-06  0.00000E+00  9.000E+00
#rwgt            1           1   3.4620736686102535E-002           2       86006           0
</event>
<event>
      5   9999  3.19816E-02  5.60706E+01 -1.00000E+00  1.36294E-01
      21    -1     0     0   502   512  0.000000000E+00  0.000000000E+00  1.145122984E+03  1.145122984E+03  0.000000000E+00  0.00000E+00  9.000E+00
      21    -1     0     0   501   502  0.000000000E+00  0.000000000E+00 -1.865850249E+03  1.865850249E+03  0.000000000E+00  0.00000E+00  9.000E+00
      25     1     1     2     0     0 -1.215500906E+03  6.743280514E+02 -3.431512002E+02  1.437198149E+03  1.250000000E+02  0.00000E+00  9.000E+00
      25     1     1     2     0     0  1.265432822E+03 -6.488189879E+02 -4.361450059E+02  1.492693462E+03  1.250000000E+02  0.00000E+00  9.000E+00
      21     1     1     2   501   512 -4.993191621E+01 -2.550906348E+01  5.856894147E+01  8.108162234E+01  1.168007728E-06  0.00000E+00  9.000E+00
#rwgt            1           1   2.5973770526413972E-002           2       86081           0
</event>
<event>
      5   9999  3.19816E-02  3.84293E+01 -1.00000E+00  1.45927E-01
      21    -1     0     0   511   501  0.000000000E+00  0.000000000E+00  1.525372210E+02  1.525372210E+02  0.000000000E+00  0.00000E+00  9.000E+00
      21    -1     0     0   501   502  0.000000000E+00  0.000000000E+00 -3.630099014E+02  3.630099014E+02  0.000000000E+00  0.00000E+00  9.000E+00
      25     1     1     2     0     0 -7.329671911E+01  1.401173369E+01  5.976532639E+01  1.573710010E+02  1.250000000E+02  0.00000E+00  9.000E+00
      25     1     1     2     0     0  1.098520052E+02 -2.157676415E+00 -2.729129625E+02  3.196538811E+02  1.250000000E+02  0.00000E+00  9.000E+00
      21     1     1     2   511   502 -3.655528606E+01 -1.185405727E+01  2.674955615E+00  3.852224033E+01  4.878850443E-07  0.00000E+00  9.000E+00
#rwgt            1           1   2.8604724560495873E-002           2       86264           0
</event>
<event>
      5   9999  3.19816E-02  3.60724E+01 -1.00000E+00  1.47680E-01
      21    -1     0     0   512   501  0.000000000E+00  0.000000000E+00  1.103776230E+03  1.103776230E+03  0.000000000E+00  0.00000E+00  9.000E+00
      21    -1     0     0   501   502  0.000000000E+00  0.000000000E+00 -1.798282040E+02  1.798282040E+02  0.000000000E+00  0.00000E+00  9.000E+00
      25     1     1     2     0     0 -1.812032925E+02 -1.790877406E+01  3.802588648E+02  4.397467017E+02  1.250000000E+02  0.00000E+00  9.000E+00
      25     1     1     2     0     0  1.514765719E+02 -2.525039094E+00 -8.508715353E+01  2.140475446E+02  1.250000000E+02  0.00000E+00  9.000E+00
      21     1     1     2   512   502  2.972672060E+01  2.043381316E+01  6.287763146E+02  6.298101876E+02  7.629394531E-06  0.00000E+00  9.000E+00
#rwgt            1           1   2.8257522964243307E-002           2       86373           0
</event>
<event>
      5   9999  3.19816E-02  2.73921E+01 -1.00000E+00  1.55835E-01
      21    -1     0     0   511   501  0.000000000E+00  0.000000000E+00  9.308245273E+02  9.308245273E+02  0.000000000E+00  0.00000E+00  9.000E+00
      21    -1     0     0   501   502  0.000000000E+00  0.000000000E+00 -5.298548036E+02  5.298548036E+02  0.000000000E+00  0.00000E+00  9.000E+00
      25     1     1     2     0     0  2.784103083E+02  2.259917320E+01 -7.461934146E+01  3.149858228E+02  1.250000000E+02  0.00000E+00  9.000E+00
      25     1     1     2     0     0 -2.694693872E+02  3.292695820E+00 -2.689031685E+02  4.006975250E+02  1.250000000E+02  0.00000E+00  9.000E+00
      21     1     1     2   511   502 -8.940921084E+00 -2.589186902E+01  7.444922336E+02  7.449959831E+02  1.078959322E-05  0.00000E+00  9.000E+00
#rwgt            1           1   3.2576510223720621E-002           2       86496           0
</event>
<event>
      5   9999  3.19816E-02  5.30023E+01 -1.00000E+00  1.37646E-01
      21    -1     0     0   502   501  0.000000000E+00  0.000000000E+00  3.425570774E+02  3.425570774E+02  0.000000000E+00  0.00000E+00  9.000E+00
      21    -1     0     0   512   502  0.000000000E+00  0.000000000E+00 -8.167269374E+02  8.167269374E+02  0.000000000E+00  0.00000E+00  9.000E+00
      25     1     1     2     0     0 -4.835055260E+02 -3.642516759E+01 -2.632864868E+02  5.657288755E+02  1.250000000E+02  0.00000E+00  9.000E+00
      25     1     1     2     0     0  4.372009520E+02  1.063513469E+01 -9.292906819E+01  4.642397982E+02  1.250000000E+02  0.00000E+00  9.000E+00
      21     1     1     2   512   501  4.630457403E+01  2.579003290E+01 -1.179543050E+02  1.293153411E+02  2.336015456E-06  0.00000E+00  9.000E+00
#rwgt            1           1   2.8404105560275110E-002           2       86605           0
</event>
<event>
      5   9999  3.19816E-02  2.97442E+01 -1.00000E+00  1.53299E-01
      21    -1     0     0   502   511  0.000000000E+00  0.000000000E+00  8.221766327E+02  8.221766327E+02  0.000000000E+00  0.00000E+00  9.000E+00
      21    -1     0     0   501   502  0.000000000E+00  0.000000000E+00 -1.593085289E+02  1.593085289E+02  0.000000000E+00  0.00000E+00  9.000E+00
      25     1     1     2     0     0  2.329834587E+02  4.195717081E+01  2.330344765E+02  3.549250110E+02  1.250000000E+02  0.00000E+00  9.000E+00
      25     1     1     2     0     0 -2.256853337E+02 -1.312222681E+01  7.293247267E+01  2.684216986E+02  1.250000000E+02  0.00000E+00  9.000E+00
      21     1     1     2   501   511 -7.298124932E+00 -2.883494400E+01  3.569011546E+02  3.581384520E+02  5.394796609E-06  0.00000E+00  9.000E+00
#rwgt            2          11   9.9788517054409686E-004           2       86749           0
</event>
<event>
      5   9999  3.19816E-02  5.85961E+01 -1.00000E+00  1.35255E-01
      21    -1     0     0   502   512  0.000000000E+00  0.000000000E+00  5.982761095E+02  5.982761095E+02  0.000000000E+00  0.00000E+00  9.000E+00
      21    -1     0     0   501   502  0.000000000E+00  0.000000000E+00 -3.833383431E+02  3.833383431E+02  0.000000000E+00  0.00000E+00  9.000E+00
      25     1     1     2     0     0 -3.239415626E+01  2.763228590E+02 -2.075085987E+02  3.689017786E+02  1.250000000E+02  0.00000E+00  9.000E+00
      25     1     1     2     0     0  3.056009494E+01 -2.177554969E+02  7.999441339E+01  2.652837764E+02  1.250000000E+02  0.00000E+00  9.000E+00
      21     1     1     2   501   512  1.834061320E+00 -5.856736211E+01  3.424519516E+02  3.474288976E+02  3.814697266E-06  0.00000E+00  9.000E+00
#rwgt            1           1   2.8059490580104863E-002           2       86784           0
</event>
<event>
      5   9999  3.19816E-02  1.24934E+02 -1.00000E+00  1.19630E-01
      21    -1     0     0   502   501  0.000000000E+00  0.000000000E+00  2.705388802E+02  2.705388802E+02  0.000000000E+00  0.00000E+00  9.000E+00
      21    -1     0     0   501   511  0.000000000E+00  0.000000000E+00 -1.083638888E+03  1.083638888E+03  0.000000000E+00  0.00000E+00  9.000E+00
      25     1     1     2     0     0 -6.325976063E+01 -1.183140598E+02 -4.370131959E+02  4.739256771E+02  1.250000000E+02  0.00000E+00  9.000E+00
      25     1     1     2     0     0  1.442259189E+02  2.134609513E+02  1.612221858E+02  3.286096264E+02  1.250000000E+02  0.00000E+00  9.000E+00
      21     1     1     2   502   511 -8.096615829E+01 -9.514689148E+01 -5.373089982E+02  5.516424651E+02  7.629394531E-06  0.00000E+00  9.000E+00
#rwgt            1           1   2.7098621367736390E-002           2       86872           0
</event>
<event>
      5   9999  3.19816E-02  8.29917E+01 -1.00000E+00  1.27582E-01
      21    -1     0     0   502   501  0.000000000E+00  0.000000000E+00  6.901040043E+02  6.901040043E+02  0.000000000E+00  0.00000E+00  9.000E+00
      21    -1     0     0   512   502  0.000000000E+00  0.000000000E+00 -2.611292523E+02  2.611292523E+02  0.000000000E+00  0.00000E+00  9.000E+00
      25     1     1     2     0     0  6.707488161E+01 -1.279186359E+02 -1.284379110E+02  2.301814809E+02  1.250000000E+02  0.00000E+00  9.000E+00
      25     1     1     2     0     0 -1.356084519E+02  1.747244036E+02  5.815502763E+02  6.346211415E+02  1.250000000E+02  0.00000E+00  9.000E+00
      21     1     1     2   512   501  6.853357032E+01 -4.680576769E+01 -2.413761324E+01  8.643063417E+01  1.719260824E-06  0.00000E+00  9.000E+00
#rwgt            1           1   2.5451634841156246E-002           2       86975           0
</event>
<event>
      5   9999  3.19816E-02  4.70050E+01 -1.00000E+00  1.40624E-01
      21    -1     0     0   502   501  0.000000000E+00  0.000000000E+00  1.406319116E+03  1.406319116E+03  0.000000000E+00  0.00000E+00  9.000E+00
      21    -1     0     0   501   511  0.000000000E+00  0.000000000E+00 -2.068037859E+02  2.068037859E+02  0.000000000E+00  0.00000E+00  9.000E+00
      25     1     1     2     0     0  3.598061370E+02  2.619740476E+02  8.849424786E+02  9.984182732E+02  1.250000000E+02  0.00000E+00  9.000E+00
      25     1     1     2     0     0 -3.482328595E+02 -3.075320132E+02  2.866003759E+02  5.600061063E+02  1.250000000E+02  0.00000E+00  9.000E+00
      21     1     1     2   502   511 -1.157327748E+01  4.555796564E+01  2.797247579E+01  5.469852271E+01  5.840038640E-07  0.00000E+00  9.000E+00
#rwgt            1           1   2.6279323963806341E-002           2       87082           0
</event>
<event>
      5   9999  3.19816E-02  1.80868E+01 -1.00000E+00  1.70054E-01
      21    -1     0     0   502   501  0.000000000E+00  0.000000000E+00  6.209783751E+02  6.209783751E+02  0.000000000E+00  0.00000E+00  9.000E+00
      21    -1     0     0   501   512  0.000000000E+00  0.000000000E+00 -1.020821261E+03  1.020821261E+03  0.000000000E+00  0.00000E+00  9.000E+00
      25     1     1     2     0     0  4.525242617E+00  5.070360546E+02 -7.862233061E+02  9.438634040E+02  1.250000000E+02  0.00000E+00  9.000E+00
      25     1     1     2     0     0  1.043276112E+01 -5.172042281E+02  4.073822434E+02  6.702196269E+02  1.250000000E+02  0.00000E+00  9.000E+00
      21     1     1     2   502   512 -1.495800374E+01  1.016817350E+01 -2.100182320E+01  2.771660524E+01  3.371747881E-07  0.00000E+00  9.000E+00
#rwgt            1           1   3.3089945469240385E-002           2       87224           0
</event>
<event>
      5   9999  3.19816E-02  1.76237E+02 -1.00000E+00  1.13685E-01
      21    -1     0     0   511   501  0.000000000E+00  0.000000000E+00  2.072675815E+03  2.072675815E+03  0.000000000E+00  0.00000E+00  9.000E+00
      21    -1     0     0   501   502  0.000000000E+00  0.000000000E+00 -2.031635990E+02  2.031635990E+02  0.000000000E+00  0.00000E+00  9.000E+00
      25     1     1     2     0     0  1.412463484E+02  3.881235917E+01 -1.346442126E+02  2.349701984E+02  1.250000000E+02  0.00000E+00  9.000E+00
      25     1     1     2     0     0  1.545639977E+01 -1.194582262E+02  5.678537833E+02  5.937946508E+02  1.250000000E+02  0.00000E+00  9.000E+00
      21     1     1     2   511   502 -1.567027481E+02  8.064586704E+01  1.436302645E+03  1.447074565E+03  0.000000000E+00  0.00000E+00  9.000E+00
#rwgt            1           1   2.7354704159788495E-002           2       87438           0
</event>
<event>
      5   9999  3.19816E-02  5.14661E+01 -1.00000E+00  1.38363E-01
      21    -1     0     0   502   501  0.000000000E+00  0.000000000E+00  6.026080532E+01  6.026080532E+01  0.000000000E+00  0.00000E+00  9.000E+00
      21    -1     0     0   512   502  0.000000000E+00  0.000000000E+00 -7.302060677E+02  7.302060677E+02  0.000000000E+00  0.00000E+00  9.000E+00
      25     1     1     2     0     0  9.726853552E+01  1.174633647E+01 -1.125128199E+02  1.946362737E+02  1.250000000E+02  0.00000E+00  9.000E+00
      25     1     1     2     0     0 -7.272431181E+01 -5.698284879E+01 -4.613677009E+02  4.868480523E+02  1.250000000E+02  0.00000E+00  9.000E+00
      21     1     1     2   512   501 -2.454422371E+01  4.523651232E+01 -9.606474153E+01  1.089825469E+02  0.000000000E+00  0.00000E+00  9.000E+00
#rwgt            1           1   2.6053847511129571E-002           2       87515           0
</event>
<event>
      5   9999  3.19816E-02  6.97844E+01 -1.00000E+00  1.31289E-01
      21    -1     0     0   502   511  0.000000000E+00  0.000000000E+00  2.504094299E+02  2.504094299E+02  0.000000000E+00  0.00000E+00  9.000E+00
      21    -1     0     0   501   502  0.000000000E+00  0.000000000E+00 -2.805318229E+02  2.805318229E+02  0.000000000E+00  0.00000E+00  9.000E+00
      25     1     1     2     0     0  5.045068327E+01  3.654586185E+01 -4.541606825E+01  1.468621487E+02  1.250000000E+02  0.00000E+00  9.000E+00
      25     1     1     2     0     0 -8.575378314E+01  2.365014686E+01 -1.438475813E+02  2.103096941E+02  1.250000000E+02  0.00000E+00  9.000E+00
      21     1     1     2   501   511  3.530309987E+01 -6.019600871E+01  1.591412565E+02  1.737694100E+02  1.907348633E-06  0.00000E+00  9.000E+00
#rwgt            1           1   4.1760925088114166E-002           2       87586           0
</event>
<event>
      5   9999  3.19816E-02  7.82262E+01 -1.00000E+00  1.28823E-01
      21    -1     0     0   512   501  0.000000000E+00  0.000000000E+00  5.982909767E+02  5.982909767E+02  0.000000000E+00  0.00000E+00  9.000E+00
      21    -1     0     0   501   502  0.000000000E+00  0.000000000E+00 -8.468851068E+02  8.468851068E+02  0.000000000E+00  0.00000E+00  9.000E+00
      25     1     1     2     0     0 -1.302507522E+02  5.569294992E+02  2.353165972E+02  6.309791014E+02  1.250000000E+02  0.00000E+00  9.000E+00
      25     1     1     2     0     0  1.725748827E+02 -4.911419150E+02 -5.019904791E+02  7.339086537E+02  1.250000000E+02  0.00000E+00  9.000E+00
      21     1     1     2   512   502 -4.232413058E+01 -6.578758415E+01  1.807975183E+01  8.028832844E+01  2.198110689E-06  0.00000E+00  9.000E+00
#rwgt            1           1   3.1783194545344798E-002           2       87634           0
</event>
<event>
      5   9999  3.19816E-02  2.61189E+02 -1.00000E+00  1.07584E-01
      21    -1     0     0   511   501  0.000000000E+00  0.000000000E+00  2.183653727E+03  2.183653727E+03  0.000000000E+00  0.00000E+00  9.000E+00
      21    -1     0     0   501   502  0.000000000E+00  0.000000000E+00 -3.809102590E+02  3.809102590E+02  0.000000000E+00  0.00000E+00  9.000E+00
      25     1     1     2     0     0  2.067614262E+02  6.949252797E+02  6.605558030E+02  9.887519409E+02  1.250000000E+02  0.00000E+00  9.000E+00
      25     1     1     2     0     0 -4.642060287E+02 -6.508551648E+02  7.415375369E+02  1.097543895E+03  1.250000000E+02  0.00000E+00  9.000E+00
      21     1     1     2   511   502  2.574446025E+02 -4.407011493E+01  4.006501278E+02  4.782681500E+02  9.344061824E-06  0.00000E+00  9.000E+00
#rwgt            1           1   3.4704154329089423E-002           2       87714           0
</event>
<event>
      5   9999  3.19816E-02  1.26581E+01 -1.00000E+00  1.84623E-01
      21    -1     0     0   512   501  0.000000000E+00  0.000000000E+00  1.303024423E+02  1.303024423E+02  0.000000000E+00  0.00000E+00  9.000E+00
      21    -1     0     0   501   502  0.000000000E+00  0.000000000E+00 -5.487884095E+02  5.487884095E+02  0.000000000E+00  0.00000E+00  9.000E+00
      25     1     1     2     0     0 -1.004717739E+02 -8.043355137E+01 -4.486695276E+02  4.832116291E+02  1.250000000E+02  0.00000E+00  9.000E+00
      25     1     1     2     0     0  1.010176804E+02  6.778724091E+01  1.351552896E+01  1.749495679E+02  1.250000000E+02  0.00000E+00  9.000E+00
      21     1     1     2   512   502 -5.459065597E-01  1.264631045E+01  1.666803139E+01  2.092965486E+01  0.000000000E+00  0.00000E+00  9.000E+00
#rwgt            1           1   2.8197204619325459E-002           2       87765           0
</event>
<event>
      5   9999  3.19816E-02  1.88780E+02 -1.00000E+00  1.12569E-01
      21    -1     0     0   502   511  0.000000000E+00  0.000000000E+00  4.876604676E+02  4.876604676E+02  0.000000000E+00  0.00000E+00  9.000E+00
      21    -1     0     0   501   502  0.000000000E+00  0.000000000E+00 -5.359704253E+02  5.359704253E+02  0.000000000E+00  0.00000E+00  9.000E+00
      25     1     1     2     0     0  7.102738693E+01 -2.108514141E+02  1.666335343E+02  3.047867177E+02  1.250000000E+02  0.00000E+00  9.000E+00
      25     1     1     2     0     0 -2.505078356E+02  2.693727089E+02 -3.195279047E+02  5.030297346E+02  1.250000000E+02  0.00000E+00  9.000E+00
      21     1     1     2   501   511  1.794804487E+02 -5.852129485E+01  1.045844126E+02  2.158144406E+02  2.697398305E-06  0.00000E+00  9.000E+00
#rwgt            2          11   4.1035014243912555E-003           2       87930           0
</event>
<event>
      5   9999  3.19816E-02  6.10515E+01 -1.00000E+00  1.34301E-01
      21    -1     0     0   502   501  0.000000000E+00  0.000000000E+00  1.260993017E+02  1.260993017E+02  0.000000000E+00  0.00000E+00  9.000E+00
       2    -1     0     0   501     0  0.000000000E+00  0.000000000E+00 -2.981504058E+03  2.981504058E+03  0.000000000E+00  0.00000E+00  9.000E+00
      25     1     1     2     0     0 -2.706434665E+02  3.363575270E+02 -4.928687542E+02  6.670298950E+02  1.250000000E+02  0.00000E+00  9.000E+00
      25     1     1     2     0     0  2.444946454E+02 -2.811893877E+02 -9.686105131E+02  1.045311642E+03  1.250000000E+02  0.00000E+00  9.000E+00
       2     1     1     2   502     0  2.614882110E+01 -5.516813934E+01 -1.393925489E+03  1.395261823E+03  0.000000000E+00  0.00000E+00  9.000E+00
#rwgt            1           1   1.7352865504167800E-002           2       87950           0
</event>
<event>
      5   9999  3.19816E-02  4.93406E+01 -1.00000E+00  1.39405E-01
      21    -1     0     0   502   501  0.000000000E+00  0.000000000E+00  1.587839586E+03  1.587839586E+03  0.000000000E+00  0.00000E+00  9.000E+00
      21    -1     0     0   501   511  0.000000000E+00  0.000000000E+00 -1.894037582E+02  1.894037582E+02  0.000000000E+00  0.00000E+00  9.000E+00
      25     1     1     2     0     0 -3.991773245E+02 -6.685380293E+01  2.686079819E+02  5.015847040E+02  1.250000000E+02  0.00000E+00  9.000E+00
      25     1     1     2     0     0  4.392711142E+02  9.561119217E+01  1.133895782E+03  1.226150585E+03  1.250000000E+02  0.00000E+00  9.000E+00
      21     1     1     2   502   511 -4.009378972E+01 -2.875738923E+01 -4.067936557E+00  4.950805508E+01  6.078504936E-07  0.00000E+00  9.000E+00
#rwgt            1           1   2.5785524155813925E-002           2       88113           0
</event>
<event>
      5   9999  3.19816E-02  5.30273E+01 -1.00000E+00  1.37634E-01
      21    -1     0     0   502   501  0.000000000E+00  0.000000000E+00  1.056917140E+02  1.056917140E+02  0.000000000E+00  0.00000E+00  9.000E+00
      21    -1     0     0   512   502  0.000000000E+00  0.000000000E+00 -6.839179863E+02  6.839179863E+02  0.000000000E+00  0.00000E+00  9.000E+00
      25     1     1     2     0     0 -2.036392218E+01  2.052126659E+02 -1.298880758E+02  2.739029752E+02  1.250000000E+02  0.00000E+00  9.000E+00
      25     1     1     2     0     0  1.469043099E+01 -1.524896983E+02 -3.873055345E+02  4.348557162E+02  1.250000000E+02  0.00000E+00  9.000E+00
      21     1     1     2   512   501  5.673491181E+00 -5.272296762E+01 -6.103266206E+01  8.085100900E+01  1.348699152E-06  0.00000E+00  9.000E+00
#rwgt            1           1   3.4421037605941091E-002           2       88273           0
</event>
<event>
      5   9999  3.19816E-02  1.16873E+02 -1.00000E+00  1.20857E-01
       1    -1     0     0   502     0  0.000000000E+00  0.000000000E+00  2.134886085E+03  2.134886085E+03  0.000000000E+00  0.00000E+00  9.000E+00
      21    -1     0     0   501   502  0.000000000E+00  0.000000000E+00 -4.004965683E+02  4.004965683E+02  0.000000000E+00  0.00000E+00  9.000E+00
      25     1     1     2     0     0 -4.492347574E+02  2.651312890E+02  5.305263347E+01  5.390232365E+02  1.250000000E+02  0.00000E+00  9.000E+00
      25     1     1     2     0     0  5.304716267E+02 -3.491537129E+02  5.230051001E+02  8.321464995E+02  1.250000000E+02  0.00000E+00  9.000E+00
       1     1     1     2   501     0 -8.123686932E+01  8.402242388E+01  1.158331783E+03  1.164212917E+03  1.525878906E-05  0.00000E+00  9.000E+00
#rwgt            1           1   3.1514122675388653E-002           2       88353           0
</event>
<event>
      5   9999  3.19816E-02  1.72964E+01 -1.00000E+00  1.71747E-01
      21    -1     0     0   502   501  0.000000000E+00  0.000000000E+00  2.830642691E+01  2.830642691E+01  0.000000000E+00  0.00000E+00  9.000E+00
      21    -1     0     0   511   502  0.000000000E+00  0.000000000E+00 -8.413004270E+02  8.413004270E+02  0.000000000E+00  0.00000E+00  9.000E+00
      25     1     1     2     0     0 -4.452690348E+00  2.681362603E+01 -5.601096081E+02  5.745316093E+02  1.250000000E+02  0.00000E+00  9.000E+00
      25     1     1     2     0     0  8.400830392E+00 -9.973873505E+00 -1.759805161E+02  2.162503044E+02  1.250000000E+02  0.00000E+00  9.000E+00
      21     1     1     2   511   501 -3.948140044E+00 -1.683975252E+01 -7.690387590E+01  7.882494023E+01  1.348699152E-06  0.00000E+00  9.000E+00
#rwgt            1           1   3.6673704276161290E-002           2       88515           0
</event>
<event>
      5   9999  3.19816E-02  1.23134E+02 -1.00000E+00  1.19895E-01
      21    -1     0     0   502   501  0.000000000E+00  0.000000000E+00  1.277845107E+03  1.277845107E+03  0.000000000E+00  0.00000E+00  9.000E+00
      21    -1     0     0   512   502  0.000000000E+00  0.000000000E+00 -2.770977605E+03  2.770977605E+03  0.000000000E+00  0.00000E+00  9.000E+00
      25     1     1     2     0     0  6.222787115E+02  2.089513242E+02  1.119166007E+03  1.303475739E+03  1.250000000E+02  0.00000E+00  9.000E+00
      25     1     1     2     0     0 -5.537637431E+02 -3.112634370E+02 -2.486139430E+03  2.569056923E+03  1.250000000E+02  0.00000E+00  9.000E+00
      21     1     1     2   512   501 -6.851496837E+01  1.023121128E+02 -1.261590755E+02  1.762900497E+02  0.000000000E+00  0.00000E+00  9.000E+00
#rwgt            1           1   2.0967064282635197E-002           2       88671           0
</event>
<event>
      5   9999  3.69543E-02  2.43311E+02 -1.00000E+00  1.08634E-01
      21    -1     0     0   502   501  0.000000000E+00  0.000000000E+00  2.268012103E+03  2.268012103E+03  0.000000000E+00  0.00000E+00  9.000E+00
       2    -1     0     0   501     0  0.000000000E+00  0.000000000E+00 -1.185573251E+03  1.185573251E+03  0.000000000E+00  0.00000E+00  9.000E+00
      25     1     1     2     0     0 -2.873345119E+02  2.057324914E+02  9.508924371E+02  1.022109782E+03  1.250000000E+02  0.00000E+00  9.000E+00
      25     1     1     2     0     0  3.176177599E+02 -4.471511536E+02  1.205506250E+03  1.330299032E+03  1.250000000E+02  0.00000E+00  9.000E+00
       2     1     1     2   502     0 -3.028324805E+01  2.414186622E+02 -1.073959835E+03  1.101176540E+03  1.525878906E-05  0.00000E+00  9.000E+00
#rwgt            2          13   3.7484589627639356E-002           2       88831           0
</event>
<event>
      5   9999  3.19816E-02  1.96168E+02 -1.00000E+00  1.11955E-01
       2    -1     0     0   502     0  0.000000000E+00  0.000000000E+00  2.141021349E+03  2.141021349E+03  0.000000000E+00  0.00000E+00  9.000E+00
      21    -1     0     0   501   502  0.000000000E+00  0.000000000E+00 -2.087184029E+02  2.087184029E+02  0.000000000E+00  0.00000E+00  9.000E+00
      25     1     1     2     0     0  6.043616187E+02 -2.075724219E+02  9.659920578E+02  1.164948468E+03  1.250000000E+02  0.00000E+00  9.000E+00
      25     1     1     2     0     0 -4.098363261E+02  2.329093646E+02  7.257479620E+02  8.743841780E+02  1.250000000E+02  0.00000E+00  9.000E+00
       2     1     1     2   501     0 -1.945252927E+02 -2.533694274E+01  2.405629265E+02  3.104071065E+02  0.000000000E+00  0.00000E+00  9.000E+00
#rwgt            1           1   1.7635574785719761E-002           2       88850           0
</event>
<event>
      5   9999  3.19816E-02  5.45689E+01 -1.00000E+00  1.36943E-01
      21    -1     0     0   502   511  0.000000000E+00  0.000000000E+00  2.747091791E+02  2.747091791E+02  0.000000000E+00  0.00000E+00  9.000E+00
      21    -1     0     0   501   502  0.000000000E+00  0.000000000E+00 -8.644876443E+02  8.644876443E+02  0.000000000E+00  0.00000E+00  9.000E+00
      25     1     1     2     0     0  1.702082060E+02 -3.486620456E+02 -5.628650382E+02  6.949662629E+02  1.250000000E+02  0.00000E+00  9.000E+00
      25     1     1     2     0     0 -1.159324731E+02  3.430132808E+02  7.600343225E-01  3.830457241E+02  1.250000000E+02  0.00000E+00  9.000E+00
      21     1     1     2   501   511 -5.427573295E+01  5.648764801E+00 -2.767346133E+01  6.118483629E+01  4.768371582E-07  0.00000E+00  9.000E+00
#rwgt            1           1   2.8489229401573488E-002           2       88988           0
</event>
<event>
      5   9999  3.19816E-02  1.00159E+02 -1.00000E+00  1.23797E-01
      21    -1     0     0   502   501  0.000000000E+00  0.000000000E+00  6.878427740E+02  6.878427740E+02  0.000000000E+00  0.00000E+00  9.000E+00
      21    -1     0     0   501   512  0.000000000E+00  0.000000000E+00 -5.709978041E+02  5.709978041E+02  0.000000000E+00  0.00000E+00  9.000E+00
      25     1     1     2     0     0 -4.073446878E+02 -2.733267228E+02  2.221661418E+02  5.528290754E+02  1.250000000E+02  0.00000E+00  9.000E+00
      25     1     1     2     0     0  4.941064278E+02  2.232835576E+02  5.727961511E+00  5.564660984E+02  1.250000000E+02  0.00000E+00  9.000E+00
      21     1     1     2   502   512 -8.676174005E+01  5.004316526E+01 -1.110491334E+02  1.495454044E+02  1.348699152E-06  0.00000E+00  9.000E+00
#rwgt            1           1   3.0924436976032220E-002           2       89082           0
</event>
<event>
      5   9999  3.19816E-02  1.01667E+02 -1.00000E+00  1.23506E-01
      21    -1     0     0   502   501  0.000000000E+00  0.000000000E+00  4.708374962E+01  4.708374962E+01  0.000000000E+00  0.00000E+00  9.000E+00
      21    -1     0     0   501   511  0.000000000E+00  0.000000000E+00 -2.625477092E+03  2.625477092E+03  0.000000000E+00  0.00000E+00  9.000E+00
      25     1     1     2     0     0  5.414526322E+01 -7.375631120E+01 -1.283507367E+02  2.011730961E+02  1.250000000E+02  0.00000E+00  9.000E+00
      25     1     1     2     0     0 -5.341386806E+01  1.754208661E+02 -1.613827555E+03  1.629015009E+03  1.250000000E+02  0.00000E+00  9.000E+00
      21     1     1     2   502   511 -7.313951537E-01 -1.016645549E+02 -8.362150512E+02  8.423727373E+02  1.525878906E-05  0.00000E+00  9.000E+00
#rwgt            1           1   2.7928654664443293E-002           2       89156           0
</event>
<event>
      5   9999  3.19816E-02  1.87799E+02 -1.00000E+00  1.12652E-01
      21    -1     0     0   502   501  0.000000000E+00  0.000000000E+00  1.302576029E+03  1.302576029E+03  0.000000000E+00  0.00000E+00  9.000E+00
      21    -1     0     0   501   512  0.000000000E+00  0.000000000E+00 -2.003890299E+03  2.003890299E+03  0.000000000E+00  0.00000E+00  9.000E+00
      25     1     1     2     0     0 -1.206736777E+03 -8.495239246E+02 -1.517923893E+02  1.488815126E+03  1.250000000E+02  0.00000E+00  9.000E+00
      25     1     1     2     0     0  1.065600442E+03  9.734156214E+02 -2.588987065E+02  1.471630325E+03  1.250000000E+02  0.00000E+00  9.000E+00
      21     1     1     2   502   512  1.411363353E+02 -1.238916968E+02 -2.906231741E+02  3.460208765E+02  5.394796609E-06  0.00000E+00  9.000E+00
#rwgt            1           1   1.8279313879777392E-002           2       89219           0
</event>
<event>
      5   9999  3.19816E-02  5.01652E+01 -1.00000E+00  1.38994E-01
      21    -1     0     0   502   511  0.000000000E+00  0.000000000E+00  2.378908975E+02  2.378908975E+02  0.000000000E+00  0.00000E+00  9.000E+00
      21    -1     0     0   501   502  0.000000000E+00  0.000000000E+00 -3.649746249E+02  3.649746249E+02  0.000000000E+00  0.00000E+00  9.000E+00
      25     1     1     2     0     0 -1.045703211E+02  1.526928119E+02 -1.636778732E+01  2.239262185E+02  1.250000000E+02  0.00000E+00  9.000E+00
      25     1     1     2     0     0  1.468484270E+02 -1.256908674E+02 -1.808324798E+02  2.927251961E+02  1.250000000E+02  0.00000E+00  9.000E+00
      21     1     1     2   501   511 -4.227810590E+01 -2.700194452E+01  7.011653972E+01  8.621410783E+01  9.536743164E-07  0.00000E+00  9.000E+00
#rwgt            2          11   1.5269967629003101E-003           2       89323           0
</event>
<event>
      5   9999  3.19816E-02  9.43710E+01 -1.00000E+00  1.24970E-01
      21    -1     0     0   502   501  0.000000000E+00  0.000000000E+00  1.624825224E+03  1.624825224E+03  0.000000000E+00  0.00000E+00  9.000E+00
      21    -1     0     0   501   512  0.000000000E+00  0.000000000E+00 -4.417923344E+01  4.417923344E+01  0.000000000E+00  0.00000E+00  9.000E+00
      25     1     1     2     0     0 -9.238895276E+01  1.580427640E+01  5.981554103E+02  6.182235749E+02  1.250000000E+02  0.00000E+00  9.000E+00
      25     1     1     2     0     0  1.771261475E+02 -5.734333939E+01  8.929984204E+02  9.207242310E+02  1.250000000E+02  0.00000E+00  9.000E+00
      21     1     1     2   502   512 -8.473719470E+01  4.153906299E+01  8.949215979E+01  1.300566514E+02  9.536743164E-07  0.00000E+00  9.000E+00
#rwgt            1           1   3.3926095008382756E-002           2       89358           0
</event>
<event>
      5   9999  3.19816E-02  2.42239E+02 -1.00000E+00  1.08700E-01
      21    -1     0     0   511   501  0.000000000E+00  0.000000000E+00  1.657263263E+02  1.657263263E+02  0.000000000E+00  0.00000E+00  9.000E+00
      21    -1     0     0   501   502  0.000000000E+00  0.000000000E+00 -1.233749787E+03  1.233749787E+03  0.000000000E+00  0.00000E+00  9.000E+00
      25     1     1     2     0     0  2.850796612E+02 -1.053079444E+02 -2.465979450E+02  4.108475665E+02  1.250000000E+02  0.00000E+00  9.000E+00
      25     1     1     2     0     0 -2.210903878E+02 -1.283265660E+02 -5.829870814E+02  6.487276811E+02  1.250000000E+02  0.00000E+00  9.000E+00
      21     1     1     2   511   502 -6.398927338E+01  2.336345104E+02 -2.384384342E+02  3.399008656E+02  5.394796609E-06  0.00000E+00  9.000E+00
#rwgt            2          11   3.5859578366728220E-003           2       89484           0
</event>
<event>
      5   9999  3.19816E-02  2.79200E+01 -1.00000E+00  1.55239E-01
      21    -1     0     0   502   512  0.000000000E+00  0.000000000E+00  8.197426743E+01  8.197426743E+01  0.000000000E+00  0.00000E+00  9.000E+00
      21    -1     0     0   501   502  0.000000000E+00  0.000000000E+00 -5.274336198E+02  5.274336198E+02  0.000000000E+00  0.00000E+00  9.000E+00
      25     1     1     2     0     0 -5.575287747E+01  1.201843607E+02 -2.494223441E+02  3.088513715E+02  1.250000000E+02  0.00000E+00  9.000E+00
      25     1     1     2     0     0  4.626977175E+01 -1.464445707E+02 -1.834265178E+02  2.699207133E+02  1.250000000E+02  0.00000E+00  9.000E+00
      21     1     1     2   501   512  9.483105724E+00  2.626020999E+01 -1.261049045E+01  3.063580246E+01  1.685873940E-07  0.00000E+00  9.000E+00
#rwgt            1           1   3.0978412525840642E-002           2       89519           0
</event>
<event>
      5   9999  3.19816E-02  9.96269E+01 -1.00000E+00  1.23901E-01
      21    -1     0     0   502   511  0.000000000E+00  0.000000000E+00  2.069483087E+03  2.069483087E+03  0.000000000E+00  0.00000E+00  9.000E+00
      21    -1     0     0   501   502  0.000000000E+00  0.000000000E+00 -1.554829907E+02  1.554829907E+02  0.000000000E+00  0.00000E+00  9.000E+00
      25     1     1     2     0     0  1.584940933E+02  3.978653597E+02  4.104697730E+02  6.062405930E+02  1.250000000E+02  0.00000E+00  9.000E+00
      25     1     1     2     0     0 -9.002056386E+01 -4.702317448E+02  1.323372047E+03  1.412855325E+03  1.250000000E+02  0.00000E+00  9.000E+00
      21     1     1     2   501   511 -6.847352948E+01  7.236638512E+01  1.801582766E+02  2.058701595E+02  1.907348633E-06  0.00000E+00  9.000E+00
#rwgt            1           1   3.6487086962568568E-002           2       89609           0
</event>
<event>
      5   9999  3.19816E-02  6.53618E+01 -1.00000E+00  1.32747E-01
      21    -1     0     0   502   501  0.000000000E+00  0.000000000E+00  1.763603422E+02  1.763603422E+02  0.000000000E+00  0.00000E+00  9.000E+00
      21    -1     0     0   501   512  0.000000000E+00  0.000000000E+00 -7.798428104E+02  7.798428104E+02  0.000000000E+00  0.00000E+00  9.000E+00
      25     1     1     2     0     0  1.717963587E+01  7.208831660E+01  6.354768184E+01  1.586038245E+02  1.250000000E+02  0.00000E+00  9.000E+00
      25     1     1     2     0     0 -4.959408679E+01 -1.288462624E+02 -7.308466514E+01  2.000682410E+02  1.250000000E+02  0.00000E+00  9.000E+00
      21     1     1     2   502   512  3.241445092E+01  5.675794584E+01 -5.939454849E+02  5.975310871E+02  7.629394531E-06  0.00000E+00  9.000E+00
#rwgt            1           1   3.3486588558233242E-002           2       89686           0
</event>
<event>
      5   9999  3.19816E-02  7.52432E+01 -1.00000E+00  1.29651E-01
      21    -1     0     0   502   501  0.000000000E+00  0.000000000E+00  1.979457405E+02  1.979457405E+02  0.000000000E+00  0.00000E+00  9.000E+00
      21    -1     0     0   511   502  0.000000000E+00  0.000000000E+00 -8.194598056E+02  8.194598056E+02  0.000000000E+00  0.00000E+00  9.000E+00
      25     1     1     2     0     0 -9.331225532E+01  1.761542046E+02 -5.732250261E+02  6.196365155E+02  1.250000000E+02  0.00000E+00  9.000E+00
      25     1     1     2     0     0  1.076150253E+02 -2.500255563E+02  1.433626499E+01  2.998738084E+02  1.250000000E+02  0.00000E+00  9.000E+00
      21     1     1     2   511   501 -1.430277001E+01  7.387135169E+01 -6.262530392E+01  9.789522216E+01  6.743495762E-07  0.00000E+00  9.000E+00
#rwgt            1           1   2.8884153330154077E-002           2       89756           0
</event>
<event>
      5   9999  3.19816E-02  9.02272E+00 -1.00000E+00  2.01066E-01
      21    -1     0     0   502   501  0.000000000E+00  0.000000000E+00  1.467328690E+03  1.467328690E+03  0.000000000E+00  0.00000E+00  9.000E+00
       2    -1     0     0   501     0  0.000000000E+00  0.000000000E+00 -4.304832883E+02  4.304832883E+02  0.000000000E+00  0.00000E+00  9.000E+00
      25     1     1     2     0     0  9.520089725E+01  1.694302550E+02  4.216725890E+02  4.808353091E+02  1.250000000E+02  0.00000E+00  9.000E+00
      25     1     1     2     0     0 -1.026146603E+02 -1.642877281E+02  1.002945476E+03  1.029099049E+03  1.250000000E+02  0.00000E+00  9.000E+00
       2     1     1     2   502     0  7.413763094E+00 -5.142526940E+00 -3.877726632E+02  3.878776196E+02  9.344061824E-06  0.00000E+00  9.000E+00
#rwgt            1           1   3.8098772175867886E-002           2       89880           0
</event>
<event>
      5   9999  3.19816E-02  1.95343E+01 -1.00000E+00  1.67218E-01
      21    -1     0     0   502   501  0.000000000E+00  0.000000000E+00  2.595785901E+02  2.595785901E+02  0.000000000E+00  0.00000E+00  9.000E+00
      21    -1     0     0   501   511  0.000000000E+00  0.000000000E+00 -1.246672993E+03  1.246672993E+03  0.000000000E+00  0.00000E+00  9.000E+00
      25     1     1     2     0     0  2.983551896E+02  3.385771369E+02 -1.462780509E+02  4.905839020E+02  1.250000000E+02  0.00000E+00  9.000E+00
      25     1     1     2     0     0 -2.817511082E+02 -3.282867485E+02 -4.945477904E+02  6.688485578E+02  1.250000000E+02  0.00000E+00  9.000E+00
      21     1     1     2   502   511 -1.660408138E+01 -1.029038834E+01 -3.462685615E+02  3.468191233E+02  3.814697266E-06  0.00000E+00  9.000E+00
#rwgt            1           1   2.7323106747031256E-002           2       90077           0
</event>
<event>
      5   9999  3.19816E-02  9.18877E+01 -1.00000E+00  1.25503E-01
      21    -1     0     0   502   501  0.000000000E+00  0.000000000E+00  1.458187220E+02  1.458187220E+02  0.000000000E+00  0.00000E+00  9.000E+00
      21    -1     0     0   512   502  0.000000000E+00  0.000000000E+00 -2.913022794E+02  2.913022794E+02  0.000000000E+00  0.00000E+00  9.000E+00
      25     1     1     2     0     0  3.472318901E+01  4.932671154E+01  4.352074044E+01  1.454574824E+02  1.250000000E+02  0.00000E+00  9.000E+00
      25     1     1     2     0     0  3.238864783E+01  1.343759584E+01 -1.194878638E+02  1.764424640E+02  1.250000000E+02  0.00000E+00  9.000E+00
      21     1     1     2   512   501 -6.711183685E+01 -6.276430738E+01 -6.951643405E+01  1.152210551E+02  1.651812370E-06  0.00000E+00  9.000E+00
#rwgt            1           1   4.1919269375119431E-002           2       90229           0
</event>
<event>
      5   9999  3.19816E-02  3.27531E+01 -1.00000E+00  1.50438E-01
      21    -1     0     0   502   501  0.000000000E+00  0.000000000E+00  4.331623272E+01  4.331623272E+01  0.000000000E+00  0.00000E+00  9.000E+00
       1    -1     0     0   501     0  0.000000000E+00  0.000000000E+00 -1.400070030E+03  1.400070030E+03  0.000000000E+00  0.00000E+00  9.000E+00
      25     1     1     2     0     0 -1.250632480E+02  2.659451846E+01 -3.110579677E+02  3.587898322E+02  1.250000000E+02  0.00000E+00  9.000E+00
      25     1     1     2     0     0  1.549150614E+02 -4.007166385E+01 -5.254093853E+02  5.632800695E+02  1.250000000E+02  0.00000E+00  9.000E+00
       1     1     1     2   502     0 -2.985181334E+01  1.347714538E+01 -5.202864443E+02  5.213163611E+02  7.629394531E-06  0.00000E+00  9.000E+00
#rwgt            1           1   3.2732014489911324E-002           2       90275           0
</event>
<event>
      5   9999  3.19816E-02  3.19281E+01 -1.00000E+00  1.51184E-01
      21    -1     0     0   502   511  0.000000000E+00  0.000000000E+00  4.657260494E+02  4.657260494E+02  0.000000000E+00  0.00000E+00  9.000E+00
      21    -1     0     0   501   502  0.000000000E+00  0.000000000E+00 -3.284967891E+02  3.284967891E+02  0.000000000E+00  0.00000E+00  9.000E+00
      25     1     1     2     0     0 -8.004043956E+01  5.924275012E+01 -1.174950731E+01  1.602473910E+02  1.250000000E+02  0.00000E+00  9.000E+00
      25     1     1     2     0     0  7.557375269E+01 -9.085690581E+01 -2.111962726E+02  2.723880228E+02  1.250000000E+02  0.00000E+00  9.000E+00
      21     1     1     2   501   511  4.466686869E+00  3.161415569E+01  3.601750401E+02  3.615874247E+02  0.000000000E+00  0.00000E+00  9.000E+00
#rwgt            1           1   3.1518111744917844E-002           2       90358           0
</event>
<event>
      5   9999  3.19816E-02  2.24895E+01 -1.00000E+00  1.62272E-01
      21    -1     0     0   502   501  0.000000000E+00  0.000000000E+00  1.946274426E+02  1.946274426E+02  0.000000000E+00  0.00000E+00  9.000E+00
      21    -1     0     0   512   502  0.000000000E+00  0.000000000E+00 -1.191574468E+03  1.191574468E+03  0.000000000E+00  0.00000E+00  9.000E+00
      25     1     1     2     0     0 -3.248644508E+02 -1.776898933E+02 -1.375286944E+02  4.143063496E+02  1.250000000E+02  0.00000E+00  9.000E+00
      25     1     1     2     0     0  3.045075972E+02  1.872488627E+02 -5.870376099E+02  6.985879822E+02  1.250000000E+02  0.00000E+00  9.000E+00
      21     1     1     2   512   501  2.035685358E+01 -9.558969358E+00 -2.723807207E+02  2.733075784E+02  3.814697266E-06  0.00000E+00  9.000E+00
#rwgt            1           1   2.7077833372135283E-002           2       90422           0
</event>
<event>
      5   9999  3.19816E-02  4.18948E+02 -1.00000E+00  1.01084E-01
      21    -1     0     0   502   501  0.000000000E+00  0.000000000E+00  8.497913842E+02  8.497913842E+02  0.000000000E+00  0.00000E+00  9.000E+00
      21    -1     0     0   501   511  0.000000000E+00  0.000000000E+00 -8.394959570E+02  8.394959570E+02  0.000000000E+00  0.00000E+00  9.000E+00
      25     1     1     2     0     0  1.820052700E+02  9.459271354E+01  1.800281641E+02  3.001813446E+02  1.250000000E+02  0.00000E+00  9.000E+00
      25     1     1     2     0     0 -8.211622555E+00 -4.757924675E+02  4.327738600E+02  6.552588166E+02  1.250000000E+02  0.00000E+00  9.000E+00
      21     1     1     2   502   511 -1.737936474E+02  3.811997539E+02 -6.025065969E+02  7.338471800E+02  7.629394531E-06  0.00000E+00  9.000E+00
#rwgt            2          11   4.5819447163272633E-003           2       90729           0
</event>
<event>
      5   9999  3.19816E-02  1.16530E+02 -1.00000E+00  1.20912E-01
      21    -1     0     0   502   501  0.000000000E+00  0.000000000E+00  1.643833023E+02  1.643833023E+02  0.000000000E+00  0.00000E+00  9.000E+00
      21    -1     0     0   512   502  0.000000000E+00  0.000000000E+00 -5.591205380E+02  5.591205380E+02  0.000000000E+00  0.00000E+00  9.000E+00
      25     1     1     2     0     0 -6.278341109E+00 -1.816183943E+02 -1.757087081E+02  2.819985972E+02  1.250000000E+02  0.00000E+00  9.000E+00
      25     1     1     2     0     0  1.198553092E+02  1.555521091E+02 -5.312418459E+01  2.387654346E+02  1.250000000E+02  0.00000E+00  9.000E+00
      21     1     1     2   512   501 -1.135769681E+02  2.606628518E+01 -1.659043430E+02  2.027398085E+02  2.697398305E-06  0.00000E+00  9.000E+00
#rwgt            1           1   2.8760974419980725E-002           2       90749           0
</event>
<event>
      5   9999  3.19816E-02  1.09804E+02 -1.00000E+00  1.22028E-01
      21    -1     0     0   502   501  0.000000000E+00  0.000000000E+00  1.507732042E+03  1.507732042E+03  0.000000000E+00  0.00000E+00  9.000E+00
      21    -1     0     0   501   511  0.000000000E+00  0.000000000E+00 -2.073302263E+02  2.073302263E+02  0.000000000E+00  0.00000E+00  9.000E+00
      25     1     1     2     0     0  1.356288995E+02 -3.407364871E+02  3.716284434E+02  5.368698650E+02  1.250000000E+02  0.00000E+00  9.000E+00
      25     1     1     2     0     0 -1.701572673E+02  2.365026076E+02  9.988337485E+02  1.047941237E+03  1.250000000E+02  0.00000E+00  9.000E+00
      21     1     1     2   502   511  3.452836778E+01  1.042338795E+02 -7.006037665E+01  1.302511658E+02  4.370284743E-06  0.00000E+00  9.000E+00
#rwgt            1           1   2.6614904182724448E-002           2       90799           0
</event>
<event>
      5   9999  3.19816E-02  1.33804E+02 -1.00000E+00  1.18395E-01
       2    -1     0     0   502     0  0.000000000E+00  0.000000000E+00  2.101136073E+03  2.101136073E+03  0.000000000E+00  0.00000E+00  9.000E+00
      21    -1     0     0   501   502  0.000000000E+00  0.000000000E+00 -2.838072150E+02  2.838072150E+02  0.000000000E+00  0.00000E+00  9.000E+00
      25     1     1     2     0     0  4.721392299E+02  7.806988931E+00  8.523744582E+01  4.958495978E+02  1.250000000E+02  0.00000E+00  9.000E+00
      25     1     1     2     0     0 -4.582293255E+02  1.252719994E+02  7.411174842E+02  8.891272766E+02  1.250000000E+02  0.00000E+00  9.000E+00
       2     1     1     2   501     0 -1.390990440E+01 -1.330789884E+02  9.909739278E+02  9.999664136E+02  0.000000000E+00  0.00000E+00  9.000E+00
#rwgt            1           1   2.6900720023151810E-002           2       90855           0
</event>
<event>
      5   9999  3.19816E-02  7.64887E+01 -1.00000E+00  1.29300E-01
      21    -1     0     0   502   511  0.000000000E+00  0.000000000E+00  1.773958657E+02  1.773958657E+02  0.000000000E+00  0.00000E+00  9.000E+00
      21    -1     0     0   501   502  0.000000000E+00  0.000000000E+00 -7.252722015E+02  7.252722015E+02  0.000000000E+00  0.00000E+00  9.000E+00
      25     1     1     2     0     0  9.963877619E+01 -1.603411136E+02 -2.925400131E+02  3.699213669E+02  1.250000000E+02  0.00000E+00  9.000E+00
      25     1     1     2     0     0 -4.344366771E+01  1.084505140E+02 -3.626376866E+02  4.009737622E+02  1.250000000E+02  0.00000E+00  9.000E+00
      21     1     1     2   501   511 -5.619510848E+01  5.189059960E+01  1.073013638E+02  1.317729381E+02  2.336015456E-06  0.00000E+00  9.000E+00
#rwgt            1           1   2.7797944475251166E-002           2       90926           0
</event>
<event>
      5   9999  3.19816E-02  1.06122E+02 -1.00000E+00  1.22678E-01
      21    -1     0     0   502   512  0.000000000E+00  0.000000000E+00  2.383182237E+02  2.383182237E+02  0.000000000E+00  0.00000E+00  9.000E+00
      21    -1     0     0   501   502  0.000000000E+00  0.000000000E+00 -1.152761325E+03  1.152761325E+03  0.000000000E+00  0.00000E+00  9.000E+00
      25     1     1     2     0     0 -1.920075799E+02 -2.344816214E+02 -1.526750563E+02  3.616396194E+02  1.250000000E+02  0.00000E+00  9.000E+00
      25     1     1     2     0     0  1.949278204E+02  1.284000765E+02 -8.507173046E+02  8.909704637E+02  1.250000000E+02  0.00000E+00  9.000E+00
      21     1     1     2   501   512 -2.920240542E+00  1.060815450E+02  8.894925988E+01  1.384694653E+02  0.000000000E+00  0.00000E+00  9.000E+00
#rwgt            1           1   3.4017621829369050E-002           2       90977           0
</event>
<event>
      5   9999  3.19816E-02  2.98234E+02 -1.00000E+00  1.05675E-01
      21    -1     0     0   502   501  0.000000000E+00  0.000000000E+00  1.334900237E+03  1.334900237E+03  0.000000000E+00  0.00000E+00  9.000E+00
      21    -1     0     0   511   502  0.000000000E+00  0.000000000E+00 -1.352306376E+03  1.352306376E+03  0.000000000E+00  0.00000E+00  9.000E+00
      25     1     1     2     0     0  1.245761956E+03 -4.900180507E+01  2.926361601E+02  1.286695360E+03  1.250000000E+02  0.00000E+00  9.000E+00
      25     1     1     2     0     0 -1.041919788E+03 -1.686953832E+02 -1.936059476E+02  1.080353294E+03  1.250000000E+02  0.00000E+00  9.000E+00
      21     1     1     2   511   501 -2.038421670E+02  2.176971883E+02 -1.164363515E+02  3.201579591E+02  1.348699152E-06  0.00000E+00  9.000E+00
#rwgt            1           1   6.6904841123689732E-002           2       91071           0
</event>
<event>
      5   9999  3.19816E-02  1.60501E+02 -1.00000E+00  1.15241E-01
      -3    -1     0     0     0   501  0.000000000E+00  0.000000000E+00  5.983124181E+02  5.983124181E+02  0.000000000E+00  0.00000E+00  9.000E+00
      21    -1     0     0   501   502  0.000000000E+00  0.000000000E+00 -2.659498983E+02  2.659498983E+02  0.000000000E+00  0.00000E+00  9.000E+00
      25     1     1     2     0     0  2.345612191E+02 -7.601709720E+01  3.092975212E+00  2.764636162E+02  1.250000000E+02  0.00000E+00  9.000E+00
      25     1     1     2     0     0 -8.486721098E+01  1.811718477E+01 -6.243973300E+01  1.644822061E+02  1.250000000E+02  0.00000E+00  9.000E+00
      -3     1     1     2     0   502 -1.496940081E+02  5.789991243E+01  3.917092776E+02  4.233164940E+02  5.394796609E-06  0.00000E+00  9.000E+00
#rwgt            1           1   2.6124653442695104E-002           2       91165           0
</event>
<event>
      5   9999  3.19816E-02  5.99931E+01 -1.00000E+00  1.34706E-01
       2    -1     0     0   502     0  0.000000000E+00  0.000000000E+00  3.832648294E+03  3.832648294E+03  0.000000000E+00  0.00000E+00  9.000E+00
      21    -1     0     0   501   502  0.000000000E+00  0.000000000E+00 -4.180013053E+01  4.180013053E+01  0.000000000E+00  0.00000E+00  9.000E+00
      25     1     1     2     0     0  1.078050083E+02 -8.602401900E+01  3.708783998E+02  4.149672747E+02  1.250000000E+02  0.00000E+00  9.000E+00
      25     1     1     2     0     0 -1.477468266E+02  4.125992017E+01  4.838666991E+02  5.227652324E+02  1.250000000E+02  0.00000E+00  9.000E+00
       2     1     1     2   501     0  3.994181829E+01  4.476409883E+01  2.936103065E+03  2.936715918E+03  6.103515625E-05  0.00000E+00  9.000E+00
#rwgt            1           1   2.6023613270403780E-002           2       91219           0
</event>
<event>
      5   9999  3.19816E-02  5.02085E+01 -1.00000E+00  1.38972E-01
      21    -1     0     0   502   501  0.000000000E+00  0.000000000E+00  1.153715261E+03  1.153715261E+03  0.000000000E+00  0.00000E+00  9.000E+00
      21    -1     0     0   511   502  0.000000000E+00  0.000000000E+00 -1.010586504E+02  1.010586504E+02  0.000000000E+00  0.00000E+00  9.000E+00
      25     1     1     2     0     0  6.754711128E+01  3.541025580E+01  1.038704884E+03  1.048975373E+03  1.250000000E+02  0.00000E+00  9.000E+00
      25     1     1     2     0     0 -1.830643510E+01 -2.559937812E+01 -3.716109339E+01  1.341506638E+02  1.250000000E+02  0.00000E+00  9.000E+00
      21     1     1     2   511   501 -4.924067619E+01 -9.810877683E+00  5.111282081E+01  7.164787480E+01  1.168007728E-06  0.00000E+00  9.000E+00
#rwgt            1           1   2.7724502939824390E-002           2       91295           0
</event>
<event>
      5   9999  3.19816E-02  2.77194E+01 -1.00000E+00  1.55464E-01
      21    -1     0     0   502   501  0.000000000E+00  0.000000000E+00  6.265639682E+02  6.265639682E+02  0.000000000E+00  0.00000E+00  9.000E+00
      21    -1     0     0   501   512  0.000000000E+00  0.000000000E+00 -1.976314175E+03  1.976314175E+03  0.000000000E+00  0.00000E+00  9.000E+00
      25     1     1     2     0     0  1.335108403E+02  2.959576276E+02 -3.677043482E+02  5.062089979E+02  1.250000000E+02  0.00000E+00  9.000E+00
      25     1     1     2     0     0 -1.386182769E+02 -3.232023933E+02  4.946795929E+02  6.196835590E+02  1.250000000E+02  0.00000E+00  9.000E+00
      21     1     1     2   502   512  5.107436585E+00  2.724476567E+01 -1.476725451E+03  1.476985586E+03  0.000000000E+00  0.00000E+00  9.000E+00
#rwgt            1           1   2.9676613231452348E-002           2       91404           0
</event>
<event>
      5   9999  3.19816E-02  2.46594E+02 -1.00000E+00  1.08434E-01
      21    -1     0     0   502   501  0.000000000E+00  0.000000000E+00  7.065367864E+02  7.065367864E+02  0.000000000E+00  0.00000E+00  9.000E+00
      21    -1     0     0   511   502  0.000000000E+00  0.000000000E+00 -2.733997558E+02  2.733997558E+02  0.000000000E+00  0.00000E+00  9.000E+00
      25     1     1     2     0     0  3.719281440E+01  1.229568285E+01  4.560559269E+02  4.744960460E+02  1.250000000E+02  0.00000E+00  9.000E+00
      25     1     1     2     0     0  1.937190823E+02  7.423890829E+01 -7.471087233E+01  2.534663938E+02  1.250000000E+02  0.00000E+00  9.000E+00
      21     1     1     2   511   501 -2.309118967E+02 -8.653459114E+01  5.179197609E+01  2.519741024E+02  1.507891493E-06  0.00000E+00  9.000E+00
#rwgt            2          11   3.3368499818130018E-003           2       91621           0
</event>
<event>
      5   9999  3.19816E-02  3.72947E+01 -1.00000E+00  1.46752E-01
      21    -1     0     0   502   501  0.000000000E+00  0.000000000E+00  1.828153604E+03  1.828153604E+03  0.000000000E+00  0.00000E+00  9.000E+00
      21    -1     0     0   501   512  0.000000000E+00  0.000000000E+00 -1.330871052E+02  1.330871052E+02  0.000000000E+00  0.00000E+00  9.000E+00
      25     1     1     2     0     0 -1.447860266E+02 -1.129413193E+02  1.645599376E+03  1.660524327E+03  1.250000000E+02  0.00000E+00  9.000E+00
      25     1     1     2     0     0  1.708799854E+02  1.395870849E+02  2.229186882E+01  2.545711120E+02  1.250000000E+02  0.00000E+00  9.000E+00
      21     1     1     2   502   512 -2.609395874E+01 -2.664576559E+01  2.717525383E+01  4.614526982E+01  4.768371582E-07  0.00000E+00  9.000E+00
#rwgt            1           1   2.9100346081470052E-002           2       91656           0
</event>
<event>
      5   9999  3.19816E-02  4.29268E+01 -1.00000E+00  1.42963E-01
      21    -1     0     0   502   501  0.000000000E+00  0.000000000E+00  1.068878516E+03  1.068878516E+03  0.000000000E+00  0.00000E+00  9.000E+00
      21    -1     0     0   511   502  0.000000000E+00  0.000000000E+00 -8.745651627E+01  8.745651627E+01  0.000000000E+00  0.00000E+00  9.000E+00
      25     1     1     2     0     0  4.643289699E+01 -1.334179096E+02  6.668944154E+01  2.000720724E+02  1.250000000E+02  0.00000E+00  9.000E+00
      25     1     1     2     0     0 -7.832273335E+01  1.621536973E+02  8.553271567E+02  8.829710171E+02  1.250000000E+02  0.00000E+00  9.000E+00
      21     1     1     2   511   501  3.188983636E+01 -2.873578765E+01  5.940540159E+01  7.329194289E+01  0.000000000E+00  0.00000E+00  9.000E+00
#rwgt            1           1   2.9906697071975987E-002           2       91756           0
</event>
<event>
      5   9999  3.19816E-02  1.07712E+02 -1.00000E+00  1.22394E-01
       1    -1     0     0   502     0  0.000000000E+00  0.000000000E+00  1.127497585E+03  1.127497585E+03  0.000000000E+00  0.00000E+00  9.000E+00
      21    -1     0     0   501   502  0.000000000E+00  0.000000000E+00 -4.947720042E+02  4.947720042E+02  0.000000000E+00  0.00000E+00  9.000E+00
      25     1     1     2     0     0 -4.213841814E+02  3.640768042E+02  3.128098944E+02  6.508391335E+02  1.250000000E+02  0.00000E+00  9.000E+00
      25     1     1     2     0     0  4.525119126E+02 -2.609606410E+02 -9.264001097E+01  5.450455567E+02  1.250000000E+02  0.00000E+00  9.000E+00
       1     1     1     2   501     0 -3.112773126E+01 -1.031161632E+02  4.125556978E+02  4.263848995E+02  0.000000000E+00  0.00000E+00  9.000E+00
#rwgt            1           1   2.9388206114417351E-002           2       91912           0
</event>
<event>
      5   9999  3.19816E-02  3.31355E+01 -1.00000E+00  1.50100E-01
      21    -1     0     0   502   501  0.000000000E+00  0.000000000E+00  7.935960306E+02  7.935960306E+02  0.000000000E+00  0.00000E+00  9.000E+00
      21    -1     0     0   501   511  0.000000000E+00  0.000000000E+00 -1.250514030E+02  1.250514030E+02  0.000000000E+00  0.00000E+00  9.000E+00
      25     1     1     2     0     0 -1.816444300E+02  6.311689831E+01  6.163718832E+02  6.576608094E+02  1.250000000E+02  0.00000E+00  9.000E+00
      25     1     1     2     0     0  1.597036188E+02 -8.794762058E+01  3.547890222E+01  2.238834123E+02  1.250000000E+02  0.00000E+00  9.000E+00
      21     1     1     2   502   511  2.194081123E+01  2.483072227E+01  1.669384225E+01  3.710321192E+01  0.000000000E+00  0.00000E+00  9.000E+00
#rwgt            1           1   3.0709314996918580E-002           2       91987           0
</event>
<event>
      5   9999  3.19816E-02  1.96254E+02 -1.00000E+00  1.11948E-01
      21    -1     0     0   512   501  0.000000000E+00  0.000000000E+00  6.198896971E+02  6.198896971E+02  0.000000000E+00  0.00000E+00  9.000E+00
      21    -1     0     0   501   502  0.000000000E+00  0.000000000E+00 -5.326762211E+02  5.326762211E+02  0.000000000E+00  0.00000E+00  9.000E+00
      25     1     1     2     0     0 -3.864141017E+01  3.715499522E+02 -1.741402115E+01  3.942978236E+02  1.250000000E+02  0.00000E+00  9.000E+00
      25     1     1     2     0     0  1.803321966E+02 -5.073411627E+02  5.271448127E+01  5.552644172E+02  1.250000000E+02  0.00000E+00  9.000E+00
      21     1     1     2   512   502 -1.416907864E+02  1.357912105E+02  5.191301587E+01  2.030036773E+02  3.438521648E-06  0.00000E+00  9.000E+00
#rwgt            1           1   2.0763176720078918E-002           2       92127           0
</event>
<event>
      5   9999  3.19816E-02  1.05704E+01 -1.00000E+00  1.93013E-01
      21    -1     0     0   502   501  0.000000000E+00  0.000000000E+00  1.173256158E+03  1.173256158E+03  0.000000000E+00  0.00000E+00  9.000E+00
      21    -1     0     0   501   511  0.000000000E+00  0.000000000E+00 -4.885840106E+01  4.885840106E+01  0.000000000E+00  0.00000E+00  9.000E+00
      25     1     1     2     0     0  1.124278987E+01 -1.067371980E+02  1.373210248E+02  2.144791216E+02  1.250000000E+02  0.00000E+00  9.000E+00
      25     1     1     2     0     0 -1.970555810E+01  1.130707698E+02  9.807348118E+02  9.953085347E+02  1.250000000E+02  0.00000E+00  9.000E+00
      21     1     1     2   502   511  8.462768238E+00 -6.333571825E+00  6.341920250E+00  1.232690272E+01  8.429369702E-08  0.00000E+00  9.000E+00
#rwgt            1           1   2.7839389092992998E-002           2       92198           0
</event>
<event>
      5   9999  3.19816E-02  2.67209E+01 -1.00000E+00  1.56615E-01
      21    -1     0     0   502   501  0.000000000E+00  0.000000000E+00  1.855962410E+03  1.855962410E+03  0.000000000E+00  0.00000E+00  9.000E+00
      21    -1     0     0   512   502  0.000000000E+00  0.000000000E+00 -1.876462946E+03  1.876462946E+03  0.000000000E+00  0.00000E+00  9.000E+00
      25     1     1     2     0     0 -1.064871633E+03 -2.589449890E+02  1.473766332E+03  1.840819465E+03  1.250000000E+02  0.00000E+00  9.000E+00
      25     1     1     2     0     0  1.083474604E+03  2.781266314E+02 -1.484916094E+03  1.863296125E+03  1.250000000E+02  0.00000E+00  9.000E+00
      21     1     1     2   512   501 -1.860297074E+01 -1.918164244E+01 -9.350773750E+00  2.830976681E+01  6.637292341E-07  0.00000E+00  9.000E+00
#rwgt            1           1   2.5369350616016969E-002           2       92449           0
</event>
<event>
      5   9999  3.19816E-02  4.64830E+01 -1.00000E+00  1.40907E-01
      21    -1     0     0   502   511  0.000000000E+00  0.000000000E+00  3.797840127E+02  3.797840127E+02  0.000000000E+00  0.00000E+00  9.000E+00
      21    -1     0     0   501   502  0.000000000E+00  0.000000000E+00 -1.595936666E+03  1.595936666E+03  0.000000000E+00  0.00000E+00  9.000E+00
      25     1     1     2     0     0  1.257281424E+02 -8.007968139E+01 -1.176200358E+03  1.192179769E+03  1.250000000E+02  0.00000E+00  9.000E+00
      25     1     1     2     0     0 -8.446448277E+01  1.014802318E+02 -3.900638354E+02  4.303571563E+02  1.250000000E+02  0.00000E+00  9.000E+00
      21     1     1     2   501   511 -4.126365961E+01 -2.140055045E+01  3.501115397E+02  3.531837531E+02  0.000000000E+00  0.00000E+00  9.000E+00
#rwgt            2          11  0.11125626501506235                2       92829           0
</event>
<event>
      5   9999  3.19816E-02  8.11010E+01 -1.00000E+00  1.28063E-01
      21    -1     0     0   502   501  0.000000000E+00  0.000000000E+00  8.674267464E+02  8.674267464E+02  0.000000000E+00  0.00000E+00  9.000E+00
      21    -1     0     0   512   502  0.000000000E+00  0.000000000E+00 -1.145414759E+02  1.145414759E+02  0.000000000E+00  0.00000E+00  9.000E+00
      25     1     1     2     0     0 -1.203683398E+02  2.469122832E+01  1.482239697E+02  2.295507334E+02  1.250000000E+02  0.00000E+00  9.000E+00
      25     1     1     2     0     0  1.931918899E+02  1.100326589E+01  6.272617396E+02  6.682263599E+02  1.250000000E+02  0.00000E+00  9.000E+00
      21     1     1     2   512   501 -7.282355009E+01 -3.569449421E+01 -2.260043874E+01  8.419112896E+01  2.466220959E-06  0.00000E+00  9.000E+00
#rwgt            1           1   2.5756301354662788E-002           2       92864           0
</event>
<event>
      5   9999  3.19816E-02  5.48555E+01 -1.00000E+00  1.36817E-01
      21    -1     0     0   502   501  0.000000000E+00  0.000000000E+00  3.851976588E+02  3.851976588E+02  0.000000000E+00  0.00000E+00  9.000E+00
      21    -1     0     0   511   502  0.000000000E+00  0.000000000E+00 -2.203438873E+02  2.203438873E+02  0.000000000E+00  0.00000E+00  9.000E+00
      25     1     1     2     0     0 -1.468214044E+02 -9.321576428E+01 -1.047062851E+01  2.144302627E+02  1.250000000E+02  0.00000E+00  9.000E+00
      25     1     1     2     0     0  1.005927389E+02  6.368543698E+01  2.466951777E+02  3.010950758E+02  1.250000000E+02  0.00000E+00  9.000E+00
      21     1     1     2   511   501  4.622866549E+01  2.953032730E+01 -7.137077758E+01  9.001620763E+01  0.000000000E+00  0.00000E+00  9.000E+00
#rwgt            1           1   2.8064405253085178E-002           2       92935           0
</event>
<event>
      5   9999  3.19816E-02  4.47263E+01 -1.00000E+00  1.41895E-01
      21    -1     0     0   502   501  0.000000000E+00  0.000000000E+00  4.647043336E+02  4.647043336E+02  0.000000000E+00  0.00000E+00  9.000E+00
       1    -1     0     0   501     0  0.000000000E+00  0.000000000E+00 -1.084165648E+03  1.084165648E+03  0.000000000E+00  0.00000E+00  9.000E+00
      25     1     1     2     0     0 -7.455373586E+01  2.858118429E+02  1.643394878E+01  3.211568834E+02  1.250000000E+02  0.00000E+00  9.000E+00
      25     1     1     2     0     0  1.041442384E+02 -3.193505129E+02  1.865515352E+02  4.040510459E+02  1.250000000E+02  0.00000E+00  9.000E+00
       1     1     1     2   502     0 -2.959050256E+01  3.353866998E+01 -8.224467985E+02  8.236620524E+02  1.078959322E-05  0.00000E+00  9.000E+00
#rwgt            1           1   2.5950402510217980E-002           2       93014           0
</event>
<event>
      5   9999  3.19816E-02  5.16373E+01 -1.00000E+00  1.38282E-01
      21    -1     0     0   511   501  0.000000000E+00  0.000000000E+00  6.744493715E+02  6.744493715E+02  0.000000000E+00  0.00000E+00  9.000E+00
      21    -1     0     0   501   502  0.000000000E+00  0.000000000E+00 -1.829053368E+03  1.829053368E+03  0.000000000E+00  0.00000E+00  9.000E+00
      25     1     1     2     0     0  7.159119927E+02 -9.478397301E+01 -9.721274782E+02  1.217444379E+03  1.250000000E+02  0.00000E+00  9.000E+00
      25     1     1     2     0     0 -7.477774937E+02  5.415147458E+01 -5.351802041E+02  9.295947575E+02  1.250000000E+02  0.00000E+00  9.000E+00
      21     1     1     2   511   502  3.186550100E+01  4.063249843E+01  3.527036858E+02  3.564636027E+02  6.607249480E-06  0.00000E+00  9.000E+00
#rwgt            1           1   2.5302103342253111E-002           2       93145           0
</event>
<event>
      5   9999  3.19816E-02  1.42420E+01 -1.00000E+00  1.79532E-01
      21    -1     0     0   502   501  0.000000000E+00  0.000000000E+00  7.847165314E+01  7.847165314E+01  0.000000000E+00  0.00000E+00  9.000E+00
      21    -1     0     0   512   502  0.000000000E+00  0.000000000E+00 -9.300409503E+02  9.300409503E+02  0.000000000E+00  0.00000E+00  9.000E+00
      25     1     1     2     0     0  8.816268251E+01  1.189747823E+02 -8.115524615E+01  2.100924353E+02  1.250000000E+02  0.00000E+00  9.000E+00
      25     1     1     2     0     0 -9.681074311E+01 -1.076590704E+02 -6.621866672E+02  6.892597316E+02  1.250000000E+02  0.00000E+00  9.000E+00
      21     1     1     2   512   501  8.648060599E+00 -1.131571194E+01 -1.082273838E+02  1.091604365E+02  1.348699152E-06  0.00000E+00  9.000E+00
#rwgt            1           1   2.7476709860453041E-002           2       93251           0
</event>
<event>
      5   9999  3.19816E-02  8.40485E+01 -1.00000E+00  1.27320E-01
      21    -1     0     0   502   501  0.000000000E+00  0.000000000E+00  9.706378178E+02  9.706378178E+02  0.000000000E+00  0.00000E+00  9.000E+00
      21    -1     0     0   511   502  0.000000000E+00  0.000000000E+00 -8.913725902E+02  8.913725902E+02  0.000000000E+00  0.00000E+00  9.000E+00
      25     1     1     2     0     0  5.733213345E+02  1.092346060E+02 -5.202505222E+02  7.917797406E+02  1.250000000E+02  0.00000E+00  9.000E+00
      25     1     1     2     0     0 -5.681548851E+02 -1.931241634E+02  7.057458601E+02  9.347722370E+02  1.250000000E+02  0.00000E+00  9.000E+00
      21     1     1     2   511   501 -5.166449384E+00  8.388955745E+01 -1.062301103E+02  1.354584305E+02  1.348699152E-06  0.00000E+00  9.000E+00
#rwgt            1           1   2.8528759824907442E-002           2       93489           0
</event>
<event>
      5   9999  3.19816E-02  3.14316E+02 -1.00000E+00  1.04938E-01
      21    -1     0     0   502   501  0.000000000E+00  0.000000000E+00  4.078489056E+02  4.078489056E+02  0.000000000E+00  0.00000E+00  9.000E+00
      21    -1     0     0   501   512  0.000000000E+00  0.000000000E+00 -4.148866671E+03  4.148866671E+03  0.000000000E+00  0.00000E+00  9.000E+00
      25     1     1     2     0     0  4.263305134E+02 -9.339067897E+02 -7.593280390E+02  1.283021305E+03  1.250000000E+02  0.00000E+00  9.000E+00
      25     1     1     2     0     0 -4.006795020E+02  6.206393517E+02 -9.121185812E+02  1.180390857E+03  1.250000000E+02  0.00000E+00  9.000E+00
      21     1     1     2   502   512 -2.565101137E+01  3.132674380E+02 -2.069571145E+03  2.093303415E+03  6.103515625E-05  0.00000E+00  9.000E+00
#rwgt            2          11   1.4322741129459100E-004           2       93688           0
</event>
<event>
      5   9999  3.19816E-02  1.62783E+02 -1.00000E+00  1.15003E-01
      21    -1     0     0   502   511  0.000000000E+00  0.000000000E+00  5.014373223E+01  5.014373223E+01  0.000000000E+00  0.00000E+00  9.000E+00
      21    -1     0     0   501   502  0.000000000E+00  0.000000000E+00 -2.021222666E+03  2.021222666E+03  0.000000000E+00  0.00000E+00  9.000E+00
      25     1     1     2     0     0  1.211888118E+02  2.132003231E+02 -6.252448553E+02  6.831524244E+02  1.250000000E+02  0.00000E+00  9.000E+00
      25     1     1     2     0     0 -7.881878703E+01 -5.602856809E+01 -8.960308174E+02  9.098614330E+02  1.250000000E+02  0.00000E+00  9.000E+00
      21     1     1     2   501   511 -4.237002476E+01 -1.571717550E+02 -4.498032610E+02  4.783525407E+02  5.394796609E-06  0.00000E+00  9.000E+00
#rwgt            1           1   3.0457446165574026E-002           2       93708           0
</event>
<event>
      5   9999  3.19816E-02  1.09587E+01 -1.00000E+00  1.91270E-01
       2    -1     0     0   502     0  0.000000000E+00  0.000000000E+00  9.828345192E+02  9.828345192E+02  0.000000000E+00  0.00000E+00  9.000E+00
      21    -1     0     0   501   502  0.000000000E+00  0.000000000E+00 -1.103479766E+03  1.103479766E+03  0.000000000E+00  0.00000E+00  9.000E+00
      25     1     1     2     0     0  5.070930993E+01 -1.326108888E+01 -7.032357749E+01  1.527013299E+02  1.250000000E+02  0.00000E+00  9.000E+00
      25     1     1     2     0     0 -4.493062197E+01  3.949758126E+00 -9.874845430E+02  9.963860116E+02  1.250000000E+02  0.00000E+00  9.000E+00
       2     1     1     2   501     0 -5.778687959E+00  9.311330756E+00  9.371628733E+02  9.372269443E+02  1.078959322E-05  0.00000E+00  9.000E+00
#rwgt            1           1   3.0650544290589003E-002           2       93754           0
</event>
<event>
      5   9999  3.19816E-02  1.52853E+02 -1.00000E+00  1.16070E-01
      21    -1     0     0   502   511  0.000000000E+00  0.000000000E+00  1.468276693E+03  1.468276693E+03  0.000000000E+00  0.00000E+00  9.000E+00
      21    -1     0     0   501   502  0.000000000E+00  0.000000000E+00 -4.338908771E+02  4.338908771E+02  0.000000000E+00  0.00000E+00  9.000E+00
      25     1     1     2     0     0  4.434087238E+02  4.001458762E+02  1.059031494E+03  1.222252316E+03  1.250000000E+02  0.00000E+00  9.000E+00
      25     1     1     2     0     0 -3.013271504E+02 -3.437813186E+02 -1.333709492E+02  4.923377465E+02  1.250000000E+02  0.00000E+00  9.000E+00
      21     1     1     2   501   511 -1.420815734E+02 -5.636455758E+01  1.087252715E+02  1.875775080E+02  1.907348633E-06  0.00000E+00  9.000E+00
#rwgt            1           1   2.8815080462018142E-002           2       93936           0
</event>
<event>
      5   9999  3.19816E-02  1.17936E+02 -1.00000E+00  1.20689E-01
      21    -1     0     0   502   501  0.000000000E+00  0.000000000E+00  1.561754530E+03  1.561754530E+03  0.000000000E+00  0.00000E+00  9.000E+00
      21    -1     0     0   512   502  0.000000000E+00  0.000000000E+00 -6.849057031E+01  6.849057031E+01  0.000000000E+00  0.00000E+00  9.000E+00
      25     1     1     2     0     0  1.884094931E+02 -6.245736072E+01  1.144571514E+03  1.168361250E+03  1.250000000E+02  0.00000E+00  9.000E+00
      25     1     1     2     0     0 -1.189934775E+02 -3.288610125E+01  1.508828524E+02  2.315849272E+02  1.250000000E+02  0.00000E+00  9.000E+00
      21     1     1     2   512   501 -6.941601560E+01  9.534346196E+01  1.978095932E+02  2.302989234E+02  0.000000000E+00  0.00000E+00  9.000E+00
#rwgt            1           1   3.0020841327240443E-002           2       94012           0
</event>
<event>
      5   9999  3.19816E-02  5.63061E+01 -1.00000E+00  1.36195E-01
      21    -1     0     0   502   501  0.000000000E+00  0.000000000E+00  8.935037247E+01  8.935037247E+01  0.000000000E+00  0.00000E+00  9.000E+00
      21    -1     0     0   501   511  0.000000000E+00  0.000000000E+00 -1.663122673E+03  1.663122673E+03  0.000000000E+00  0.00000E+00  9.000E+00
      25     1     1     2     0     0  1.455283318E+02  2.049110056E+02 -2.634981159E+02  3.849977567E+02  1.250000000E+02  0.00000E+00  9.000E+00
      25     1     1     2     0     0 -1.778853037E+02 -2.509913823E+02 -1.173180196E+03  1.219268891E+03  1.250000000E+02  0.00000E+00  9.000E+00
      21     1     1     2   502   511  3.235697194E+01  4.608037668E+01 -1.370939890E+02  1.482063985E+02  1.907348633E-06  0.00000E+00  9.000E+00
#rwgt            1           1   3.0493890020838105E-002           2       94105           0
</event>
<event>
      5   9999  3.19816E-02  2.56721E+01 -1.00000E+00  1.57893E-01
      21    -1     0     0   502   501  0.000000000E+00  0.000000000E+00  1.042435246E+03  1.042435246E+03  0.000000000E+00  0.00000E+00  9.000E+00
      -3    -1     0     0     0   502  0.000000000E+00  0.000000000E+00 -4.066881831E+02  4.066881831E+02  0.000000000E+00  0.00000E+00  9.000E+00
      25     1     1     2     0     0  3.219839749E+01 -2.852542054E+02  4.855238853E+02  5.777241052E+02  1.250000000E+02  0.00000E+00  9.000E+00
      25     1     1     2     0     0 -9.226640664E+00  2.737931926E+02  4.658679172E+02  5.547123214E+02  1.250000000E+02  0.00000E+00  9.000E+00
      -3     1     1     2     0   501 -2.297175683E+01  1.146101282E+01 -3.156447393E+02  3.166870030E+02  5.394796609E-06  0.00000E+00  9.000E+00
#rwgt            1           1   2.6697489836797376E-002           2       94224           0
</event>
<event>
      5   9999  3.19816E-02  1.36878E+02 -1.00000E+00  1.17991E-01
      21    -1     0     0   502   501  0.000000000E+00  0.000000000E+00  9.125952318E+02  9.125952318E+02  0.000000000E+00  0.00000E+00  9.000E+00
       2    -1     0     0   501     0  0.000000000E+00  0.000000000E+00 -1.423599538E+03  1.423599538E+03  0.000000000E+00  0.00000E+00  9.000E+00
      25     1     1     2     0     0 -6.883600471E+02 -1.223953686E+02 -9.810580472E+01  7.169867011E+02  1.250000000E+02  0.00000E+00  9.000E+00
      25     1     1     2     0     0  8.241076182E+02  1.048410657E+02  3.009316129E+02  8.923731569E+02  1.250000000E+02  0.00000E+00  9.000E+00
       2     1     1     2   502     0 -1.357475712E+02  1.755430290E+01 -7.138301140E+02  7.268349113E+02  1.705984480E-05  0.00000E+00  9.000E+00
#rwgt            1           1   3.2739627013291299E-002           2       94406           0
</event>
<event>
      5   9999  3.19816E-02  5.47339E+01 -1.00000E+00  1.36870E-01
      21    -1     0     0   511   501  0.000000000E+00  0.000000000E+00  2.141901315E+03  2.141901315E+03  0.000000000E+00  0.00000E+00  9.000E+00
      21    -1     0     0   501   502  0.000000000E+00  0.000000000E+00 -6.157048937E+01  6.157048937E+01  0.000000000E+00  0.00000E+00  9.000E+00
      25     1     1     2     0     0  7.014114430E+01  2.030154826E+01  1.690568825E+03  1.696755694E+03  1.250000000E+02  0.00000E+00  9.000E+00
      25     1     1     2     0     0 -2.622193456E+01 -5.296508350E+01  2.830040698E+01  1.411339894E+02  1.250000000E+02  0.00000E+00  9.000E+00
      21     1     1     2   511   502 -4.391920975E+01  3.266353524E+01  3.614615938E+02  3.655821212E+02  5.394796609E-06  0.00000E+00  9.000E+00
#rwgt            1           1   3.3100606661793153E-002           2       94483           0
</event>
<event>
      5   9999  3.19816E-02  4.98040E+02 -1.00000E+00  9.89005E-02
      21    -1     0     0   502   501  0.000000000E+00  0.000000000E+00  9.773030844E+02  9.773030844E+02  0.000000000E+00  0.00000E+00  9.000E+00
       2    -1     0     0   501     0  0.000000000E+00  0.000000000E+00 -1.192822743E+03  1.192822743E+03  0.000000000E+00  0.00000E+00  9.000E+00
      25     1     1     2     0     0 -3.705041110E+02  4.805928423E+02  2.535467409E+01  6.200892160E+02  1.250000000E+02  0.00000E+00  9.000E+00
      25     1     1     2     0     0  9.663586099E+01 -6.461203733E+01  5.718866928E+02  5.968187282E+02  1.250000000E+02  0.00000E+00  9.000E+00
       2     1     1     2   502     0  2.738682500E+02 -4.159808050E+02 -8.127610258E+02  9.532178835E+02  1.078959322E-05  0.00000E+00  9.000E+00
#rwgt            2          13   1.5479265018546904E-003           2       94778           0
</event>
<event>
      5   9999  3.19816E-02  1.71788E+02 -1.00000E+00  1.14106E-01
       1    -1     0     0   502     0  0.000000000E+00  0.000000000E+00  3.006698721E+03  3.006698721E+03  0.000000000E+00  0.00000E+00  9.000E+00
      21    -1     0     0   501   502  0.000000000E+00  0.000000000E+00 -4.767245012E+02  4.767245012E+02  0.000000000E+00  0.00000E+00  9.000E+00
      25     1     1     2     0     0 -5.286925174E+02  6.414409932E+02  6.507553885E+02  1.063047460E+03  1.250000000E+02  0.00000E+00  9.000E+00
      25     1     1     2     0     0  4.415817330E+02 -4.933775054E+02  1.599548332E+02  6.925506035E+02  1.250000000E+02  0.00000E+00  9.000E+00
       1     1     1     2   501     0  8.711078445E+01 -1.480634878E+02  1.719263998E+03  1.727825159E+03  3.051757812E-05  0.00000E+00  9.000E+00
#rwgt            1           1   3.4548005537800047E-002           2       94797           0
</event>
<event>
      5   9999  3.19816E-02  1.35708E+01 -1.00000E+00  1.81581E-01
      21    -1     0     0   511   501  0.000000000E+00  0.000000000E+00  1.760109972E+02  1.760109972E+02  0.000000000E+00  0.00000E+00  9.000E+00
      21    -1     0     0   501   502  0.000000000E+00  0.000000000E+00 -3.690494113E+02  3.690494113E+02  0.000000000E+00  0.00000E+00  9.000E+00
      25     1     1     2     0     0  1.741221712E+02 -1.094854377E+02 -1.940817962E+01  2.414689815E+02  1.250000000E+02  0.00000E+00  9.000E+00
      25     1     1     2     0     0 -1.605980236E+02  1.106092816E+02 -1.744856079E+02  2.899937339E+02  1.250000000E+02  0.00000E+00  9.000E+00
      21     1     1     2   511   502 -1.352414765E+01 -1.123843904E+00  8.553734314E-01  1.359769313E+01  2.428020647E-07  0.00000E+00  9.000E+00
#rwgt            1           1   3.0860102140532912E-002           2       94874           0
</event>
<event>
      5   9999  3.19816E-02  6.77007E+02 -1.00000E+00  9.52512E-02
      21    -1     0     0   502   501  0.000000000E+00  0.000000000E+00  7.673293992E+02  7.673293992E+02  0.000000000E+00  0.00000E+00  9.000E+00
      21    -1     0     0   501   512  0.000000000E+00  0.000000000E+00 -1.291135393E+03  1.291135393E+03  0.000000000E+00  0.00000E+00  9.000E+00
      25     1     1     2     0     0  3.056826961E+02 -9.664576836E+01 -5.202759362E+01  3.480146343E+02  1.250000000E+02  0.00000E+00  9.000E+00
      25     1     1     2     0     0 -4.197858407E+02  7.639684852E+02  8.030781996E+00  8.806574203E+02  1.250000000E+02  0.00000E+00  9.000E+00
      21     1     1     2   502   512  1.141031446E+02 -6.673227168E+02 -4.798091819E+02  8.297927374E+02  5.394796609E-06  0.00000E+00  9.000E+00
#rwgt            2          11   1.4070029707487078E-003           2       95107           0
</event>
<event>
      5   9999  3.19816E-02  3.26108E+01 -1.00000E+00  1.50565E-01
      21    -1     0     0   502   511  0.000000000E+00  0.000000000E+00  1.736063564E+03  1.736063564E+03  0.000000000E+00  0.00000E+00  9.000E+00
      21    -1     0     0   501   502  0.000000000E+00  0.000000000E+00 -1.093340292E+02  1.093340292E+02  0.000000000E+00  0.00000E+00  9.000E+00
      25     1     1     2     0     0 -4.129577795E+01  3.486295889E+02  3.766272935E+02  5.298311521E+02  1.250000000E+02  0.00000E+00  9.000E+00
      25     1     1     2     0     0  8.691993204E+00 -3.479509774E+02  1.059393175E+03  1.122089271E+03  1.250000000E+02  0.00000E+00  9.000E+00
      21     1     1     2   501   511  3.260378474E+01 -6.786114405E-01  1.907090660E+02  1.934771696E+02  2.697398305E-06  0.00000E+00  9.000E+00
#rwgt            1           1   2.9878078283154651E-002           2       95127           0
</event>
<event>
      5   9999  3.19816E-02  9.02718E+00 -1.00000E+00  2.01040E-01
      21    -1     0     0   502   501  0.000000000E+00  0.000000000E+00  4.451059192E+02  4.451059192E+02  0.000000000E+00  0.00000E+00  9.000E+00
      21    -1     0     0   501   512  0.000000000E+00  0.000000000E+00 -1.285251575E+02  1.285251575E+02  0.000000000E+00  0.00000E+00  9.000E+00
      25     1     1     2     0     0  9.032917590E+01  1.629454604E+02  2.086087892E+02  3.063547127E+02  1.250000000E+02  0.00000E+00  9.000E+00
      25     1     1     2     0     0 -9.122733878E+01 -1.719278527E+02  1.124499480E+02  2.571995425E+02  1.250000000E+02  0.00000E+00  9.000E+00
      21     1     1     2   502   512  8.981628865E-01  8.982392324E+00 -4.477975451E+00  1.007682155E+01  1.685873940E-07  0.00000E+00  9.000E+00
#rwgt            1           1   2.6179096546571703E-002           2       95228           0
</event>
<event>
      5   9999  3.19816E-02  2.19602E+02 -1.00000E+00  1.10190E-01
      21    -1     0     0   502   511  0.000000000E+00  0.000000000E+00  2.370377672E+02  2.370377672E+02  0.000000000E+00  0.00000E+00  9.000E+00
      21    -1     0     0   501   502  0.000000000E+00  0.000000000E+00 -9.566776714E+02  9.566776714E+02  0.000000000E+00  0.00000E+00  9.000E+00
      25     1     1     2     0     0 -1.695200706E+02 -2.593733459E+02 -4.134316998E+02  5.315659482E+02  1.250000000E+02  0.00000E+00  9.000E+00
      25     1     1     2     0     0 -3.335238263E+01  3.434429418E+02 -2.045959479E+02  4.201784592E+02  1.250000000E+02  0.00000E+00  9.000E+00
      21     1     1     2   501   511  2.028724532E+02 -8.406959584E+01 -1.016122566E+02  2.419710312E+02  1.348699152E-06  0.00000E+00  9.000E+00
#rwgt            1           1   2.7959058668485103E-002           2       95352           0
</event>
<event>
      5   9999  3.19816E-02  3.66213E+01 -1.00000E+00  1.47258E-01
      21    -1     0     0   502   512  0.000000000E+00  0.000000000E+00  1.673848202E+02  1.673848202E+02  0.000000000E+00  0.00000E+00  9.000E+00
      21    -1     0     0   501   502  0.000000000E+00  0.000000000E+00 -3.695394795E+02  3.695394795E+02  0.000000000E+00  0.00000E+00  9.000E+00
      25     1     1     2     0     0 -1.457297938E+01  1.517838823E+01 -1.711399089E+02  2.129709455E+02  1.250000000E+02  0.00000E+00  9.000E+00
      25     1     1     2     0     0  4.688043216E+01  2.065307099E+00 -1.492030909E+02  2.002213844E+02  1.250000000E+02  0.00000E+00  9.000E+00
      21     1     1     2   501   512 -3.230745278E+01 -1.724369533E+01  1.181883405E+02  1.237319699E+02  2.697398305E-06  0.00000E+00  9.000E+00
#rwgt            1           1   9.1653753019264590E-004           2       95398           0
</event>
<event>
      5   9999  3.19816E-02  2.09623E+02 -1.00000E+00  1.10910E-01
      21    -1     0     0   511   501  0.000000000E+00  0.000000000E+00  8.305105311E+02  8.305105311E+02  0.000000000E+00  0.00000E+00  9.000E+00
      21    -1     0     0   501   502  0.000000000E+00  0.000000000E+00 -2.950059142E+02  2.950059142E+02  0.000000000E+00  0.00000E+00  9.000E+00
      25     1     1     2     0     0 -3.250951624E+02 -1.902133074E+02 -5.643856302E+00  3.968939657E+02  1.250000000E+02  0.00000E+00  9.000E+00
      25     1     1     2     0     0  2.256133882E+02  5.700419283E+00  3.997375266E+02  4.757614800E+02  1.250000000E+02  0.00000E+00  9.000E+00
      21     1     1     2   511   502  9.948177426E+01  1.845128881E+02  1.414109466E+02  2.528609995E+02  2.697398305E-06  0.00000E+00  9.000E+00
#rwgt            1           1   2.8336308879537368E-002           2       95490           0
</event>
<event>
      5   9999  3.19816E-02  2.32808E+01 -1.00000E+00  1.61104E-01
      21    -1     0     0   502   501  0.000000000E+00  0.000000000E+00  7.522119525E+02  7.522119525E+02  0.000000000E+00  0.00000E+00  9.000E+00
       2    -1     0     0   501     0  0.000000000E+00  0.000000000E+00 -2.764582769E+03  2.764582769E+03  0.000000000E+00  0.00000E+00  9.000E+00
      25     1     1     2     0     0 -1.156870182E+03 -6.082201520E+01 -9.513731137E+02  1.504255210E+03  1.250000000E+02  0.00000E+00  9.000E+00
      25     1     1     2     0     0  1.140971641E+03  4.381519508E+01 -2.178994042E+02  1.169119843E+03  1.250000000E+02  0.00000E+00  9.000E+00
       2     1     1     2   502     0  1.589854042E+01  1.700682011E+01 -8.430982987E+02  8.434196683E+02  1.078959322E-05  0.00000E+00  9.000E+00
#rwgt            1           1   6.7700948245939266E-002           2       95534           0
</event>
<event>
      5   9999  3.19816E-02  2.51090E+02 -1.00000E+00  1.08166E-01
      21    -1     0     0   511   501  0.000000000E+00  0.000000000E+00  4.700593746E+02  4.700593746E+02  0.000000000E+00  0.00000E+00  9.000E+00
      21    -1     0     0   501   502  0.000000000E+00  0.000000000E+00 -6.790829656E+02  6.790829656E+02  0.000000000E+00  0.00000E+00  9.000E+00
      25     1     1     2     0     0  1.463818689E+02  1.182226657E+02 -5.593642804E+02  6.032558731E+02  1.250000000E+02  0.00000E+00  9.000E+00
      25     1     1     2     0     0  4.918353008E+01  3.925838240E+01  3.777027889E+01  1.449545935E+02  1.250000000E+02  0.00000E+00  9.000E+00
      21     1     1     2   511   502 -1.955653990E+02 -1.574810481E+02  3.125704105E+02  4.009318736E+02  3.814697266E-06  0.00000E+00  9.000E+00
#rwgt            1           1   2.9764363186595526E-002           2       95825           0
</event>
<event>
      5   9999  3.19816E-02  9.58753E+00 -1.00000E+00  1.97896E-01
      21    -1     0     0   512   501  0.000000000E+00  0.000000000E+00  1.365455102E+02  1.365455102E+02  0.000000000E+00  0.00000E+00  9.000E+00
      21    -1     0     0   501   502  0.000000000E+00  0.000000000E+00 -2.510034555E+02  2.510034555E+02  0.000000000E+00  0.00000E+00  9.000E+00
      25     1     1     2     0     0  1.207928907E+02  2.901995448E+01 -1.098186598E+02  2.076492674E+02  1.250000000E+02  0.00000E+00  9.000E+00
      25     1     1     2     0     0 -1.125790402E+02 -2.407490937E+01 -1.974172237E+00  1.699486361E+02  1.250000000E+02  0.00000E+00  9.000E+00
      21     1     1     2   512   502 -8.213850545E+00 -4.945045116E+00 -2.665113253E+00  9.951062286E+00  1.685873940E-07  0.00000E+00  9.000E+00
#rwgt            1           1   2.4017877385556160E-002           2       95867           0
</event>
<event>
      5   9999  3.19816E-02  3.18273E+01 -1.00000E+00  1.51277E-01
      21    -1     0     0   502   501  0.000000000E+00  0.000000000E+00  4.530099552E+02  4.530099552E+02  0.000000000E+00  0.00000E+00  9.000E+00
      21    -1     0     0   501   511  0.000000000E+00  0.000000000E+00 -5.709217095E+02  5.709217095E+02  0.000000000E+00  0.00000E+00  9.000E+00
      25     1     1     2     0     0  8.285678464E+01  3.081751310E+02  1.639730906E+02  3.799333265E+02  1.250000000E+02  0.00000E+00  9.000E+00
      25     1     1     2     0     0 -1.039532557E+02 -2.843441679E+02  3.145376712E+01  3.290474505E+02  1.250000000E+02  0.00000E+00  9.000E+00
      21     1     1     2   502   511  2.109647109E+01 -2.383096312E+01 -3.133386120E+02  3.149508877E+02  5.394796609E-06  0.00000E+00  9.000E+00
#rwgt            1           1   2.8651254142861335E-002           2       96003           0
</event>
<event>
      5   9999  3.19816E-02  3.73809E+01 -1.00000E+00  1.46688E-01
      21    -1     0     0   502   512  0.000000000E+00  0.000000000E+00  1.010932028E+03  1.010932028E+03  0.000000000E+00  0.00000E+00  9.000E+00
      21    -1     0     0   501   502  0.000000000E+00  0.000000000E+00 -3.193104255E+02  3.193104255E+02  0.000000000E+00  0.00000E+00  9.000E+00
      25     1     1     2     0     0 -1.486561390E+02  1.928698322E+02 -1.806904201E+02  3.279808649E+02  1.250000000E+02  0.00000E+00  9.000E+00
      25     1     1     2     0     0  1.229839960E+02 -2.200410715E+02  2.428123893E+02  3.716530543E+02  1.250000000E+02  0.00000E+00  9.000E+00
      21     1     1     2   501   512  2.567214303E+01  2.717123930E+01  6.294996332E+02  6.306085342E+02  1.078959322E-05  0.00000E+00  9.000E+00
#rwgt            1           1   2.9114749763578307E-002           2       96199           0
</event>
<event>
      5   9999  3.19816E-02  1.87121E+01 -1.00000E+00  1.68790E-01
      21    -1     0     0   502   501  0.000000000E+00  0.000000000E+00  3.750378169E+01  3.750378169E+01  0.000000000E+00  0.00000E+00  9.000E+00
       1    -1     0     0   501     0  0.000000000E+00  0.000000000E+00 -1.948249372E+03  1.948249372E+03  0.000000000E+00  0.00000E+00  9.000E+00
      25     1     1     2     0     0 -6.272395736E+00  7.712883786E+01 -1.628003761E+03  1.634628229E+03  1.250000000E+02  0.00000E+00  9.000E+00
      25     1     1     2     0     0 -1.118514981E+01 -8.386515028E+01 -1.359338479E+02  2.031292249E+02  1.250000000E+02  0.00000E+00  9.000E+00
       1     1     1     2   502     0  1.745754555E+01  6.736312417E+00 -1.468079809E+02  1.479956995E+02  0.000000000E+00  0.00000E+00  9.000E+00
#rwgt            1           1   2.1449926937224608E-002           2       96337           0
</event>
<event>
      5   9999  3.19816E-02  5.20236E+01 -1.00000E+00  1.38099E-01
      21    -1     0     0   502   511  0.000000000E+00  0.000000000E+00  1.230415452E+02  1.230415452E+02  0.000000000E+00  0.00000E+00  9.000E+00
      21    -1     0     0   501   502  0.000000000E+00  0.000000000E+00 -2.516961391E+02  2.516961391E+02  0.000000000E+00  0.00000E+00  9.000E+00
      25     1     1     2     0     0 -4.634206632E+00  3.211865273E+01 -1.422122593E+02  1.921000011E+02  1.250000000E+02  0.00000E+00  9.000E+00
      25     1     1     2     0     0  7.276888962E+00  1.983779661E+01 -6.356960088E+00  1.269326681E+02  1.250000000E+02  0.00000E+00  9.000E+00
      21     1     1     2   501   511 -2.642682330E+00 -5.195644934E+01  1.991462543E+01  5.570501507E+01  9.233911863E-07  0.00000E+00  9.000E+00
#rwgt            1           1   1.7992916936851216E-002           2       96456           0
</event>
<event>
      5   9999  3.19816E-02  4.29017E+01 -1.00000E+00  1.42979E-01
      21    -1     0     0   502   501  0.000000000E+00  0.000000000E+00  9.254702491E+01  9.254702491E+01  0.000000000E+00  0.00000E+00  9.000E+00
      21    -1     0     0   512   502  0.000000000E+00  0.000000000E+00 -8.278096722E+02  8.278096722E+02  0.000000000E+00  0.00000E+00  9.000E+00
      25     1     1     2     0     0  1.258494617E+02  2.768040678E+01 -2.605126121E+02  3.163796975E+02  1.250000000E+02  0.00000E+00  9.000E+00
      25     1     1     2     0     0 -8.439161806E+01 -3.871666408E+01 -3.176331570E+01  1.589176941E+02  1.250000000E+02  0.00000E+00  9.000E+00
      21     1     1     2   512   501 -4.145784365E+01  1.103625729E+01 -4.429867195E+02  4.450593055E+02  5.394796609E-06  0.00000E+00  9.000E+00
#rwgt            1           1   2.7371449713180021E-002           2       96540           0
</event>
<event>
      5   9999  3.19816E-02  1.83877E+02 -1.00000E+00  1.12993E-01
      21    -1     0     0   502   501  0.000000000E+00  0.000000000E+00  8.396726583E+02  8.396726583E+02  0.000000000E+00  0.00000E+00  9.000E+00
       3    -1     0     0   501     0  0.000000000E+00  0.000000000E+00 -7.975240931E+02  7.975240931E+02  0.000000000E+00  0.00000E+00  9.000E+00
      25     1     1     2     0     0  1.751231158E+02  6.156162914E+02  4.090389338E+02  7.697982679E+02  1.250000000E+02  0.00000E+00  9.000E+00
      25     1     1     2     0     0 -2.432331066E+02 -4.448192078E+02 -8.234797044E+01  5.286139045E+02  1.250000000E+02  0.00000E+00  9.000E+00
       3     1     1     2   502     0  6.810999072E+01 -1.707970836E+02 -2.845423982E+02  3.387845790E+02  3.814697266E-06  0.00000E+00  9.000E+00
#rwgt            2          14   5.1904029184605521E-005           2       96663           0
</event>
<event>
      5   9999  3.19816E-02  9.79084E+01 -1.00000E+00  1.24242E-01
      21    -1     0     0   502   511  0.000000000E+00  0.000000000E+00  2.982198901E+02  2.982198901E+02  0.000000000E+00  0.00000E+00  9.000E+00
      21    -1     0     0   501   502  0.000000000E+00  0.000000000E+00 -1.241106841E+03  1.241106841E+03  0.000000000E+00  0.00000E+00  9.000E+00
      25     1     1     2     0     0  4.000168129E+01  7.192943223E+01 -2.292834644E+02  2.738062906E+02  1.250000000E+02  0.00000E+00  9.000E+00
      25     1     1     2     0     0  5.790638737E+01 -7.217669461E+01 -9.745131228E+02  9.868452013E+02  1.250000000E+02  0.00000E+00  9.000E+00
      21     1     1     2   501   511 -9.790806866E+01  2.472623805E-01  2.609096359E+02  2.786752396E+02  8.529922400E-06  0.00000E+00  9.000E+00
#rwgt            2          11   2.7457859660030171E-002           2       96757           0
</event>
<event>
      5   9999  3.19816E-02  5.55632E+01 -1.00000E+00  1.36511E-01
      21    -1     0     0   502   501  0.000000000E+00  0.000000000E+00  1.203670616E+03  1.203670616E+03  0.000000000E+00  0.00000E+00  9.000E+00
      21    -1     0     0   512   502  0.000000000E+00  0.000000000E+00 -2.537740146E+02  2.537740146E+02  0.000000000E+00  0.00000E+00  9.000E+00
      25     1     1     2     0     0 -4.775318304E+02  1.259416686E+02  5.503649253E+02  7.499496677E+02  1.250000000E+02  0.00000E+00  9.000E+00
      25     1     1     2     0     0  4.588120341E+02 -7.362690234E+01  4.289418932E+02  6.446282271E+02  1.250000000E+02  0.00000E+00  9.000E+00
      21     1     1     2   512   501  1.871979634E+01 -5.231476626E+01 -2.941021742E+01  6.286673551E+01  4.768371582E-07  0.00000E+00  9.000E+00
#rwgt            1           1   2.8197549555638694E-002           2       96792           0
</event>
<event>
      5   9999  3.19816E-02  3.33849E+01 -1.00000E+00  1.49884E-01
       2    -1     0     0   502     0  0.000000000E+00  0.000000000E+00  4.751623052E+03  4.751623052E+03  0.000000000E+00  0.00000E+00  9.000E+00
      21    -1     0     0   501   502  0.000000000E+00  0.000000000E+00 -5.515178144E+02  5.515178144E+02  0.000000000E+00  0.00000E+00  9.000E+00
      25     1     1     2     0     0  2.145669031E+02 -4.223952098E+02 -2.625666988E+02  5.558983185E+02  1.250000000E+02  0.00000E+00  9.000E+00
      25     1     1     2     0     0 -1.901287119E+02  4.451399585E+02  2.971120103E+02  5.815488427E+02  1.250000000E+02  0.00000E+00  9.000E+00
       2     1     1     2   501     0 -2.443819118E+01 -2.274474864E+01  4.165559926E+03  4.165693705E+03  6.103515625E-05  0.00000E+00  9.000E+00
#rwgt            1           1   2.9040967271617243E-002           2       96886           0
</event>
<event>
      5   9999  3.19816E-02  3.34626E+02 -1.00000E+00  1.04073E-01
       2    -1     0     0   502     0  0.000000000E+00  0.000000000E+00  2.035575435E+03  2.035575435E+03  0.000000000E+00  0.00000E+00  9.000E+00
      21    -1     0     0   501   502  0.000000000E+00  0.000000000E+00 -2.085971306E+02  2.085971306E+02  0.000000000E+00  0.00000E+00  9.000E+00
      25     1     1     2     0     0  1.832916248E+02  1.282647519E+02  4.952312410E+02  5.576079701E+02  1.250000000E+02  0.00000E+00  9.000E+00
      25     1     1     2     0     0 -2.693992975E+02  1.950929407E+02  4.637285387E+01  3.583471482E+02  1.250000000E+02  0.00000E+00  9.000E+00
       2     1     1     2   501     0  8.610767276E+01 -3.233576926E+02  1.285374210E+03  1.328217447E+03  2.642899792E-05  0.00000E+00  9.000E+00
#rwgt            2          18   1.7373809413437449E-003           2       97186           0
</event>
<event>
      5   9999  3.19816E-02  6.50068E+01 -1.00000E+00  1.32869E-01
      21    -1     0     0   502   501  0.000000000E+00  0.000000000E+00  2.574675348E+02  2.574675348E+02  0.000000000E+00  0.00000E+00  9.000E+00
       2    -1     0     0   501     0  0.000000000E+00  0.000000000E+00 -3.878654427E+02  3.878654427E+02  0.000000000E+00  0.00000E+00  9.000E+00
      25     1     1     2     0     0 -9.824819908E+00  9.790479792E+01 -1.996754129E+02  2.552981532E+02  1.250000000E+02  0.00000E+00  9.000E+00
      25     1     1     2     0     0  5.270069155E+01 -4.904231093E+01  1.985032799E+02  2.453794271E+02  1.250000000E+02  0.00000E+00  9.000E+00
       2     1     1     2   502     0 -4.287587164E+01 -4.886248699E+01 -1.292257749E+02  1.446553971E+02  3.303624740E-06  0.00000E+00  9.000E+00
#rwgt            1           1   2.5671469701284155E-002           2       97205           0
</event>
<event>
      5   9999  3.19816E-02  1.95377E+01 -1.00000E+00  1.67212E-01
      21    -1     0     0   502   501  0.000000000E+00  0.000000000E+00  1.405858333E+03  1.405858333E+03  0.000000000E+00  0.00000E+00  9.000E+00
      21    -1     0     0   511   502  0.000000000E+00  0.000000000E+00 -3.204606415E+02  3.204606415E+02  0.000000000E+00  0.00000E+00  9.000E+00
      25     1     1     2     0     0 -2.470821836E+01  6.485191578E+02  5.949451988E+02  8.892538353E+02  1.250000000E+02  0.00000E+00  9.000E+00
      25     1     1     2     0     0  4.309511740E+01 -6.419128919E+02  4.885311873E+02  8.174332211E+02  1.250000000E+02  0.00000E+00  9.000E+00
      21     1     1     2   511   501 -1.838689905E+01 -6.606265885E+00  1.921305734E+00  1.963191843E+01  3.845539063E-07  0.00000E+00  9.000E+00
#rwgt            1           1   2.9101086128198974E-002           2       97293           0
</event>
<event>
      5   9999  3.19816E-02  1.43543E+02 -1.00000E+00  1.17156E-01
      21    -1     0     0   512   501  0.000000000E+00  0.000000000E+00  4.088866637E+02  4.088866637E+02  0.000000000E+00  0.00000E+00  9.000E+00
      21    -1     0     0   501   502  0.000000000E+00  0.000000000E+00 -1.547482940E+03  1.547482940E+03  0.000000000E+00  0.00000E+00  9.000E+00
      25     1     1     2     0     0 -2.367010005E+02  3.290540276E+02 -4.898649657E+02  6.479942911E+02  1.250000000E+02  0.00000E+00  9.000E+00
      25     1     1     2     0     0  1.306222369E+02 -4.257586738E+02 -9.040276839E+02  1.015491837E+03  1.250000000E+02  0.00000E+00  9.000E+00
      21     1     1     2   512   502  1.060787636E+02  9.670464619E+01  2.552963729E+02  2.928834763E+02  8.946258087E-06  0.00000E+00  9.000E+00
#rwgt            1           1   3.0228876252742728E-002           2       97523           0
</event>
<event>
      5   9999  3.19816E-02  3.55484E+01 -1.00000E+00  1.48091E-01
      21    -1     0     0   502   501  0.000000000E+00  0.000000000E+00  9.630919853E+02  9.630919853E+02  0.000000000E+00  0.00000E+00  9.000E+00
      21    -1     0     0   501   511  0.000000000E+00  0.000000000E+00 -1.402468283E+03  1.402468283E+03  0.000000000E+00  0.00000E+00  9.000E+00
      25     1     1     2     0     0  3.798178558E+02  1.072581528E+02  1.517800951E+01  4.142719963E+02  1.250000000E+02  0.00000E+00  9.000E+00
      25     1     1     2     0     0 -3.644192762E+02 -7.521801361E+01  6.966002680E+02  7.995849497E+02  1.250000000E+02  0.00000E+00  9.000E+00
      21     1     1     2   502   511 -1.539857958E+01 -3.204013917E+01 -1.151154575E+03  1.151703322E+03  0.000000000E+00  0.00000E+00  9.000E+00
#rwgt            1           1   2.6917284638858303E-002           2       97602           0
</event>
<event>
      5   9999  3.19816E-02  3.46464E+01 -1.00000E+00  1.48820E-01
      21    -1     0     0   502   501  0.000000000E+00  0.000000000E+00  4.037212292E+02  4.037212292E+02  0.000000000E+00  0.00000E+00  9.000E+00
      21    -1     0     0   501   512  0.000000000E+00  0.000000000E+00 -3.446787439E+02  3.446787439E+02  0.000000000E+00  0.00000E+00  9.000E+00
      25     1     1     2     0     0 -1.059341511E+01 -1.267437647E+01 -1.097675759E+02  1.671729075E+02  1.250000000E+02  0.00000E+00  9.000E+00
      25     1     1     2     0     0 -6.877211372E+00  4.259339015E+01  3.617704555E+02  3.851809386E+02  1.250000000E+02  0.00000E+00  9.000E+00
      21     1     1     2   502   512  1.747062648E+01 -2.991901368E+01 -1.929603943E+02  1.960461271E+02  0.000000000E+00  0.00000E+00  9.000E+00
#rwgt            1           1   2.6591154165604283E-002           2       97779           0
</event>
<event>
      5   9999  3.19816E-02  1.89115E+02 -1.00000E+00  1.12540E-01
      -2    -1     0     0     0   501  0.000000000E+00  0.000000000E+00  7.427671312E+02  7.427671312E+02  0.000000000E+00  0.00000E+00  9.000E+00
      21    -1     0     0   501   502  0.000000000E+00  0.000000000E+00 -2.022566949E+02  2.022566949E+02  0.000000000E+00  0.00000E+00  9.000E+00
      25     1     1     2     0     0  1.748842124E+01 -8.501693985E+01  1.037007453E+02  1.841536573E+02  1.250000000E+02  0.00000E+00  9.000E+00
      25     1     1     2     0     0 -2.065732252E+02  8.162646075E+01 -3.055028286E+01  2.566976748E+02  1.250000000E+02  0.00000E+00  9.000E+00
      -2     1     1     2     0   502  1.890848040E+02  3.390479106E+00  4.673599739E+02  5.041724939E+02  7.629394531E-06  0.00000E+00  9.000E+00
#rwgt            2           4   1.2931575068446106E-004           2       97907           0
</event>
<event>
      5   9999  3.19816E-02  1.64797E+01 -1.00000E+00  1.73619E-01
      21    -1     0     0   502   501  0.000000000E+00  0.000000000E+00  9.006109235E+01  9.006109235E+01  0.000000000E+00  0.00000E+00  9.000E+00
      21    -1     0     0   501   511  0.000000000E+00  0.000000000E+00 -4.095512850E+02  4.095512850E+02  0.000000000E+00  0.00000E+00  9.000E+00
      25     1     1     2     0     0 -5.596844558E+01  8.200159920E+01 -8.696416513E+01  1.817814490E+02  1.250000000E+02  0.00000E+00  9.000E+00
      25     1     1     2     0     0  7.078036366E+01 -8.922577005E+01 -1.281858338E+02  2.121973278E+02  1.250000000E+02  0.00000E+00  9.000E+00
      21     1     1     2   502   511 -1.481191808E+01  7.224170853E+00 -1.043401937E+02  1.056336006E+02  1.907348633E-06  0.00000E+00  9.000E+00
#rwgt            1           1   2.3499304320777899E-002           2       97926           0
</event>
<event>
      5   9999  3.19816E-02  1.37518E+01 -1.00000E+00  1.81014E-01
      21    -1     0     0   502   501  0.000000000E+00  0.000000000E+00  1.010531275E+03  1.010531275E+03  0.000000000E+00  0.00000E+00  9.000E+00
      21    -1     0     0   501   512  0.000000000E+00  0.000000000E+00 -3.713322409E+02  3.713322409E+02  0.000000000E+00  0.00000E+00  9.000E+00
      25     1     1     2     0     0 -5.079972304E+02 -3.725435317E+01  6.670898720E+02  8.485770267E+02  1.250000000E+02  0.00000E+00  9.000E+00
      25     1     1     2     0     0  5.010809845E+02  4.914035972E+01 -2.619533724E+01  5.194305764E+02  1.250000000E+02  0.00000E+00  9.000E+00
      21     1     1     2   502   512  6.916245894E+00 -1.188600655E+01 -1.695500332E+00  1.385591319E+01  3.075565016E-07  0.00000E+00  9.000E+00
#rwgt            1           1   3.0553346760502125E-002           2       98045           0
</event>
<event>
      5   9999  3.46327E-02  1.07662E+02 -1.00000E+00  1.22403E-01
      21    -1     0     0   511   501  0.000000000E+00  0.000000000E+00  7.425786127E+02  7.425786127E+02  0.000000000E+00  0.00000E+00  9.000E+00
      21    -1     0     0   501   502  0.000000000E+00  0.000000000E+00 -1.328450219E+02  1.328450219E+02  0.000000000E+00  0.00000E+00  9.000E+00
      25     1     1     2     0     0 -2.187606947E+02 -6.689501378E+01  2.347210076E+02  3.507850280E+02  1.250000000E+02  0.00000E+00  9.000E+00
      25     1     1     2     0     0  1.390142194E+02  1.392244211E+02  1.556670575E+02  2.802956036E+02  1.250000000E+02  0.00000E+00  9.000E+00
      21     1     1     2   511   502  7.974647531E+01 -7.232940728E+01  2.193455257E+02  2.443430030E+02  0.000000000E+00  0.00000E+00  9.000E+00
#rwgt            1           1   3.1810188165745157E-002           2       98279           0
</event>
<event>
      5   9999  3.19816E-02  1.91849E+02 -1.00000E+00  1.12310E-01
      21    -1     0     0   512   501  0.000000000E+00  0.000000000E+00  3.985255854E+02  3.985255854E+02  0.000000000E+00  0.00000E+00  9.000E+00
      21    -1     0     0   501   502  0.000000000E+00  0.000000000E+00 -8.220939362E+02  8.220939362E+02  0.000000000E+00  0.00000E+00  9.000E+00
      25     1     1     2     0     0 -8.585517599E+00 -2.210129117E+02 -1.685831572E+01  2.546166159E+02  1.250000000E+02  0.00000E+00  9.000E+00
      25     1     1     2     0     0 -8.472104463E+00  2.992354144E+01 -6.463318026E+02  6.590424826E+02  1.250000000E+02  0.00000E+00  9.000E+00
      21     1     1     2   512   502  1.705762206E+01  1.910893703E+02  2.396217675E+02  3.069604231E+02  2.697398305E-06  0.00000E+00  9.000E+00
#rwgt            1           1   2.8726537672218878E-002           2       98329           0
</event>
<event>
      5   9999  3.19816E-02  1.00971E+01 -1.00000E+00  1.95273E-01
      21    -1     0     0   502   501  0.000000000E+00  0.000000000E+00  4.312537312E+02  4.312537312E+02  0.000000000E+00  0.00000E+00  9.000E+00
      21    -1     0     0   511   502  0.000000000E+00  0.000000000E+00 -5.430210159E+02  5.430210159E+02  0.000000000E+00  0.00000E+00  9.000E+00
      25     1     1     2     0     0 -3.197593036E+02 -1.368344350E+02 -3.404321083E+02  5.024825322E+02  1.250000000E+02  0.00000E+00  9.000E+00
      25     1     1     2     0     0  3.164057267E+02  1.463583365E+02  2.509246211E+02  4.473494294E+02  1.250000000E+02  0.00000E+00  9.000E+00
      21     1     1     2   511   501  3.353576917E+00 -9.523901507E+00 -2.225979753E+01  2.444278552E+01  2.384185791E-07  0.00000E+00  9.000E+00
#rwgt            1           1   2.9323429857813825E-002           2       98400           0
</event>
<event>
      5   9999  3.19816E-02  3.31736E+01 -1.00000E+00  1.50067E-01
      21    -1     0     0   502   501  0.000000000E+00  0.000000000E+00  1.419771489E+02  1.419771489E+02  0.000000000E+00  0.00000E+00  9.000E+00
      21    -1     0     0   501   512  0.000000000E+00  0.000000000E+00 -6.026184460E+02  6.026184460E+02  0.000000000E+00  0.00000E+00  9.000E+00
      25     1     1     2     0     0  7.923923777E+01  4.664762039E+01  7.418760127E+01  1.719990043E+02  1.250000000E+02  0.00000E+00  9.000E+00
      25     1     1     2     0     0 -1.104564928E+02 -3.542389637E+01 -4.274756824E+02  4.602346665E+02  1.250000000E+02  0.00000E+00  9.000E+00
      21     1     1     2   502   512  3.121725505E+01 -1.122372402E+01 -1.073532160E+02  1.123619240E+02  1.348699152E-06  0.00000E+00  9.000E+00
#rwgt            1           1   2.7805842388516810E-002           2       98758           0
</event>
<event>
      5   9999  3.19816E-02  1.59863E+02 -1.00000E+00  1.15308E-01
       2    -1     0     0   502     0  0.000000000E+00  0.000000000E+00  1.036723548E+03  1.036723548E+03  0.000000000E+00  0.00000E+00  9.000E+00
      21    -1     0     0   501   502  0.000000000E+00  0.000000000E+00 -2.657610367E+02  2.657610367E+02  0.000000000E+00  0.00000E+00  9.000E+00
      25     1     1     2     0     0 -2.870168019E+02 -3.330271676E+02  3.968793727E+02  6.053296419E+02  1.250000000E+02  0.00000E+00  9.000E+00
      25     1     1     2     0     0  1.282520173E+02  3.143243552E+02  9.257363453E+01  3.734210198E+02  1.250000000E+02  0.00000E+00  9.000E+00
       2     1     1     2   501     0  1.587647846E+02  1.870281241E+01  2.815095037E+02  3.237339226E+02  5.394796609E-06  0.00000E+00  9.000E+00
#rwgt            1           1   3.1542943506628666E-002           2       98926           0
</event>
<event>
      5   9999  3.19816E-02  9.86942E+01 -1.00000E+00  1.24085E-01
       2    -1     0     0   502     0  0.000000000E+00  0.000000000E+00  2.600661615E+03  2.600661615E+03  0.000000000E+00  0.00000E+00  9.000E+00
      21    -1     0     0   501   502  0.000000000E+00  0.000000000E+00 -3.184130287E+02  3.184130287E+02  0.000000000E+00  0.00000E+00  9.000E+00
      25     1     1     2     0     0  2.348172780E+02  5.169708409E+01 -2.452909218E+02  3.655193276E+02  1.250000000E+02  0.00000E+00  9.000E+00
      25     1     1     2     0     0 -1.592137713E+02 -1.151372420E+02  1.202257176E+03  1.224603172E+03  1.250000000E+02  0.00000E+00  9.000E+00
       2     1     1     2   501     0 -7.560350671E+01  6.344015795E+01  1.325282331E+03  1.328952144E+03  2.157918644E-05  0.00000E+00  9.000E+00
#rwgt            1           1   2.9744432980816179E-002           2       99005           0
</event>
<event>
      5   9999  3.19816E-02  5.07402E+01 -1.00000E+00  1.38712E-01
      21    -1     0     0   502   501  0.000000000E+00  0.000000000E+00  9.131806133E+02  9.131806133E+02  0.000000000E+00  0.00000E+00  9.000E+00
      21    -1     0     0   511   502  0.000000000E+00  0.000000000E+00 -9.560798385E+01  9.560798385E+01  0.000000000E+00  0.00000E+00  9.000E+00
      25     1     1     2     0     0 -1.282944849E+02  7.508929158E+01  6.406390453E+02  6.694335388E+02  1.250000000E+02  0.00000E+00  9.000E+00
      25     1     1     2     0     0  1.172745317E+02 -1.246183672E+02  1.924861908E+02  2.862848003E+02  1.250000000E+02  0.00000E+00  9.000E+00
      21     1     1     2   511   501  1.101995317E+01  4.952907563E+01 -1.555260674E+01  5.307025793E+01  1.105501472E-06  0.00000E+00  9.000E+00
#rwgt            2          11   1.8962196807559709E-003           2       99191           0
</event>
<event>
      5   9999  3.19816E-02  4.73634E+02 -1.00000E+00  9.95250E-02
      21    -1     0     0   502   512  0.000000000E+00  0.000000000E+00  7.986784843E+02  7.986784843E+02  0.000000000E+00  0.00000E+00  9.000E+00
      21    -1     0     0   501   502  0.000000000E+00  0.000000000E+00 -5.409343733E+02  5.409343733E+02  0.000000000E+00  0.00000E+00  9.000E+00
      25     1     1     2     0     0  7.320407149E+01 -7.827766520E+01 -1.939586518E+02  2.544232449E+02  1.250000000E+02  0.00000E+00  9.000E+00
      25     1     1     2     0     0 -2.786970062E+02 -3.484564130E+02  5.359690605E+01  4.664670635E+02  1.250000000E+02  0.00000E+00  9.000E+00
      21     1     1     2   501   512  2.054929347E+02  4.267340782E+02  3.981058567E+02  6.187225492E+02  1.427329020E-05  0.00000E+00  9.000E+00
#rwgt            2          11   3.0150442667387389E-003           2       99316           0
</event>
<event>
      5   9999  3.19816E-02  6.57905E+01 -1.00000E+00  1.32599E-01
       5    -1     0     0   502     0  0.000000000E+00  0.000000000E+00  2.923594599E+02  2.923594599E+02  0.000000000E+00  0.00000E+00  9.000E+00
      21    -1     0     0   501   502  0.000000000E+00  0.000000000E+00 -4.060033197E+02  4.060033197E+02  0.000000000E+00  0.00000E+00  9.000E+00
      25     1     1     2     0     0 -2.058361032E+02  4.891767831E-01 -1.982124163E+02  3.119004692E+02  1.250000000E+02  0.00000E+00  9.000E+00
      25     1     1     2     0     0  2.403573131E+02 -5.649517857E+01 -3.210702746E+00  2.767646144E+02  1.250000000E+02  0.00000E+00  9.000E+00
       5     1     1     2   501     0 -3.452120983E+01  5.600600179E+01  8.777925921E+01  1.096976960E+02  1.651812370E-06  0.00000E+00  9.000E+00
#rwgt            1           1   2.7469698147622207E-002           2       99336           0
</event>
<event>
      5   9999  3.19816E-02  6.64124E+01 -1.00000E+00  1.32388E-01
      21    -1     0     0   502   501  0.000000000E+00  0.000000000E+00  4.389306536E+02  4.389306536E+02  0.000000000E+00  0.00000E+00  9.000E+00
      21    -1     0     0   501   511  0.000000000E+00  0.000000000E+00 -2.494268570E+02  2.494268570E+02  0.000000000E+00  0.00000E+00  9.000E+00
      25     1     1     2     0     0 -1.813141357E+02  7.560353139E+01  2.004582880E+02  3.072445850E+02  1.250000000E+02  0.00000E+00  9.000E+00
      25     1     1     2     0     0  2.383217011E+02 -1.096732072E+02  4.525540914E+01  2.941062693E+02  1.250000000E+02  0.00000E+00  9.000E+00
      21     1     1     2   502   511 -5.700756536E+01  3.406967580E+01 -5.620990059E+01  8.700665630E+01  9.536743164E-07  0.00000E+00  9.000E+00
#rwgt            1           1   3.1178997595557281E-002           2       99415           0
</event>
<event>
      5   9999  3.19816E-02  8.50571E+01 -1.00000E+00  1.27074E-01
       2    -1     0     0   502     0  0.000000000E+00  0.000000000E+00  1.115318744E+03  1.115318744E+03  0.000000000E+00  0.00000E+00  9.000E+00
      21    -1     0     0   501   502  0.000000000E+00  0.000000000E+00 -6.331423010E+02  6.331423010E+02  0.000000000E+00  0.00000E+00  9.000E+00
      25     1     1     2     0     0 -1.378401646E+02  1.155935561E+02  1.593487643E+02  2.708852338E+02  1.250000000E+02  0.00000E+00  9.000E+00
      25     1     1     2     0     0  9.287815719E+01 -1.877955721E+02 -5.494415576E+02  6.011693224E+02  1.250000000E+02  0.00000E+00  9.000E+00
       2     1     1     2   501     0  4.496200743E+01  7.220201596E+01  8.722692367E+02  8.764064893E+02  1.078959322E-05  0.00000E+00  9.000E+00
#rwgt            2          18   3.2894437220475697E-003           2       99537           0
</event>
<event>
      5   9999  3.19816E-02  3.39401E+01 -1.00000E+00  1.49408E-01
      21    -1     0     0   502   501  0.000000000E+00  0.000000000E+00  1.078326250E+03  1.078326250E+03  0.000000000E+00  0.00000E+00  9.000E+00
      21    -1     0     0   501   511  0.000000000E+00  0.000000000E+00 -1.899179310E+03  1.899179310E+03  0.000000000E+00  0.00000E+00  9.000E+00
      25     1     1     2     0     0 -5.499157081E+02 -9.632126989E+01  3.596111027E+02  6.757441958E+02  1.250000000E+02  0.00000E+00  9.000E+00
      25     1     1     2     0     0  5.731344874E+02  1.210764963E+02  4.004356234E+02  7.204972915E+02  1.250000000E+02  0.00000E+00  9.000E+00
      21     1     1     2   502   511 -2.321877932E+01 -2.475522642E+01 -1.580899786E+03  1.581264073E+03  3.051757812E-05  0.00000E+00  9.000E+00
#rwgt            1           1   2.3838664634456136E-002           2       99571           0
</event>
<event>
      5   9999  3.19816E-02  3.43381E+01 -1.00000E+00  1.49075E-01
      21    -1     0     0   502   501  0.000000000E+00  0.000000000E+00  2.316083727E+02  2.316083727E+02  0.000000000E+00  0.00000E+00  9.000E+00
      21    -1     0     0   501   512  0.000000000E+00  0.000000000E+00 -1.622195380E+02  1.622195380E+02  0.000000000E+00  0.00000E+00  9.000E+00
      25     1     1     2     0     0 -2.505565513E+01  1.060596906E+02 -1.534122984E+01  1.665436794E+02  1.250000000E+02  0.00000E+00  9.000E+00
      25     1     1     2     0     0  5.937427504E+01 -1.072151282E+02  8.052181282E+01  1.926892591E+02  1.250000000E+02  0.00000E+00  9.000E+00
      21     1     1     2   502   512 -3.431861990E+01  1.155437555E+00  4.208251708E+00  3.459497204E+01  1.788139343E-07  0.00000E+00  9.000E+00
#rwgt            1           1   2.7762225689622607E-002           2       99763           0
</event>
<event>
      5   9999  3.19816E-02  1.21804E+02 -1.00000E+00  1.20094E-01
      21    -1     0     0   511   501  0.000000000E+00  0.000000000E+00  1.833568254E+03  1.833568254E+03  0.000000000E+00  0.00000E+00  9.000E+00
      21    -1     0     0   501   502  0.000000000E+00  0.000000000E+00 -4.867110735E+02  4.867110735E+02  0.000000000E+00  0.00000E+00  9.000E+00
      25     1     1     2     0     0  2.080918171E+02 -7.002883385E+02  2.650720503E+02  7.871430322E+02  1.250000000E+02  0.00000E+00  9.000E+00
      25     1     1     2     0     0 -2.248599701E+02  5.796438220E+02  2.329448661E+02  6.756014189E+02  1.250000000E+02  0.00000E+00  9.000E+00
      21     1     1     2   511   502  1.676815297E+01  1.206445165E+02  8.488402643E+02  8.575348766E+02  0.000000000E+00  0.00000E+00  9.000E+00
#rwgt            1           1   3.2864216849400517E-002           2       99847           0
</event>
<event>
      5   9999  3.19816E-02  3.60244E+02 -1.00000E+00  1.03072E-01
      21    -1     0     0   512   501  0.000000000E+00  0.000000000E+00  4.901843998E+02  4.901843998E+02  0.000000000E+00  0.00000E+00  9.000E+00
      21    -1     0     0   501   502  0.000000000E+00  0.000000000E+00 -1.158858049E+03  1.158858049E+03  0.000000000E+00  0.00000E+00  9.000E+00
      25     1     1     2     0     0  2.749152392E+02 -3.544619459E+02 -2.335461413E+01  4.662532550E+02  1.250000000E+02  0.00000E+00  9.000E+00
      25     1     1     2     0     0 -5.043686174E+02  7.674470006E+01 -6.327045235E+02  8.223244282E+02  1.250000000E+02  0.00000E+00  9.000E+00
      21     1     1     2   512   502  2.294533782E+02  2.777172458E+02 -1.261451172E+01  3.604647657E+02  4.376783312E-06  0.00000E+00  9.000E+00
#rwgt            2          11   3.5443772913885986E-003           2       99985           0
</event>
<event>
      5   9999  3.19816E-02  1.81039E+01 -1.00000E+00  1.70019E-01
      21    -1     0     0   511   501  0.000000000E+00  0.000000000E+00  2.033864795E+02  2.033864795E+02  0.000000000E+00  0.00000E+00  9.000E+00
      21    -1     0     0   501   502  0.000000000E+00  0.000000000E+00 -4.174263372E+02  4.174263372E+02  0.000000000E+00  0.00000E+00  9.000E+00
      25     1     1     2     0     0 -1.022184114E+02  1.887250809E+02  3.909764506E+00  2.484070170E+02  1.250000000E+02  0.00000E+00  9.000E+00
      25     1     1     2     0     0  8.797772132E+01 -1.999032991E+02 -2.373142334E+02  3.458965941E+02  1.250000000E+02  0.00000E+00  9.000E+00
      21     1     1     2   511   502  1.424069012E+01  1.117821820E+01  1.936461120E+01  2.650920565E+01  4.768371582E-07  0.00000E+00  9.000E+00
#rwgt            1           1   2.9336307443204944E-002           2      100005           0
</event>
<event>
      5   9999  3.19816E-02  2.43958E+01 -1.00000E+00  1.59551E-01
      21    -1     0     0   502   512  0.000000000E+00  0.000000000E+00  4.417394926E+02  4.417394926E+02  0.000000000E+00  0.00000E+00  9.000E+00
      21    -1     0     0   501   502  0.000000000E+00  0.000000000E+00 -2.354783746E+02  2.354783746E+02  0.000000000E+00  0.00000E+00  9.000E+00
      25     1     1     2     0     0 -3.365263034E+01  1.322484146E+02 -1.367093203E+02  2.300795101E+02  1.250000000E+02  0.00000E+00  9.000E+00
      25     1     1     2     0     0  1.141026687E+01 -1.422701289E+02  1.236440279E+02  2.264593328E+02  1.250000000E+02  0.00000E+00  9.000E+00
      21     1     1     2   501   512  2.224236348E+01  1.002171424E+01  2.193264104E+02  2.206790244E+02  4.672030912E-06  0.00000E+00  9.000E+00
#rwgt            1           1   2.9177334217071877E-002           2      100105           0
</event>
<event>
      5   9999  3.19816E-02  4.14424E+01 -1.00000E+00  1.43892E-01
      21    -1     0     0   511   501  0.000000000E+00  0.000000000E+00  4.217624697E+02  4.217624697E+02  0.000000000E+00  0.00000E+00  9.000E+00
      21    -1     0     0   501   502  0.000000000E+00  0.000000000E+00 -2.143512960E+03  2.143512960E+03  0.000000000E+00  0.00000E+00  9.000E+00
      25     1     1     2     0     0 -7.898839031E+02  2.031760619E+02 -9.836778102E+02  1.283917492E+03  1.250000000E+02  0.00000E+00  9.000E+00
      25     1     1     2     0     0  7.537029092E+02 -2.233851940E+02 -8.484940773E+02  1.163415755E+03  1.250000000E+02  0.00000E+00  9.000E+00
      21     1     1     2   511   502  3.618099387E+01  2.020913204E+01  1.104213973E+02  1.179421821E+02  1.907348633E-06  0.00000E+00  9.000E+00
#rwgt            1           1   2.9046618777766854E-002           2      100164           0
</event>
<event>
      5   9999  3.19816E-02  5.09500E+01 -1.00000E+00  1.38611E-01
      21    -1     0     0   502   501  0.000000000E+00  0.000000000E+00  5.054860115E+02  5.054860115E+02  0.000000000E+00  0.00000E+00  9.000E+00
      21    -1     0     0   501   512  0.000000000E+00  0.000000000E+00 -4.134435119E+02  4.134435119E+02  0.000000000E+00  0.00000E+00  9.000E+00
      25     1     1     2     0     0  1.455823687E+02 -3.634086724E+02  2.285362217E+02  4.702274916E+02  1.250000000E+02  0.00000E+00  9.000E+00
      25     1     1     2     0     0 -1.541327643E+02  3.131812509E+02 -9.434377405E+01  3.825769892E+02  1.250000000E+02  0.00000E+00  9.000E+00
      21     1     1     2   502   512  8.550395688E+00  5.022742149E+01 -4.214994803E+01  6.612504257E+01  6.743495762E-07  0.00000E+00  9.000E+00
#rwgt            1           1   2.8114172226448297E-002           2      100355           0
</event>
<event>
      5   9999  3.19816E-02  1.43605E+02 -1.00000E+00  1.17148E-01
      21    -1     0     0   502   501  0.000000000E+00  0.000000000E+00  8.040228841E+02  8.040228841E+02  0.000000000E+00  0.00000E+00  9.000E+00
      21    -1     0     0   501   511  0.000000000E+00  0.000000000E+00 -5.610176996E+02  5.610176996E+02  0.000000000E+00  0.00000E+00  9.000E+00
      25     1     1     2     0     0  5.273187532E+02  3.569724535E+02  3.200247428E+01  6.497257563E+02  1.250000000E+02  0.00000E+00  9.000E+00
      25     1     1     2     0     0 -4.059664745E+02 -2.801871591E+02  2.493626947E+02  5.666748415E+02  1.250000000E+02  0.00000E+00  9.000E+00
      21     1     1     2   502   511 -1.213522787E+02 -7.678529445E+01 -3.835998447E+01  1.486399859E+02  2.236564522E-06  0.00000E+00  9.000E+00
#rwgt            1           1   2.9785792245831527E-002           2      100523           0
</event>
<event>
      5   9999  3.19816E-02  2.77603E+01 -1.00000E+00  1.55418E-01
      21    -1     0     0   502   512  0.000000000E+00  0.000000000E+00  1.237499455E+03  1.237499455E+03  0.000000000E+00  0.00000E+00  9.000E+00
      21    -1     0     0   501   502  0.000000000E+00  0.000000000E+00 -1.062977570E+02  1.062977570E+02  0.000000000E+00  0.00000E+00  9.000E+00
      25     1     1     2     0     0 -1.272650607E+02  4.928752541E+01 -6.725130009E+00  1.851914772E+02  1.250000000E+02  0.00000E+00  9.000E+00
      25     1     1     2     0     0  1.017617652E+02 -6.025174060E+01  1.087614268E+03  1.101142827E+03  1.250000000E+02  0.00000E+00  9.000E+00
      21     1     1     2   501   512  2.550329551E+01  1.096421518E+01  5.031255917E+01  5.746290723E+01  6.743495762E-07  0.00000E+00  9.000E+00
#rwgt            1           1   2.9157688842861469E-002           2      100591           0
</event>
<event>
      5   9999  3.19816E-02  3.30971E+01 -1.00000E+00  1.50134E-01
      21    -1     0     0   511   501  0.000000000E+00  0.000000000E+00  9.725152230E+02  9.725152230E+02  0.000000000E+00  0.00000E+00  9.000E+00
      21    -1     0     0   501   502  0.000000000E+00  0.000000000E+00 -2.072825624E+02  2.072825624E+02  0.000000000E+00  0.00000E+00  9.000E+00
      25     1     1     2     0     0 -2.839136393E+02  6.641736307E+01  2.022057810E+02  3.762052612E+02  1.250000000E+02  0.00000E+00  9.000E+00
      25     1     1     2     0     0  3.169541551E+02 -6.448214448E+01  1.315918891E+02  3.708898875E+02  1.250000000E+02  0.00000E+00  9.000E+00
      21     1     1     2   511   502 -3.304051581E+01 -1.935218592E+00  4.314349906E+02  4.327026368E+02  5.394796609E-06  0.00000E+00  9.000E+00
#rwgt            1           1   2.9352984858958688E-002           2      100719           0
</event>
<event>
      5   9999  3.19816E-02  4.70495E+02 -1.00000E+00  9.96083E-02
      21    -1     0     0   512   501  0.000000000E+00  0.000000000E+00  1.362715381E+03  1.362715381E+03  0.000000000E+00  0.00000E+00  9.000E+00
      21    -1     0     0   501   502  0.000000000E+00  0.000000000E+00 -3.415086424E+02  3.415086424E+02  0.000000000E+00  0.00000E+00  9.000E+00
      25     1     1     2     0     0  1.295822701E+02  6.865611510E+01 -1.411991009E+02  2.388878669E+02  1.250000000E+02  0.00000E+00  9.000E+00
      25     1     1     2     0     0  3.394178851E+02 -3.118406403E+01  7.751884181E+02  8.559900877E+02  1.250000000E+02  0.00000E+00  9.000E+00
      21     1     1     2   512   502 -4.690001553E+02 -3.747205107E+01  3.872174217E+02  6.093460691E+02  5.394796609E-06  0.00000E+00  9.000E+00
#rwgt            1           1   2.8422091517118695E-002           2      100884           0
</event>
<event>
      5   9999  3.19816E-02  4.91062E+01 -1.00000E+00  1.39524E-01
       1    -1     0     0   502     0  0.000000000E+00  0.000000000E+00  1.045726125E+03  1.045726125E+03  0.000000000E+00  0.00000E+00  9.000E+00
      21    -1     0     0   501   502  0.000000000E+00  0.000000000E+00 -1.544725540E+03  1.544725540E+03  0.000000000E+00  0.00000E+00  9.000E+00
      25     1     1     2     0     0  5.500058551E+02  4.302444166E+02 -4.758894181E+01  7.109897369E+02  1.250000000E+02  0.00000E+00  9.000E+00
      25     1     1     2     0     0 -5.283452071E+02 -3.861736491E+02 -1.069159511E+03  1.259764187E+03  1.250000000E+02  0.00000E+00  9.000E+00
       1     1     1     2   501     0 -2.166064801E+01 -4.407076750E+01  6.177490388E+02  6.196977418E+02  0.000000000E+00  0.00000E+00  9.000E+00
#rwgt            1           1   2.7800044650903608E-002           2      100914           0
</event>
<event>
      5   9999  3.19816E-02  1.23049E+01 -1.00000E+00  1.85890E-01
      21    -1     0     0   502   501  0.000000000E+00  0.000000000E+00  5.886044418E+02  5.886044418E+02  0.000000000E+00  0.00000E+00  9.000E+00
       2    -1     0     0   501     0  0.000000000E+00  0.000000000E+00 -5.096154882E+02  5.096154882E+02  0.000000000E+00  0.00000E+00  9.000E+00
      25     1     1     2     0     0 -7.784676133E+01 -3.608442360E+01 -1.094899716E+01  1.520101458E+02  1.250000000E+02  0.00000E+00  9.000E+00
      25     1     1     2     0     0  9.004925971E+01  3.766872888E+01  5.058430897E+02  5.301226591E+02  1.250000000E+02  0.00000E+00  9.000E+00
       2     1     1     2   502     0 -1.220249838E+01 -1.584305281E+00 -4.159051390E+02  4.160871251E+02  0.000000000E+00  0.00000E+00  9.000E+00
#rwgt            1           1   3.0435445858749171E-002           2      101185           0
</event>
<event>
      5   9999  3.19816E-02  1.11681E+01 -1.00000E+00  1.90370E-01
      21    -1     0     0   502   501  0.000000000E+00  0.000000000E+00  8.845984744E+02  8.845984744E+02  0.000000000E+00  0.00000E+00  9.000E+00
      21    -1     0     0   511   502  0.000000000E+00  0.000000000E+00 -2.020337049E+02  2.020337049E+02  0.000000000E+00  0.00000E+00  9.000E+00
      25     1     1     2     0     0  3.692685509E+02 -7.942967462E+00  3.983716625E+02  5.574471589E+02  1.250000000E+02  0.00000E+00  9.000E+00
      25     1     1     2     0     0 -3.606390760E+02  8.536348393E-01  3.159697652E+02  4.955029408E+02  1.250000000E+02  0.00000E+00  9.000E+00
      21     1     1     2   511   501 -8.629474950E+00  7.089332623E+00 -3.177665825E+01  3.368207957E+01  8.259061849E-07  0.00000E+00  9.000E+00
#rwgt            1           1   2.7199552506619536E-002           2      101388           0
</event>
<event>
      5   9999  3.19816E-02  1.47449E+01 -1.00000E+00  1.78088E-01
      21    -1     0     0   512   501  0.000000000E+00  0.000000000E+00  5.165435779E+01  5.165435779E+01  0.000000000E+00  0.00000E+00  9.000E+00
      21    -1     0     0   501   502  0.000000000E+00  0.000000000E+00 -2.399128993E+03  2.399128993E+03  0.000000000E+00  0.00000E+00  9.000E+00
      25     1     1     2     0     0  7.543628822E+01  2.172353040E+02 -3.616801415E+02  4.464519410E+02  1.250000000E+02  0.00000E+00  9.000E+00
      25     1     1     2     0     0 -6.657923384E+01 -2.054469792E+02 -1.945242435E+03  1.961181885E+03  1.250000000E+02  0.00000E+00  9.000E+00
      21     1     1     2   512   502 -8.857054382E+00 -1.178832477E+01 -4.055205952E+01  4.314952543E+01  0.000000000E+00  0.00000E+00  9.000E+00
#rwgt            1           1   9.5552451457057708E-002           2      101696           0
</event>
<event>
      5   9999  3.19816E-02  1.36637E+01 -1.00000E+00  1.81288E-01
      21    -1     0     0   502   501  0.000000000E+00  0.000000000E+00  4.142136492E+02  4.142136492E+02  0.000000000E+00  0.00000E+00  9.000E+00
      21    -1     0     0   511   502  0.000000000E+00  0.000000000E+00 -2.441607013E+02  2.441607013E+02  0.000000000E+00  0.00000E+00  9.000E+00
      25     1     1     2     0     0 -2.636280874E+02  1.174846326E+02  1.076720101E+02  3.324464906E+02  1.250000000E+02  0.00000E+00  9.000E+00
      25     1     1     2     0     0  2.506895992E+02 -1.130922453E+02  7.025920573E+01  3.101555852E+02  1.250000000E+02  0.00000E+00  9.000E+00
      21     1     1     2   511   501  1.293848821E+01 -4.392387334E+00 -7.878267944E+00  1.577227471E+01  2.795705652E-07  0.00000E+00  9.000E+00
#rwgt            1           1   2.9080535862218825E-002           2      101918           0
</event>
<event>
      5   9999  3.19816E-02  4.93707E+01 -1.00000E+00  1.39390E-01
      21    -1     0     0   502   501  0.000000000E+00  0.000000000E+00  1.437900197E+03  1.437900197E+03  0.000000000E+00  0.00000E+00  9.000E+00
       1    -1     0     0   501     0  0.000000000E+00  0.000000000E+00 -1.304666318E+03  1.304666318E+03  0.000000000E+00  0.00000E+00  9.000E+00
      25     1     1     2     0     0 -2.442198978E+02  4.322671304E+02  1.201562447E+03  1.306091706E+03  1.250000000E+02  0.00000E+00  9.000E+00
      25     1     1     2     0     0  1.964024982E+02 -4.199805152E+02 -1.308525451E+02  4.976996715E+02  1.250000000E+02  0.00000E+00  9.000E+00
       1     1     1     2   502     0  4.781739963E+01 -1.228661515E+01 -9.374760233E+02  9.387751375E+02  0.000000000E+00  0.00000E+00  9.000E+00
#rwgt            1           1   3.2108940413359217E-002           2      102145           0
</event>
<event>
      5   9999  3.19816E-02  8.17926E+01 -1.00000E+00  1.27885E-01
      21    -1     0     0   502   501  0.000000000E+00  0.000000000E+00  1.521448442E+02  1.521448442E+02  0.000000000E+00  0.00000E+00  9.000E+00
       1    -1     0     0   501     0  0.000000000E+00  0.000000000E+00 -2.012307707E+03  2.012307707E+03  0.000000000E+00  0.00000E+00  9.000E+00
      25     1     1     2     0     0 -2.134256222E+02 -1.445415877E+02 -2.309287034E+01  2.874039795E+02  1.250000000E+02  0.00000E+00  9.000E+00
      25     1     1     2     0     0  1.406001489E+02  1.073061578E+02 -6.109523184E+02  6.482057920E+02  1.250000000E+02  0.00000E+00  9.000E+00
       1     1     1     2   502     0  7.282547333E+01  3.723542988E+01 -1.226117674E+03  1.228842780E+03  3.051757812E-05  0.00000E+00  9.000E+00
#rwgt            1           1   2.7595913268578413E-002           2      102249           0
</event>
<event>
      5   9999  3.19816E-02  3.89092E+01 -1.00000E+00  1.45589E-01
      21    -1     0     0   502   501  0.000000000E+00  0.000000000E+00  2.893092372E+02  2.893092372E+02  0.000000000E+00  0.00000E+00  9.000E+00
      21    -1     0     0   501   511  0.000000000E+00  0.000000000E+00 -4.363550682E+02  4.363550682E+02  0.000000000E+00  0.00000E+00  9.000E+00
      25     1     1     2     0     0 -1.661604144E+02 -1.022547537E+02  1.376919332E+02  2.695355013E+02  1.250000000E+02  0.00000E+00  9.000E+00
      25     1     1     2     0     0  1.272645706E+02  1.012355796E+02 -4.082605750E+01  2.091331645E+02  1.250000000E+02  0.00000E+00  9.000E+00
      21     1     1     2   502   511  3.889584372E+01  1.019174191E+00 -2.439117067E+02  2.469956397E+02  4.672030912E-06  0.00000E+00  9.000E+00
#rwgt            1           1   3.1974666407137788E-002           2      102335           0
</event>
<event>
      5   9999  3.19816E-02  5.87640E+01 -1.00000E+00  1.35188E-01
      21    -1     0     0   512   501  0.000000000E+00  0.000000000E+00  2.806807696E+02  2.806807696E+02  0.000000000E+00  0.00000E+00  9.000E+00
      21    -1     0     0   501   502  0.000000000E+00  0.000000000E+00 -7.891242437E+02  7.891242437E+02  0.000000000E+00  0.00000E+00  9.000E+00
      25     1     1     2     0     0  5.703404248E+01  3.160053030E+02 -1.684311704E+02  3.835443817E+02  1.250000000E+02  0.00000E+00  9.000E+00
      25     1     1     2     0     0 -1.484570738E+01 -3.569118801E+02 -4.337364716E+02  5.756377437E+02  1.250000000E+02  0.00000E+00  9.000E+00
      21     1     1     2   512   502 -4.218833510E+01  4.090657712E+01  9.372416800E+01  1.106228879E+02  0.000000000E+00  0.00000E+00  9.000E+00
#rwgt            1           1   3.3434065521925301E-002           2      102403           0
</event>
<event>
      5   9999  3.19816E-02  2.87197E+01 -1.00000E+00  1.54367E-01
      21    -1     0     0   511   501  0.000000000E+00  0.000000000E+00  9.527781730E+02  9.527781730E+02  0.000000000E+00  0.00000E+00  9.000E+00
      21    -1     0     0   501   502  0.000000000E+00  0.000000000E+00 -2.227801241E+02  2.227801241E+02  0.000000000E+00  0.00000E+00  9.000E+00
      25     1     1     2     0     0  3.370880023E+02 -1.324699652E+02  6.589072847E+02  7.622075982E+02  1.250000000E+02  0.00000E+00  9.000E+00
      25     1     1     2     0     0 -3.294430229E+02  1.047865016E+02  3.805358659E+01  3.695754209E+02  1.250000000E+02  0.00000E+00  9.000E+00
      21     1     1     2   511   502 -7.644979393E+00  2.768346357E+01  3.303717760E+01  4.377527805E+01  6.743495762E-07  0.00000E+00  9.000E+00
#rwgt            1           1   2.9067568734153802E-002           2      102512           0
</event>
<event>
      5   9999  3.19816E-02  9.15301E+01 -1.00000E+00  1.25582E-01
      21    -1     0     0   502   501  0.000000000E+00  0.000000000E+00  2.287318052E+02  2.287318052E+02  0.000000000E+00  0.00000E+00  9.000E+00
      21    -1     0     0   501   512  0.000000000E+00  0.000000000E+00 -1.554621163E+03  1.554621163E+03  0.000000000E+00  0.00000E+00  9.000E+00
      25     1     1     2     0     0 -1.340841435E+01  3.964377600E+02 -1.600365738E+02  4.456224726E+02  1.250000000E+02  0.00000E+00  9.000E+00
      25     1     1     2     0     0 -2.144182692E+01 -4.810735668E+02 -6.756665756E+02  8.390720172E+02  1.250000000E+02  0.00000E+00  9.000E+00
      21     1     1     2   502   512  3.485024127E+01  8.463580682E+01 -4.901862081E+02  4.986584781E+02  5.394796609E-06  0.00000E+00  9.000E+00
#rwgt            1           1   2.9113675892914585E-002           2      102635           0
</event>
<event>
      5   9999  3.19816E-02  5.28868E+01 -1.00000E+00  1.37699E-01
      21    -1     0     0   502   501  0.000000000E+00  0.000000000E+00  6.827482702E+02  6.827482702E+02  0.000000000E+00  0.00000E+00  9.000E+00
       2    -1     0     0   501     0  0.000000000E+00  0.000000000E+00 -1.083854834E+03  1.083854834E+03  0.000000000E+00  0.00000E+00  9.000E+00
      25     1     1     2     0     0 -1.939165587E+02 -3.203937145E+00  6.109108168E+02  6.530320995E+02  1.250000000E+02  0.00000E+00  9.000E+00
      25     1     1     2     0     0  1.822805193E+02  5.479481881E+01 -2.098503260E+02  3.096624279E+02  1.250000000E+02  0.00000E+00  9.000E+00
       2     1     1     2   502     0  1.163603932E+01 -5.159088167E+01 -8.021670544E+02  8.039085767E+02  0.000000000E+00  0.00000E+00  9.000E+00
#rwgt            1           1   2.4905264101898215E-002           2      102710           0
</event>
<event>
      5   9999  3.19816E-02  2.19544E+01 -1.00000E+00  1.63096E-01
      21    -1     0     0   502   501  0.000000000E+00  0.000000000E+00  1.849748656E+03  1.849748656E+03  0.000000000E+00  0.00000E+00  9.000E+00
      21    -1     0     0   501   511  0.000000000E+00  0.000000000E+00 -1.164141551E+02  1.164141551E+02  0.000000000E+00  0.00000E+00  9.000E+00
      25     1     1     2     0     0 -1.666857794E+01 -1.153467630E+02  3.470190274E+01  1.743901926E+02  1.250000000E+02  0.00000E+00  9.000E+00
      25     1     1     2     0     0  2.673271394E+01  9.583496074E+01  1.738732078E+03  1.746056476E+03  1.250000000E+02  0.00000E+00  9.000E+00
      21     1     1     2   502   511 -1.006413601E+01  1.951180224E+01 -4.009948075E+01  4.571614176E+01  0.000000000E+00  0.00000E+00  9.000E+00
#rwgt            1           1   2.8886985376991782E-002           2      102803           0
</event>
<event>
      5   9999  3.19816E-02  2.73766E+01 -1.00000E+00  1.55852E-01
      21    -1     0     0   502   512  0.000000000E+00  0.000000000E+00  3.023025352E+02  3.023025352E+02  0.000000000E+00  0.00000E+00  9.000E+00
      21    -1     0     0   501   502  0.000000000E+00  0.000000000E+00 -5.497041241E+02  5.497041241E+02  0.000000000E+00  0.00000E+00  9.000E+00
      25     1     1     2     0     0  1.683887735E+02 -1.425784464E+02 -4.520555584E+02  5.183267505E+02  1.250000000E+02  0.00000E+00  9.000E+00
      25     1     1     2     0     0 -1.630319281E+02  1.157310836E+02  1.776353929E+02  2.952158975E+02  1.250000000E+02  0.00000E+00  9.000E+00
      21     1     1     2   501   512 -5.356845386E+00  2.684736281E+01  2.701857659E+01  3.846401127E+01  6.743495762E-07  0.00000E+00  9.000E+00
#rwgt            1           1   2.5800116580632155E-002           2      102966           0
</event>
<event>
      5   9999  3.19816E-02  1.91111E+01 -1.00000E+00  1.68015E-01
      21    -1     0     0   502   511  0.000000000E+00  0.000000000E+00  4.641929544E+02  4.641929544E+02  0.000000000E+00  0.00000E+00  9.000E+00
      21    -1     0     0   501   502  0.000000000E+00  0.000000000E+00 -2.410918209E+02  2.410918209E+02  0.000000000E+00  0.00000E+00  9.000E+00
      25     1     1     2     0     0  1.901123470E+02 -7.293312778E+01 -2.476696981E+01  2.402089682E+02  1.250000000E+02  0.00000E+00  9.000E+00
      25     1     1     2     0     0 -2.061865289E+02  6.259607828E+01  3.524044999E+01  2.515910234E+02  1.250000000E+02  0.00000E+00  9.000E+00
      21     1     1     2   501   511  1.607418189E+01  1.033704951E+01  2.126276533E+02  2.134847837E+02  2.697398305E-06  0.00000E+00  9.000E+00
#rwgt            1           1   2.9316141463744953E-002           2      103123           0
</event>
<event>
      5   9999  3.19816E-02  2.97626E+01 -1.00000E+00  1.53280E-01
      21    -1     0     0   502   501  0.000000000E+00  0.000000000E+00  4.089075443E+02  4.089075443E+02  0.000000000E+00  0.00000E+00  9.000E+00
      21    -1     0     0   501   512  0.000000000E+00  0.000000000E+00 -8.750489692E+02  8.750489692E+02  0.000000000E+00  0.00000E+00  9.000E+00
      25     1     1     2     0     0 -4.255453600E+02  1.585092228E+01  1.862075605E+02  4.812882304E+02  1.250000000E+02  0.00000E+00  9.000E+00
      25     1     1     2     0     0  4.060451628E+02 -3.833548978E+01 -5.497482404E+02  6.958379207E+02  1.250000000E+02  0.00000E+00  9.000E+00
      21     1     1     2   502   512  1.950019725E+01  2.248456750E+01 -1.026007450E+02  1.068303624E+02  0.000000000E+00  0.00000E+00  9.000E+00
#rwgt            1           1   2.7470185979480900E-002           2      103229           0
</event>
<event>
      5   9999  3.19816E-02  9.52968E+01 -1.00000E+00  1.24776E-01
      21    -1     0     0   502   501  0.000000000E+00  0.000000000E+00  2.585612762E+03  2.585612762E+03  0.000000000E+00  0.00000E+00  9.000E+00
      21    -1     0     0   511   502  0.000000000E+00  0.000000000E+00 -6.252334034E+02  6.252334034E+02  0.000000000E+00  0.00000E+00  9.000E+00
      25     1     1     2     0     0 -1.533073134E+02 -1.130836662E+03  1.243002086E+03  1.692032468E+03  1.250000000E+02  0.00000E+00  9.000E+00
      25     1     1     2     0     0  1.654521740E+02  1.225356438E+03  6.781082143E+02  1.415743116E+03  1.250000000E+02  0.00000E+00  9.000E+00
      21     1     1     2   511   501 -1.214486063E+01 -9.451977515E+01  3.926905824E+01  1.030705800E+02  1.581489940E-06  0.00000E+00  9.000E+00
#rwgt            1           1   6.4906705138411541E-002           2      103383           0
</event>
<event>
      5   9999  3.19816E-02  2.04986E+01 -1.00000E+00  1.65492E-01
      21    -1     0     0   502   501  0.000000000E+00  0.000000000E+00  5.443225850E+02  5.443225850E+02  0.000000000E+00  0.00000E+00  9.000E+00
      21    -1     0     0   512   502  0.000000000E+00  0.000000000E+00 -8.825272021E+02  8.825272021E+02  0.000000000E+00  0.00000E+00  9.000E+00
      25     1     1     2     0     0  8.116758228E+01  3.770350319E+02 -7.111371775E+02  8.185870002E+02  1.250000000E+02  0.00000E+00  9.000E+00
      25     1     1     2     0     0 -1.016658412E+02 -3.769194981E+02  4.010462170E+02  5.734695454E+02  1.250000000E+02  0.00000E+00  9.000E+00
      21     1     1     2   512   501  2.049825889E+01 -1.155337814E-01 -2.811365651E+01  3.479324141E+01  4.768371582E-07  0.00000E+00  9.000E+00
#rwgt            1           1   3.2822226525038127E-002           2      103493           0
</event>
<event>
      5   9999  3.19816E-02  7.19596E+00 -1.00000E+00  2.13873E-01
      21    -1     0     0   502   501  0.000000000E+00  0.000000000E+00  5.618896549E+02  5.618896549E+02  0.000000000E+00  0.00000E+00  9.000E+00
       2    -1     0     0   501     0  0.000000000E+00  0.000000000E+00 -5.491145032E+02  5.491145032E+02  0.000000000E+00  0.00000E+00  9.000E+00
      25     1     1     2     0     0  3.014856372E+02 -2.518095281E+02  3.564897860E+02  5.449877021E+02  1.250000000E+02  0.00000E+00  9.000E+00
      25     1     1     2     0     0 -3.086481963E+02  2.525020621E+02 -2.826207368E+02  5.045002292E+02  1.250000000E+02  0.00000E+00  9.000E+00
       2     1     1     2   502     0  7.162559139E+00 -6.925339741E-01 -6.109389749E+01  6.151622686E+01  1.168007728E-06  0.00000E+00  9.000E+00
#rwgt            1           1   2.7206131964759735E-002           2      103737           0
</event>
<event>
      5   9999  3.19816E-02  2.25947E+01 -1.00000E+00  1.62113E-01
      21    -1     0     0   502   511  0.000000000E+00  0.000000000E+00  1.667686668E+02  1.667686668E+02  0.000000000E+00  0.00000E+00  9.000E+00
      21    -1     0     0   501   502  0.000000000E+00  0.000000000E+00 -2.482358086E+02  2.482358086E+02  0.000000000E+00  0.00000E+00  9.000E+00
      25     1     1     2     0     0  6.788265799E+01  8.720140458E+01 -4.437994443E+01  1.726462270E+02  1.250000000E+02  0.00000E+00  9.000E+00
      25     1     1     2     0     0 -6.714890585E+01 -6.461858137E+01 -9.335250432E+01  1.817256907E+02  1.250000000E+02  0.00000E+00  9.000E+00
      21     1     1     2   501   511 -7.337521433E-01 -2.258282321E+01  5.626530687E+01  6.063255770E+01  1.168007728E-06  0.00000E+00  9.000E+00
#rwgt            1           1   2.2908409867996332E-002           2      104112           0
</event>
<event>
      5   9999  3.19816E-02  3.28294E+01 -1.00000E+00  1.50370E-01
      21    -1     0     0   502   512  0.000000000E+00  0.000000000E+00  4.838076295E+01  4.838076295E+01  0.000000000E+00  0.00000E+00  9.000E+00
      21    -1     0     0   501   502  0.000000000E+00  0.000000000E+00 -5.446855034E+02  5.446855034E+02  0.000000000E+00  0.00000E+00  9.000E+00
      25     1     1     2     0     0 -2.996584121E+01  5.913724936E+01 -2.593482275E+02  2.954347119E+02  1.250000000E+02  0.00000E+00  9.000E+00
      25     1     1     2     0     0  4.341193818E+01 -2.918777631E+01 -2.250772139E+02  2.627190036E+02  1.250000000E+02  0.00000E+00  9.000E+00
      21     1     1     2   501   512 -1.344609697E+01 -2.994947305E+01 -1.187929913E+01  3.491255086E+01  7.348554138E-07  0.00000E+00  9.000E+00
#rwgt            1           1   1.5373433324875620E-002           2      104209           0
</event>
<event>
      5   9999  3.19816E-02  2.61175E+01 -1.00000E+00  1.57341E-01
      21    -1     0     0   502   501  0.000000000E+00  0.000000000E+00  1.417875970E+02  1.417875970E+02  0.000000000E+00  0.00000E+00  9.000E+00
      21    -1     0     0   511   502  0.000000000E+00  0.000000000E+00 -5.783789226E+02  5.783789226E+02  0.000000000E+00  0.00000E+00  9.000E+00
      25     1     1     2     0     0  5.667337514E+01 -2.180391867E+02 -2.181737182E+02  3.376058793E+02  1.250000000E+02  0.00000E+00  9.000E+00
      25     1     1     2     0     0 -3.157197058E+01  2.252532318E+02 -1.298256542E+02  2.901990838E+02  1.250000000E+02  0.00000E+00  9.000E+00
      21     1     1     2   511   501 -2.510140456E+01 -7.214045105E+00 -8.859195312E+01  9.236155648E+01  1.348699152E-06  0.00000E+00  9.000E+00
#rwgt            1           1   2.6568398928537365E-002           2      104289           0
</event>
<event>
      5   9999  3.19816E-02  1.30614E+02 -1.00000E+00  1.18826E-01
      21    -1     0     0   502   512  0.000000000E+00  0.000000000E+00  1.939418142E+03  1.939418142E+03  0.000000000E+00  0.00000E+00  9.000E+00
      21    -1     0     0   501   502  0.000000000E+00  0.000000000E+00 -2.760676107E+02  2.760676107E+02  0.000000000E+00  0.00000E+00  9.000E+00
      25     1     1     2     0     0 -2.821139788E+02 -7.918074258E+01 -1.353053929E+02  3.461075503E+02  1.250000000E+02  0.00000E+00  9.000E+00
      25     1     1     2     0     0  2.197183762E+02  1.939271303E+02  1.601485073E+03  1.632869663E+03  1.250000000E+02  0.00000E+00  9.000E+00
      21     1     1     2   501   512  6.239560261E+01 -1.147463877E+02  1.971708508E+02  2.365085392E+02  0.000000000E+00  0.00000E+00  9.000E+00
#rwgt            1           1   3.0022778148432242E-002           2      104380           0
</event>
<event>
      5   9999  3.19816E-02  1.48589E+02 -1.00000E+00  1.16557E-01
      21    -1     0     0   502   501  0.000000000E+00  0.000000000E+00  5.592817381E+02  5.592817381E+02  0.000000000E+00  0.00000E+00  9.000E+00
      21    -1     0     0   501   511  0.000000000E+00  0.000000000E+00 -4.314032122E+02  4.314032122E+02  0.000000000E+00  0.00000E+00  9.000E+00
      25     1     1     2     0     0  3.777934846E+02 -4.904955956E+01  1.426086644E+00  4.009498847E+02  1.250000000E+02  0.00000E+00  9.000E+00
      25     1     1     2     0     0 -3.884997949E+02 -9.915327760E+01  1.343069370E+02  4.409385631E+02  1.250000000E+02  0.00000E+00  9.000E+00
      21     1     1     2   502   511  1.070631029E+01  1.482028372E+02 -7.854497767E+00  1.487965025E+02  3.663625565E-06  0.00000E+00  9.000E+00
#rwgt            2          11   4.5770972809400668E-003           2      104451           0
</event>
<event>
      5   9999  3.19816E-02  3.53399E+01 -1.00000E+00  1.48257E-01
      21    -1     0     0   502   512  0.000000000E+00  0.000000000E+00  1.003205859E+03  1.003205859E+03  0.000000000E+00  0.00000E+00  9.000E+00
      21    -1     0     0   501   502  0.000000000E+00  0.000000000E+00 -4.681539969E+02  4.681539969E+02  0.000000000E+00  0.00000E+00  9.000E+00
      25     1     1     2     0     0 -3.012544299E+02  4.180142404E+02 -2.845016130E+00  5.302105533E+02  1.250000000E+02  0.00000E+00  9.000E+00
      25     1     1     2     0     0  2.660025753E+02 -4.155214374E+02  1.215080192E+02  5.232634458E+02  1.250000000E+02  0.00000E+00  9.000E+00
      21     1     1     2   501   512  3.525185454E+01 -2.492802970E+00  4.163888595E+02  4.178858572E+02  5.394796609E-06  0.00000E+00  9.000E+00
#rwgt            1           1   3.1006438513431826E-002           2      104471           0
</event>
<event>
      5   9999  3.19816E-02  2.05831E+02 -1.00000E+00  1.11196E-01
      21    -1     0     0   502   501  0.000000000E+00  0.000000000E+00  6.760651183E+02  6.760651183E+02  0.000000000E+00  0.00000E+00  9.000E+00
       2    -1     0     0   501     0  0.000000000E+00  0.000000000E+00 -6.705096838E+02  6.705096838E+02  0.000000000E+00  0.00000E+00  9.000E+00
      25     1     1     2     0     0  9.328024344E+01 -1.587400929E+02  3.140117259E+02  3.848739858E+02  1.250000000E+02  0.00000E+00  9.000E+00
      25     1     1     2     0     0  1.041540729E+02  1.005510642E+02  2.795438358E+02  3.387157267E+02  1.250000000E+02  0.00000E+00  9.000E+00
       2     1     1     2   502     0 -1.974343163E+02  5.818902872E+01 -5.880001272E+02  6.229850896E+02  1.078959322E-05  0.00000E+00  9.000E+00
#rwgt            1           1   3.5093530568340255E-002           2      104700           0
</event>
<event>
      5   9999  3.19816E-02  1.29043E+02 -1.00000E+00  1.19044E-01
      21    -1     0     0   502   501  0.000000000E+00  0.000000000E+00  1.822726869E+02  1.822726869E+02  0.000000000E+00  0.00000E+00  9.000E+00
       2    -1     0     0   501     0  0.000000000E+00  0.000000000E+00 -2.114140452E+03  2.114140452E+03  0.000000000E+00  0.00000E+00  9.000E+00
      25     1     1     2     0     0 -4.333890080E+02 -1.658072407E+02 -9.055672881E+02  1.025180563E+03  1.250000000E+02  0.00000E+00  9.000E+00
      25     1     1     2     0     0  5.488034095E+02  2.235271505E+02 -7.331586300E+02  9.509448701E+02  1.250000000E+02  0.00000E+00  9.000E+00
       2     1     1     2   502     0 -1.154144015E+02 -5.771990978E+01 -2.931418472E+02  3.202877060E+02  0.000000000E+00  0.00000E+00  9.000E+00
#rwgt            1           1   2.8786021613374818E-002           2      104753           0
</event>
<event>
      5   9999  3.19816E-02  9.03161E+01 -1.00000E+00  1.25851E-01
      21    -1     0     0   502   501  0.000000000E+00  0.000000000E+00  2.082621116E+02  2.082621116E+02  0.000000000E+00  0.00000E+00  9.000E+00
      21    -1     0     0   501   511  0.000000000E+00  0.000000000E+00 -1.535063563E+03  1.535063563E+03  0.000000000E+00  0.00000E+00  9.000E+00
      25     1     1     2     0     0 -1.476329849E+02 -1.530015886E+02 -7.816670975E+02  8.196544611E+02  1.250000000E+02  0.00000E+00  9.000E+00
      25     1     1     2     0     0  5.738565197E+01  1.494790565E+02  1.308843708E+02  2.416460633E+02  1.250000000E+02  0.00000E+00  9.000E+00
      21     1     1     2   502   511  9.024733294E+01  3.522532069E+00 -6.760187242E+02  6.820251497E+02  1.078959322E-05  0.00000E+00  9.000E+00
#rwgt            1           1   2.5636499029757270E-002           2      104784           0
</event>
<event>
      5   9999  3.19816E-02  9.94724E+01 -1.00000E+00  1.23931E-01
      21    -1     0     0   502   501  0.000000000E+00  0.000000000E+00  2.356417234E+02  2.356417234E+02  0.000000000E+00  0.00000E+00  9.000E+00
      21    -1     0     0   501   512  0.000000000E+00  0.000000000E+00 -1.029268686E+03  1.029268686E+03  0.000000000E+00  0.00000E+00  9.000E+00
      25     1     1     2     0     0 -8.878283233E+01  4.397880071E+02 -3.302424209E+02  5.709474048E+02  1.250000000E+02  0.00000E+00  9.000E+00
      25     1     1     2     0     0  1.100763144E+02 -3.426214672E+02 -2.421820806E+02  4.514237753E+02  1.250000000E+02  0.00000E+00  9.000E+00
      21     1     1     2   502   512 -2.129348212E+01 -9.716653998E+01 -2.212024610E+02  2.425392290E+02  2.697398305E-06  0.00000E+00  9.000E+00
#rwgt            2          11   3.2803674338589771E-003           2      105004           0
</event>
<event>
      5   9999  3.19816E-02  3.06321E+01 -1.00000E+00  1.52413E-01
      21    -1     0     0   511   501  0.000000000E+00  0.000000000E+00  4.890770040E+02  4.890770040E+02  0.000000000E+00  0.00000E+00  9.000E+00
      21    -1     0     0   501   502  0.000000000E+00  0.000000000E+00 -2.368862179E+02  2.368862179E+02  0.000000000E+00  0.00000E+00  9.000E+00
      25     1     1     2     0     0 -3.156247449E+01 -9.639425780E+01 -1.829844713E+02  2.437136834E+02  1.250000000E+02  0.00000E+00  9.000E+00
      25     1     1     2     0     0  1.480052974E+01  1.220333768E+02  3.908568699E+02  4.283751784E+02  1.250000000E+02  0.00000E+00  9.000E+00
      21     1     1     2   511   502  1.676194475E+01 -2.563911901E+01  4.431838746E+01  5.387436015E+01  8.259061849E-07  0.00000E+00  9.000E+00
#rwgt            1           1   3.3488066023910232E-002           2      105069           0
</event>
<event>
      5   9999  3.19816E-02  1.04528E+02 -1.00000E+00  1.22969E-01
      21    -1     0     0   502   501  0.000000000E+00  0.000000000E+00  1.395180056E+03  1.395180056E+03  0.000000000E+00  0.00000E+00  9.000E+00
       5    -1     0     0   501     0  0.000000000E+00  0.000000000E+00 -1.740254738E+02  1.740254738E+02  0.000000000E+00  0.00000E+00  9.000E+00
      25     1     1     2     0     0  2.218187143E+02  1.426708503E+02  6.142783103E+02  6.800892266E+02  1.250000000E+02  0.00000E+00  9.000E+00
      25     1     1     2     0     0 -2.477085268E+02 -4.140003441E+01  6.968503043E+02  7.511982586E+02  1.250000000E+02  0.00000E+00  9.000E+00
       5     1     1     2   502     0  2.588981251E+01 -1.012708159E+02 -8.997403245E+01  1.379180447E+02  5.135693366E-06  0.00000E+00  9.000E+00
#rwgt            1           1   2.9104094680640777E-002           2      105151           0
</event>
<event>
      5   9999  3.19816E-02  1.00526E+02 -1.00000E+00  1.23726E-01
      21    -1     0     0   511   501  0.000000000E+00  0.000000000E+00  4.370875210E+02  4.370875210E+02  0.000000000E+00  0.00000E+00  9.000E+00
      21    -1     0     0   501   502  0.000000000E+00  0.000000000E+00 -1.208499909E+02  1.208499909E+02  0.000000000E+00  0.00000E+00  9.000E+00
      25     1     1     2     0     0 -1.042160398E+02  6.058523134E+00  1.455557795E+02  2.184242972E+02  1.250000000E+02  0.00000E+00  9.000E+00
      25     1     1     2     0     0  2.829314643E+01  5.982915058E+01  1.286402089E-02  1.414391373E+02  1.250000000E+02  0.00000E+00  9.000E+00
      21     1     1     2   511   502  7.592289339E+01 -6.588767371E+01  1.706688866E+02  1.980740774E+02  3.814697266E-06  0.00000E+00  9.000E+00
#rwgt            1           1   7.8278055380923778E-002           2      105229           0
</event>
<event>
      5   9999  3.19816E-02  9.31052E+01 -1.00000E+00  1.25240E-01
      21    -1     0     0   502   501  0.000000000E+00  0.000000000E+00  1.351356459E+03  1.351356459E+03  0.000000000E+00  0.00000E+00  9.000E+00
      -3    -1     0     0     0   502  0.000000000E+00  0.000000000E+00 -1.605124149E+02  1.605124149E+02  0.000000000E+00  0.00000E+00  9.000E+00
      25     1     1     2     0     0  4.254692484E+01 -1.902808769E+02  9.487894673E+02  9.766491213E+02  1.250000000E+02  0.00000E+00  9.000E+00
      25     1     1     2     0     0 -1.304664599E+02  2.209195521E+02  3.089326161E+02  4.205844825E+02  1.250000000E+02  0.00000E+00  9.000E+00
      -3     1     1     2     0   501  8.791953508E+01 -3.063867519E+01 -6.687803906E+01  1.146352702E+02  3.162979880E-06  0.00000E+00  9.000E+00
#rwgt            1           1   2.7182810381088336E-002           2      105281           0
</event>
<event>
      5   9999  3.19816E-02  1.02910E+02 -1.00000E+00  1.23270E-01
      21    -1     0     0   502   501  0.000000000E+00  0.000000000E+00  8.000268978E+01  8.000268978E+01  0.000000000E+00  0.00000E+00  9.000E+00
       1    -1     0     0   501     0  0.000000000E+00  0.000000000E+00 -8.409006942E+02  8.409006942E+02  0.000000000E+00  0.00000E+00  9.000E+00
      25     1     1     2     0     0  1.317566763E+02  6.245294956E+01 -4.066803003E+02  4.497488847E+02  1.250000000E+02  0.00000E+00  9.000E+00
      25     1     1     2     0     0 -3.092752803E+01 -8.304441745E+01 -6.919894599E+01  1.681260878E+02  1.250000000E+02  0.00000E+00  9.000E+00
       1     1     1     2   502     0 -1.008291483E+02  2.059146789E+01 -2.850187581E+02  3.030284115E+02  3.814697266E-06  0.00000E+00  9.000E+00
#rwgt            1           1   2.5457903838530981E-002           2      105310           0
</event>
<event>
      5   9999  3.19816E-02  1.37153E+02 -1.00000E+00  1.17956E-01
      21    -1     0     0   502   501  0.000000000E+00  0.000000000E+00  2.350167798E+02  2.350167798E+02  0.000000000E+00  0.00000E+00  9.000E+00
      21    -1     0     0   511   502  0.000000000E+00  0.000000000E+00 -4.888808284E+02  4.888808284E+02  0.000000000E+00  0.00000E+00  9.000E+00
      25     1     1     2     0     0 -1.770297958E+02  1.019091796E+02 -1.261666192E+02  2.706807073E+02  1.250000000E+02  0.00000E+00  9.000E+00
      25     1     1     2     0     0  1.751102245E+02  3.523008553E+01  5.492671484E+01  2.248259185E+02  1.250000000E+02  0.00000E+00  9.000E+00
      21     1     1     2   511   501  1.919571353E+00 -1.371392651E+02 -1.826241443E+02  2.283909825E+02  4.672030912E-06  0.00000E+00  9.000E+00
#rwgt            1           1   2.6143353170801461E-002           2      105365           0
</event>
<event>
      5   9999  3.19816E-02  6.86631E+01 -1.00000E+00  1.31646E-01
      21    -1     0     0   502   501  0.000000000E+00  0.000000000E+00  4.561399529E+02  4.561399529E+02  0.000000000E+00  0.00000E+00  9.000E+00
      21    -1     0     0   512   502  0.000000000E+00  0.000000000E+00 -1.423191106E+03  1.423191106E+03  0.000000000E+00  0.00000E+00  9.000E+00
      25     1     1     2     0     0  2.470611532E+02  6.250885847E+01 -1.019917851E+03  1.058680307E+03  1.250000000E+02  0.00000E+00  9.000E+00
      25     1     1     2     0     0 -2.270873019E+02 -1.282026435E+02  3.849895597E+02  4.815044357E+02  1.250000000E+02  0.00000E+00  9.000E+00
      21     1     1     2   512   501 -1.997385131E+01  6.569378500E+01 -3.321228624E+02  3.391463163E+02  0.000000000E+00  0.00000E+00  9.000E+00
#rwgt            1           1   3.4374822558640938E-002           2      105424           0
</event>
<event>
      5   9999  3.19816E-02  8.92543E+02 -1.00000E+00  9.21922E-02
       1    -1     0     0   502     0  0.000000000E+00  0.000000000E+00  5.774262248E+02  5.774262248E+02  0.000000000E+00  0.00000E+00  9.000E+00
      21    -1     0     0   501   502  0.000000000E+00  0.000000000E+00 -3.111380910E+03  3.111380910E+03  0.000000000E+00  0.00000E+00  9.000E+00
      25     1     1     2     0     0 -2.925722728E+02  1.210525025E+02 -1.898131642E+03  1.928414108E+03  1.250000000E+02  0.00000E+00  9.000E+00
      25     1     1     2     0     0 -1.535880152E+02  6.519761690E+02 -5.266679521E+02  8.612005197E+02  1.250000000E+02  0.00000E+00  9.000E+00
       1     1     1     2   501     0  4.461602879E+02 -7.730286714E+02 -1.091550905E+02  8.991925062E+02  1.595802358E-05  0.00000E+00  9.000E+00
#rwgt            2          17   1.5246939568863287E-004           2      105583           0
</event>
<event>
      5   9999  3.19816E-02  3.37101E+02 -1.00000E+00  1.03972E-01
      21    -1     0     0   502   501  0.000000000E+00  0.000000000E+00  6.567342359E+02  6.567342359E+02  0.000000000E+00  0.00000E+00  9.000E+00
      21    -1     0     0   511   502  0.000000000E+00  0.000000000E+00 -4.069420899E+02  4.069420899E+02  0.000000000E+00  0.00000E+00  9.000E+00
      25     1     1     2     0     0  3.766607329E+01 -1.417226645E+02  2.094911118E+02  2.846323465E+02  1.250000000E+02  0.00000E+00  9.000E+00
      25     1     1     2     0     0 -2.028927457E+02 -1.521091712E+02  2.538813206E+02  3.799781456E+02  1.250000000E+02  0.00000E+00  9.000E+00
      21     1     1     2   511   501  1.652266724E+02  2.938318357E+02 -2.135802864E+02  3.990658338E+02  3.814697266E-06  0.00000E+00  9.000E+00
#rwgt            1           1   2.6802074529877228E-002           2      105602           0
</event>
<event>
      5   9999  3.19816E-02  5.32184E+01 -1.00000E+00  1.37547E-01
      21    -1     0     0   502   501  0.000000000E+00  0.000000000E+00  1.276634139E+02  1.276634139E+02  0.000000000E+00  0.00000E+00  9.000E+00
       1    -1     0     0   501     0  0.000000000E+00  0.000000000E+00 -8.159119148E+02  8.159119148E+02  0.000000000E+00  0.00000E+00  9.000E+00
      25     1     1     2     0     0 -1.239008056E+02 -7.768366090E+01 -6.021486264E+00  1.924770612E+02  1.250000000E+02  0.00000E+00  9.000E+00
      25     1     1     2     0     0  1.193418501E+02  2.466092625E+01 -1.980550619E+02  2.640103142E+02  1.250000000E+02  0.00000E+00  9.000E+00
       1     1     1     2   502     0  4.558955546E+00  5.302273465E+01 -4.841719527E+02  4.870879533E+02  0.000000000E+00  0.00000E+00  9.000E+00
#rwgt            1           1   2.3993854912109834E-002           2      105634           0
</event>
<event>
      5   9999  3.19816E-02  1.93403E+02 -1.00000E+00  1.12181E-01
      21    -1     0     0   511   501  0.000000000E+00  0.000000000E+00  1.365067021E+03  1.365067021E+03  0.000000000E+00  0.00000E+00  9.000E+00
      21    -1     0     0   501   502  0.000000000E+00  0.000000000E+00 -9.882947095E+02  9.882947095E+02  0.000000000E+00  0.00000E+00  9.000E+00
      25     1     1     2     0     0 -7.233959833E+02  3.754693597E+02 -1.539676425E+02  8.388146539E+02  1.250000000E+02  0.00000E+00  9.000E+00
      25     1     1     2     0     0  8.496160999E+02 -2.289316187E+02 -6.213659643E+01  8.909226452E+02  1.250000000E+02  0.00000E+00  9.000E+00
      21     1     1     2   511   502 -1.262201166E+02 -1.465377410E+02  5.928765501E+02  6.236244310E+02  7.629394531E-06  0.00000E+00  9.000E+00
#rwgt            1           1   3.3742519556301018E-002           2      105707           0
</event>
<event>
      5   9999  3.19816E-02  1.00680E+02 -1.00000E+00  1.23696E-01
      21    -1     0     0   502   501  0.000000000E+00  0.000000000E+00  1.507806406E+02  1.507806406E+02  0.000000000E+00  0.00000E+00  9.000E+00
      21    -1     0     0   501   512  0.000000000E+00  0.000000000E+00 -7.624776826E+02  7.624776826E+02  0.000000000E+00  0.00000E+00  9.000E+00
      25     1     1     2     0     0  1.903135505E+01  1.749787095E+02 -1.831641603E+02  2.831145544E+02  1.250000000E+02  0.00000E+00  9.000E+00
      25     1     1     2     0     0  8.696810264E+00 -2.717654534E+02 -1.515836824E+02  3.354619337E+02  1.250000000E+02  0.00000E+00  9.000E+00
      21     1     1     2   502   512 -2.772816531E+01  9.678674390E+01 -2.769491993E+02  2.946818351E+02  5.394796609E-06  0.00000E+00  9.000E+00
#rwgt            1           1   2.1471182073414218E-002           2      105762           0
</event>
<event>
      5   9999  3.19816E-02  2.94428E+01 -1.00000E+00  1.53608E-01
      21    -1     0     0   502   501  0.000000000E+00  0.000000000E+00  5.402459319E+02  5.402459319E+02  0.000000000E+00  0.00000E+00  9.000E+00
      21    -1     0     0   501   511  0.000000000E+00  0.000000000E+00 -1.268604327E+02  1.268604327E+02  0.000000000E+00  0.00000E+00  9.000E+00
      25     1     1     2     0     0 -8.959033219E+01 -1.157640753E+02  3.698926202E+01  1.960126380E+02  1.250000000E+02  0.00000E+00  9.000E+00
      25     1     1     2     0     0  7.922012730E+01  1.433201232E+02  3.881164398E+02  4.394039794E+02  1.250000000E+02  0.00000E+00  9.000E+00
      21     1     1     2   502   511  1.037020489E+01 -2.755604794E+01 -1.172020265E+01  3.168974721E+01  2.384185791E-07  0.00000E+00  9.000E+00
#rwgt            1           1   3.1925025519921379E-002           2      105802           0
</event>
<event>
      5   9999  3.19816E-02  9.93567E+01 -1.00000E+00  1.23954E-01
      21    -1     0     0   512   501  0.000000000E+00  0.000000000E+00  3.302082937E+02  3.302082937E+02  0.000000000E+00  0.00000E+00  9.000E+00
      21    -1     0     0   501   502  0.000000000E+00  0.000000000E+00 -7.042418474E+02  7.042418474E+02  0.000000000E+00  0.00000E+00  9.000E+00
      25     1     1     2     0     0 -2.089622697E+02  2.753598429E+02  4.635820589E-01  3.675778668E+02  1.250000000E+02  0.00000E+00  9.000E+00
      25     1     1     2     0     0  1.356683465E+02 -3.424400679E+02 -4.063748178E+02  5.625269708E+02  1.250000000E+02  0.00000E+00  9.000E+00
      21     1     1     2   512   502  7.329392322E+01  6.708022501E+01  3.187768204E+01  1.043453036E+02  1.469710828E-06  0.00000E+00  9.000E+00
#rwgt            2          11   4.1063396035564458E-003           2      106071           0
</event>
<event>
      5   9999  3.19816E-02  2.33197E+01 -1.00000E+00  1.61048E-01
      21    -1     0     0   502   511  0.000000000E+00  0.000000000E+00  6.018728959E+02  6.018728959E+02  0.000000000E+00  0.00000E+00  9.000E+00
      21    -1     0     0   501   502  0.000000000E+00  0.000000000E+00 -4.717488362E+02  4.717488362E+02  0.000000000E+00  0.00000E+00  9.000E+00
      25     1     1     2     0     0 -1.452158935E+02 -5.990161209E+01 -4.191728854E+02  4.647652813E+02  1.250000000E+02  0.00000E+00  9.000E+00
      25     1     1     2     0     0  1.630526454E+02  4.487967810E+01  3.508864995E+02  4.090802931E+02  1.250000000E+02  0.00000E+00  9.000E+00
      21     1     1     2   501   511 -1.783675192E+01  1.502193400E+01  1.984104456E+02  1.997761576E+02  0.000000000E+00  0.00000E+00  9.000E+00
#rwgt            1           1   2.9717294992495633E-002           2      106121           0
</event>
<event>
      5   9999  3.19816E-02  1.56541E+01 -1.00000E+00  1.75655E-01
      21    -1     0     0   502   512  0.000000000E+00  0.000000000E+00  3.295447942E+02  3.295447942E+02  0.000000000E+00  0.00000E+00  9.000E+00
      21    -1     0     0   501   502  0.000000000E+00  0.000000000E+00 -7.738300650E+02  7.738300650E+02  0.000000000E+00  0.00000E+00  9.000E+00
      25     1     1     2     0     0  3.369995288E+02  3.108303692E+02 -1.152847327E+02  4.889782924E+02  1.250000000E+02  0.00000E+00  9.000E+00
      25     1     1     2     0     0 -3.516211723E+02 -3.164211550E+02 -3.395236453E+02  5.955342995E+02  1.250000000E+02  0.00000E+00  9.000E+00
      21     1     1     2   501   512  1.462164349E+01  5.590785737E+00  1.052310729E+01  1.886226738E+01  3.953724850E-07  0.00000E+00  9.000E+00
#rwgt            1           1   3.0435164285400312E-002           2      106245           0
</event>
<event>
      5   9999  3.19816E-02  1.85341E+02 -1.00000E+00  1.12865E-01
      21    -1     0     0   502   501  0.000000000E+00  0.000000000E+00  1.496096916E+02  1.496096916E+02  0.000000000E+00  0.00000E+00  9.000E+00
       2    -1     0     0   501     0  0.000000000E+00  0.000000000E+00 -1.054178185E+03  1.054178185E+03  0.000000000E+00  0.00000E+00  9.000E+00
      25     1     1     2     0     0 -2.863774394E+01 -1.466033077E+02 -4.140677898E+02  4.575912857E+02  1.250000000E+02  0.00000E+00  9.000E+00
      25     1     1     2     0     0 -8.181629755E+01  2.954366601E+02 -1.609724090E+02  3.681220492E+02  1.250000000E+02  0.00000E+00  9.000E+00
       2     1     1     2   502     0  1.104540415E+02 -1.488333524E+02 -3.295282944E+02  3.780745414E+02  3.814697266E-06  0.00000E+00  9.000E+00
#rwgt            2          13   5.9438747748190995E-004           2      106589           0
</event>
<event>
      5   9999  3.19816E-02  3.17696E+02 -1.00000E+00  1.04790E-01
      21    -1     0     0   502   511  0.000000000E+00  0.000000000E+00  1.498495331E+03  1.498495331E+03  0.000000000E+00  0.00000E+00  9.000E+00
      21    -1     0     0   501   502  0.000000000E+00  0.000000000E+00 -5.399543519E+02  5.399543519E+02  0.000000000E+00  0.00000E+00  9.000E+00
      25     1     1     2     0     0  6.469516838E+02 -3.494640034E+02 -3.082324096E+01  7.464895465E+02  1.250000000E+02  0.00000E+00  9.000E+00
      25     1     1     2     0     0 -3.803183464E+02  1.767280871E+02  2.932553037E+02  5.267812967E+02  1.250000000E+02  0.00000E+00  9.000E+00
      21     1     1     2   501   511 -2.666333374E+02  1.727359163E+02  6.961089166E+02  7.651788399E+02  1.525878906E-05  0.00000E+00  9.000E+00
#rwgt            1           1   3.1196085120016131E-002           2      106638           0
</event>
<event>
      5   9999  3.19816E-02  3.38584E+02 -1.00000E+00  1.03912E-01
      21    -1     0     0   502   501  0.000000000E+00  0.000000000E+00  2.552515818E+02  2.552515818E+02  0.000000000E+00  0.00000E+00  9.000E+00
      21    -1     0     0   512   502  0.000000000E+00  0.000000000E+00 -3.291163362E+03  3.291163362E+03  0.000000000E+00  0.00000E+00  9.000E+00
      25     1     1     2     0     0  3.645626199E+02  2.376331613E+02 -1.080850117E+03  1.171852123E+03  1.250000000E+02  0.00000E+00  9.000E+00
      25     1     1     2     0     0 -6.052970124E+01 -8.862581578E+01  1.617274985E+02  2.308661165E+02  1.250000000E+02  0.00000E+00  9.000E+00
      21     1     1     2   512   501 -3.040329187E+02 -1.490073455E+02 -2.116789161E+03  2.143696704E+03  0.000000000E+00  0.00000E+00  9.000E+00
#rwgt            1           1   2.7240363762650540E-002           2      106683           0
</event>
<event>
      5   9999  3.19816E-02  1.07083E+02 -1.00000E+00  1.22506E-01
      21    -1     0     0   502   501  0.000000000E+00  0.000000000E+00  2.800892550E+02  2.800892550E+02  0.000000000E+00  0.00000E+00  9.000E+00
      21    -1     0     0   511   502  0.000000000E+00  0.000000000E+00 -1.705339688E+03  1.705339688E+03  0.000000000E+00  0.00000E+00  9.000E+00
      25     1     1     2     0     0  7.443339336E+01 -1.774680537E+02 -1.468590855E+03  1.486411565E+03  1.250000000E+02  0.00000E+00  9.000E+00
      25     1     1     2     0     0 -6.848266646E+01  7.055081329E+01  2.324778666E+02  2.816704659E+02  1.250000000E+02  0.00000E+00  9.000E+00
      21     1     1     2   511   501 -5.950726894E+00  1.069172404E+02 -1.891374449E+02  2.173469129E+02  0.000000000E+00  0.00000E+00  9.000E+00
#rwgt            1           1   3.0977997725351290E-002           2      106815           0
</event>
<event>
      5   9999  3.19816E-02  4.79553E+01 -1.00000E+00  1.40118E-01
      21    -1     0     0   512   501  0.000000000E+00  0.000000000E+00  2.891811484E+02  2.891811484E+02  0.000000000E+00  0.00000E+00  9.000E+00
      21    -1     0     0   501   502  0.000000000E+00  0.000000000E+00 -2.399526545E+03  2.399526545E+03  0.000000000E+00  0.00000E+00  9.000E+00
      25     1     1     2     0     0 -9.553545654E+01 -1.358801628E+02  2.378324882E+02  3.158793038E+02  1.250000000E+02  0.00000E+00  9.000E+00
      25     1     1     2     0     0  9.687363837E+01  8.794355232E+01 -2.291291578E+03  2.298425693E+03  1.250000000E+02  0.00000E+00  9.000E+00
      21     1     1     2   512   502 -1.338181825E+00  4.793661050E+01 -5.688630652E+01  7.440269637E+01  1.348699152E-06  0.00000E+00  9.000E+00
#rwgt            1           1   2.7671547039422737E-002           2      106915           0
</event>
<event>
      5   9999  3.19816E-02  3.91648E+02 -1.00000E+00  1.01962E-01
      21    -1     0     0   502   501  0.000000000E+00  0.000000000E+00  8.599564707E+02  8.599564707E+02  0.000000000E+00  0.00000E+00  9.000E+00
       1    -1     0     0   501     0  0.000000000E+00  0.000000000E+00 -1.237778586E+03  1.237778586E+03  0.000000000E+00  0.00000E+00  9.000E+00
      25     1     1     2     0     0 -3.811051044E+02  4.112255914E+02  6.665917565E+02  8.799529291E+02  1.250000000E+02  0.00000E+00  9.000E+00
      25     1     1     2     0     0  7.852384917E+01 -1.625644496E+02 -2.547230527E+02  3.363064506E+02  1.250000000E+02  0.00000E+00  9.000E+00
       1     1     1     2   502     0  3.025812552E+02 -2.486611418E+02 -7.896908193E+02  8.814756772E+02  1.078959322E-05  0.00000E+00  9.000E+00
#rwgt            2          12   7.5562600341573343E-004           2      107150           0
</event>
<event>
      5   9999  3.19816E-02  4.91514E+01 -1.00000E+00  1.39501E-01
      21    -1     0     0   511   501  0.000000000E+00  0.000000000E+00  8.782770394E+02  8.782770394E+02  0.000000000E+00  0.00000E+00  9.000E+00
      21    -1     0     0   501   502  0.000000000E+00  0.000000000E+00 -2.222375906E+02  2.222375906E+02  0.000000000E+00  0.00000E+00  9.000E+00
      25     1     1     2     0     0  2.552429735E+01 -3.734043126E+02  3.274641712E+02  5.127768071E+02  1.250000000E+02  0.00000E+00  9.000E+00
      25     1     1     2     0     0 -6.025764934E+01  3.386271656E+02  1.383014466E+02  3.912181383E+02  1.250000000E+02  0.00000E+00  9.000E+00
      21     1     1     2   511   502  3.473335199E+01  3.477714707E+01  1.902738309E+02  1.965196846E+02  0.000000000E+00  0.00000E+00  9.000E+00
#rwgt            1           1   1.6674955252520378E-002           2      107184           0
</event>
<event>
      5   9999  3.19816E-02  1.56790E+01 -1.00000E+00  1.75591E-01
      21    -1     0     0   502   512  0.000000000E+00  0.000000000E+00  5.526057693E+02  5.526057693E+02  0.000000000E+00  0.00000E+00  9.000E+00
      21    -1     0     0   501   502  0.000000000E+00  0.000000000E+00 -1.831145324E+02  1.831145324E+02  0.000000000E+00  0.00000E+00  9.000E+00
      25     1     1     2     0     0 -2.046219175E+02 -1.828908163E+02  2.121935100E+02  3.687414616E+02  1.250000000E+02  0.00000E+00  9.000E+00
      25     1     1     2     0     0  2.120693819E+02  1.966881091E+02  1.440861031E+02  3.464757425E+02  1.250000000E+02  0.00000E+00  9.000E+00
      21     1     1     2   501   512 -7.447464412E+00 -1.379729280E+01  1.321162366E+01  2.050309768E+01  3.371747881E-07  0.00000E+00  9.000E+00
#rwgt            1           1   2.8187151663849930E-002           2      107326           0
</event>
<event>
      5   9999  3.19816E-02  2.50439E+02 -1.00000E+00  1.08204E-01
      21    -1     0     0   502   511  0.000000000E+00  0.000000000E+00  1.590180155E+03  1.590180155E+03  0.000000000E+00  0.00000E+00  9.000E+00
      21    -1     0     0   501   502  0.000000000E+00  0.000000000E+00 -4.870248060E+02  4.870248060E+02  0.000000000E+00  0.00000E+00  9.000E+00
      25     1     1     2     0     0 -1.331908073E+02 -5.499242875E+02  2.615921334E+02  6.357766568E+02  1.250000000E+02  0.00000E+00  9.000E+00
      25     1     1     2     0     0  1.823672367E+01  7.724216941E+02  2.882454521E+02  8.340733135E+02  1.250000000E+02  0.00000E+00  9.000E+00
      21     1     1     2   501   511  1.149540836E+02 -2.224974066E+02  5.533177640E+02  6.073549911E+02  1.078959322E-05  0.00000E+00  9.000E+00
#rwgt            1           1   3.5092454520717450E-002           2      107540           0
</event>
<event>
      5   9999  3.19816E-02  7.45675E+00 -1.00000E+00  2.11745E-01
      21    -1     0     0   502   501  0.000000000E+00  0.000000000E+00  3.857297266E+02  3.857297266E+02  0.000000000E+00  0.00000E+00  9.000E+00
      21    -1     0     0   501   512  0.000000000E+00  0.000000000E+00 -1.247936561E+03  1.247936561E+03  0.000000000E+00  0.00000E+00  9.000E+00
      25     1     1     2     0     0 -1.634826636E+02  1.503048288E+02  2.553906482E+02  3.607873419E+02  1.250000000E+02  0.00000E+00  9.000E+00
      25     1     1     2     0     0  1.685767773E+02 -1.448593610E+02 -1.317968737E+02  2.870501354E+02  1.250000000E+02  0.00000E+00  9.000E+00
      21     1     1     2   502   512 -5.094113624E+00 -5.445467810E+00 -9.858006093E+02  9.858288109E+02  1.525878906E-05  0.00000E+00  9.000E+00
#rwgt            1           1   3.0374663688969933E-002           2      107584           0
</event>
<event>
      5   9999  3.19816E-02  1.08166E+02 -1.00000E+00  1.22314E-01
       2    -1     0     0   502     0  0.000000000E+00  0.000000000E+00  1.427781211E+03  1.427781211E+03  0.000000000E+00  0.00000E+00  9.000E+00
      21    -1     0     0   501   502  0.000000000E+00  0.000000000E+00 -1.419255919E+02  1.419255919E+02  0.000000000E+00  0.00000E+00  9.000E+00
      25     1     1     2     0     0 -1.378797531E+02  9.527724655E+01 -2.385129000E+01  2.104339898E+02  1.250000000E+02  0.00000E+00  9.000E+00
      25     1     1     2     0     0  2.111976703E+02 -1.575157108E+01  1.040089616E+03  1.068767504E+03  1.250000000E+02  0.00000E+00  9.000E+00
       2     1     1     2   501     0 -7.331791716E+01 -7.952567547E+01  2.696172931E+02  2.905053093E+02  3.814697266E-06  0.00000E+00  9.000E+00
#rwgt            1           1   2.7402719226937433E-002           2      107865           0
</event>
<event>
      5   9999  3.19816E-02  1.19492E+02 -1.00000E+00  1.20447E-01
      21    -1     0     0   511   501  0.000000000E+00  0.000000000E+00  1.581541479E+03  1.581541479E+03  0.000000000E+00  0.00000E+00  9.000E+00
      21    -1     0     0   501   502  0.000000000E+00  0.000000000E+00 -2.976541154E+02  2.976541154E+02  0.000000000E+00  0.00000E+00  9.000E+00
      25     1     1     2     0     0  2.940904566E+02 -2.965703048E+02  9.060344554E+01  4.452831983E+02  1.250000000E+02  0.00000E+00  9.000E+00
      25     1     1     2     0     0 -1.975844669E+02  3.670324988E+02  2.904388069E+02  5.231942061E+02  1.250000000E+02  0.00000E+00  9.000E+00
      21     1     1     2   511   502 -9.650598970E+01 -7.046219400E+01  9.028451112E+02  9.107181900E+02  1.078959322E-05  0.00000E+00  9.000E+00
#rwgt            1           1   2.7877824934945578E-002           2      107918           0
</event>
<event>
      5   9999  3.19816E-02  5.02925E+01 -1.00000E+00  1.38931E-01
      21    -1     0     0   502   512  0.000000000E+00  0.000000000E+00  1.978734871E+02  1.978734871E+02  0.000000000E+00  0.00000E+00  9.000E+00
      21    -1     0     0   501   502  0.000000000E+00  0.000000000E+00 -1.604544730E+03  1.604544730E+03  0.000000000E+00  0.00000E+00  9.000E+00
      25     1     1     2     0     0 -6.025475185E+01  1.105559108E+02 -1.526347114E+03  1.536624143E+03  1.250000000E+02  0.00000E+00  9.000E+00
      25     1     1     2     0     0  1.463900789E+01 -1.317346744E+02  1.146235699E+02  2.152484327E+02  1.250000000E+02  0.00000E+00  9.000E+00
      21     1     1     2   501   512  4.561574395E+01  2.117876361E+01  5.052301238E+00  5.054564148E+01  5.462855929E-07  0.00000E+00  9.000E+00
#rwgt            1           1   2.4603614510499423E-002           2      107972           0
</event>
<event>
      5   9999  3.19816E-02  3.26099E+01 -1.00000E+00  1.50565E-01
      21    -1     0     0   502   501  0.000000000E+00  0.000000000E+00  2.866726155E+03  2.866726155E+03  0.000000000E+00  0.00000E+00  9.000E+00
      21    -1     0     0   501   511  0.000000000E+00  0.000000000E+00 -3.505151021E+02  3.505151021E+02  0.000000000E+00  0.00000E+00  9.000E+00
      25     1     1     2     0     0 -3.708552916E+02  8.869921909E+01 -2.081508474E+02  4.520541716E+02  1.250000000E+02  0.00000E+00  9.000E+00
      25     1     1     2     0     0  3.529266249E+02 -6.146010211E+01  2.694140709E+03  2.720726687E+03  1.250000000E+02  0.00000E+00  9.000E+00
      21     1     1     2   502   511  1.792866668E+01 -2.723911698E+01  3.022119070E+01  4.446039755E+01  3.371747881E-07  0.00000E+00  9.000E+00
#rwgt            1           1   3.7291724520949157E-002           2      108051           0
</event>
<event>
      5   9999  3.19816E-02  1.18736E+01 -1.00000E+00  1.87513E-01
       4    -1     0     0   502     0  0.000000000E+00  0.000000000E+00  8.205525046E+02  8.205525046E+02  0.000000000E+00  0.00000E+00  9.000E+00
      21    -1     0     0   501   502  0.000000000E+00  0.000000000E+00 -6.079941549E+02  6.079941549E+02  0.000000000E+00  0.00000E+00  9.000E+00
      25     1     1     2     0     0  3.399077860E+02 -1.642471159E+01 -2.310445945E+02  4.298996148E+02  1.250000000E+02  0.00000E+00  9.000E+00
      25     1     1     2     0     0 -3.360475619E+02  5.196107443E+00 -1.616109091E+02  3.933167290E+02  1.250000000E+02  0.00000E+00  9.000E+00
       4     1     1     2   501     0 -3.860224177E+00  1.122860415E+01  6.052138534E+02  6.053303158E+02  7.629394531E-06  0.00000E+00  9.000E+00
#rwgt            1           1   3.0369437495929519E-002           2      108192           0
</event>
<event>
      5   9999  3.19816E-02  8.55866E+00 -1.00000E+00  2.03910E-01
      21    -1     0     0   511   501  0.000000000E+00  0.000000000E+00  6.513689357E+02  6.513689357E+02  0.000000000E+00  0.00000E+00  9.000E+00
      21    -1     0     0   501   502  0.000000000E+00  0.000000000E+00 -9.441173138E+02  9.441173138E+02  0.000000000E+00  0.00000E+00  9.000E+00
      25     1     1     2     0     0  1.873557636E+02  6.235691246E+02 -5.455844418E+02  8.586198335E+02  1.250000000E+02  0.00000E+00  9.000E+00
      25     1     1     2     0     0 -1.888198151E+02 -6.320016377E+02  2.254734149E+02  7.081964794E+02  1.250000000E+02  0.00000E+00  9.000E+00
      21     1     1     2   511   502  1.464051491E+00  8.432513064E+00  2.736264878E+01  2.866993672E+01  4.768371582E-07  0.00000E+00  9.000E+00
#rwgt            1           1   2.8885135498944604E-002           2      108385           0
</event>
<event>
      5   9999  3.19816E-02  4.65495E+01 -1.00000E+00  1.40871E-01
      21    -1     0     0   502   501  0.000000000E+00  0.000000000E+00  1.307993990E+02  1.307993990E+02  0.000000000E+00  0.00000E+00  9.000E+00
      21    -1     0     0   501   512  0.000000000E+00  0.000000000E+00 -1.196883516E+03  1.196883516E+03  0.000000000E+00  0.00000E+00  9.000E+00
      25     1     1     2     0     0 -6.739624517E+01  2.339365168E+02 -2.431179768E+02  3.660599656E+02  1.250000000E+02  0.00000E+00  9.000E+00
      25     1     1     2     0     0  1.123940399E+02 -2.220177797E+02 -2.148404104E+02  3.517182347E+02  1.250000000E+02  0.00000E+00  9.000E+00
      21     1     1     2   502   512 -4.499779476E+01 -1.191873707E+01 -6.081257296E+02  6.099047145E+02  1.078959322E-05  0.00000E+00  9.000E+00
#rwgt            2          11   1.1114250183939733E-003           2      108697           0
</event>
<event>
      5   9999  3.19816E-02  2.88841E+01 -1.00000E+00  1.54192E-01
      21    -1     0     0   502   501  0.000000000E+00  0.000000000E+00  1.033323455E+03  1.033323455E+03  0.000000000E+00  0.00000E+00  9.000E+00
      21    -1     0     0   501   511  0.000000000E+00  0.000000000E+00 -1.200124834E+02  1.200124834E+02  0.000000000E+00  0.00000E+00  9.000E+00
      25     1     1     2     0     0 -1.462104032E+02 -8.183349421E+01  2.171528881E+02  3.014209342E+02  1.250000000E+02  0.00000E+00  9.000E+00
      25     1     1     2     0     0  1.581399703E+02  5.552803488E+01  7.565825119E+02  7.849418514E+02  1.250000000E+02  0.00000E+00  9.000E+00
      21     1     1     2   502   511 -1.192956707E+01  2.630545933E+01 -6.042442792E+01  6.697315321E+01  2.611744678E-06  0.00000E+00  9.000E+00
#rwgt            1           1   3.0288191292769575E-002           2      108717           0
</event>
<event>
      5   9999  3.19816E-02  3.21066E+01 -1.00000E+00  1.51021E-01
      21    -1     0     0   502   501  0.000000000E+00  0.000000000E+00  3.116246024E+02  3.116246024E+02  0.000000000E+00  0.00000E+00  9.000E+00
      21    -1     0     0   512   502  0.000000000E+00  0.000000000E+00 -5.999094323E+02  5.999094323E+02  0.000000000E+00  0.00000E+00  9.000E+00
      25     1     1     2     0     0  1.460537620E+02 -1.799101384E+02 -3.573687203E+02  4.438882309E+02  1.250000000E+02  0.00000E+00  9.000E+00
      25     1     1     2     0     0 -1.781411374E+02  1.810204204E+02  1.910608144E+02  3.415141172E+02  1.250000000E+02  0.00000E+00  9.000E+00
      21     1     1     2   512   501  3.208737536E+01 -1.110281974E+00 -1.219769240E+02  1.261316866E+02  0.000000000E+00  0.00000E+00  9.000E+00
#rwgt            1           1   2.7963042589887643E-002           2      108858           0
</event>
<event>
      5   9999  3.19816E-02  2.04824E+02 -1.00000E+00  1.11273E-01
      21    -1     0     0   502   501  0.000000000E+00  0.000000000E+00  3.397734920E+02  3.397734920E+02  0.000000000E+00  0.00000E+00  9.000E+00
       1    -1     0     0   501     0  0.000000000E+00  0.000000000E+00 -1.359599455E+03  1.359599455E+03  0.000000000E+00  0.00000E+00  9.000E+00
      25     1     1     2     0     0 -1.944503160E+02 -1.976641932E+02 -4.432100013E+01  3.073620174E+02  1.250000000E+02  0.00000E+00  9.000E+00
      25     1     1     2     0     0  1.191053294E+02  7.201385145E+00  1.616061865E+02  2.365998710E+02  1.250000000E+02  0.00000E+00  9.000E+00
       1     1     1     2   502     0  7.534498665E+01  1.904628081E+02 -1.137111150E+03  1.155411059E+03  0.000000000E+00  0.00000E+00  9.000E+00
#rwgt            1           1   3.3138171087198673E-002           2      108989           0
</event>
<event>
      5   9999  3.19816E-02  1.01822E+02 -1.00000E+00  1.23476E-01
      21    -1     0     0   511   501  0.000000000E+00  0.000000000E+00  4.597697390E+02  4.597697390E+02  0.000000000E+00  0.00000E+00  9.000E+00
      21    -1     0     0   501   502  0.000000000E+00  0.000000000E+00 -6.323803043E+02  6.323803043E+02  0.000000000E+00  0.00000E+00  9.000E+00
      25     1     1     2     0     0  2.660880210E+02 -1.571440210E+02  2.055947729E+02  3.916519997E+02  1.250000000E+02  0.00000E+00  9.000E+00
      25     1     1     2     0     0 -3.010600998E+02  6.151605856E+01 -4.619083798E+02  5.686877531E+02  1.250000000E+02  0.00000E+00  9.000E+00
      21     1     1     2   511   502  3.497207878E+01  9.562796245E+01  8.370304164E+01  1.318102905E+02  2.861022949E-06  0.00000E+00  9.000E+00
#rwgt            1           1   3.0323889710785965E-002           2      109070           0
</event>
<event>
      5   9999  3.19816E-02  1.68093E+01 -1.00000E+00  1.72848E-01
      21    -1     0     0   502   512  0.000000000E+00  0.000000000E+00  1.800043064E+02  1.800043064E+02  0.000000000E+00  0.00000E+00  9.000E+00
      21    -1     0     0   501   502  0.000000000E+00  0.000000000E+00 -4.498891448E+02  4.498891448E+02  0.000000000E+00  0.00000E+00  9.000E+00
      25     1     1     2     0     0 -1.419202522E+02 -9.166634912E+00 -3.520541717E+02  3.997405721E+02  1.250000000E+02  0.00000E+00  9.000E+00
      25     1     1     2     0     0  1.536657406E+02 -2.858197744E+00  7.415568081E+01  2.115310713E+02  1.250000000E+02  0.00000E+00  9.000E+00
      21     1     1     2   501   512 -1.174548845E+01  1.202483266E+01  8.013652483E+00  1.862180779E+01  3.953724850E-07  0.00000E+00  9.000E+00
#rwgt            1           1   3.1342696091756751E-002           2      109136           0
</event>
<event>
      5   9999  3.19816E-02  2.00900E+01 -1.00000E+00  1.66208E-01
      21    -1     0     0   511   501  0.000000000E+00  0.000000000E+00  5.199760181E+02  5.199760181E+02  0.000000000E+00  0.00000E+00  9.000E+00
      21    -1     0     0   501   502  0.000000000E+00  0.000000000E+00 -1.767629417E+02  1.767629417E+02  0.000000000E+00  0.00000E+00  9.000E+00
      25     1     1     2     0     0 -2.244605217E+02  4.589965647E+01  2.179146913E+01  2.618953463E+02  1.250000000E+02  0.00000E+00  9.000E+00
      25     1     1     2     0     0  2.393468313E+02 -3.240867895E+01  2.901953094E+02  3.977128936E+02  1.250000000E+02  0.00000E+00  9.000E+00
      21     1     1     2   511   502 -1.488630954E+01 -1.349097752E+01  3.122629784E+01  3.713071994E+01  4.768371582E-07  0.00000E+00  9.000E+00
#rwgt            1           1   2.7916035030613674E-002           2      109266           0
</event>
<event>
      5   9999  3.19816E-02  1.07047E+02 -1.00000E+00  1.22512E-01
      21    -1     0     0   512   501  0.000000000E+00  0.000000000E+00  1.504676236E+03  1.504676236E+03  0.000000000E+00  0.00000E+00  9.000E+00
      21    -1     0     0   501   502  0.000000000E+00  0.000000000E+00 -8.505432652E+01  8.505432652E+01  0.000000000E+00  0.00000E+00  9.000E+00
      25     1     1     2     0     0 -2.030660610E+01  4.285985006E+01  7.969037483E+02  8.080407843E+02  1.250000000E+02  0.00000E+00  9.000E+00
      25     1     1     2     0     0  8.202753430E+01  4.460235495E+01  6.409543469E+00  1.561536701E+02  1.250000000E+02  0.00000E+00  9.000E+00
      21     1     1     2   512   502 -6.172092819E+01 -8.746220501E+01  6.163086179E+02  6.255361082E+02  1.321449896E-05  0.00000E+00  9.000E+00
#rwgt            1           1   3.1626833537490608E-002           2      109453           0
</event>
<event>
      5   9999  3.19816E-02  4.75290E+01 -1.00000E+00  1.40343E-01
      21    -1     0     0   502   501  0.000000000E+00  0.000000000E+00  1.261310176E+03  1.261310176E+03  0.000000000E+00  0.00000E+00  9.000E+00
      21    -1     0     0   511   502  0.000000000E+00  0.000000000E+00 -5.228372321E+02  5.228372321E+02  0.000000000E+00  0.00000E+00  9.000E+00
      25     1     1     2     0     0  8.920336943E+01 -1.396046093E+01  1.191508136E+03  1.201444453E+03  1.250000000E+02  0.00000E+00  9.000E+00
      25     1     1     2     0     0 -4.256995965E+01  4.777204895E+00 -5.080669758E+00  1.322340212E+02  1.250000000E+02  0.00000E+00  9.000E+00
      21     1     1     2   511   501 -4.663340978E+01  9.183256033E+00 -4.479545219E+02  4.504689344E+02  0.000000000E+00  0.00000E+00  9.000E+00
#rwgt            1           1   2.9139958663437149E-002           2      109519           0
</event>
<event>
      5   9999  3.19816E-02  1.41795E+02 -1.00000E+00  1.17370E-01
      21    -1     0     0   502   501  0.000000000E+00  0.000000000E+00  1.039288371E+03  1.039288371E+03  0.000000000E+00  0.00000E+00  9.000E+00
      21    -1     0     0   501   512  0.000000000E+00  0.000000000E+00 -2.450868100E+02  2.450868100E+02  0.000000000E+00  0.00000E+00  9.000E+00
      25     1     1     2     0     0 -2.345313819E+02 -2.538722714E+02  9.580539270E+01  3.798154454E+02  1.250000000E+02  0.00000E+00  9.000E+00
      25     1     1     2     0     0  1.641869517E+02  1.307565432E+02  7.207389124E+02  7.610152485E+02  1.250000000E+02  0.00000E+00  9.000E+00
      21     1     1     2   502   512  7.034443023E+01  1.231157283E+02 -2.234274444E+01  1.435444866E+02  5.331201500E-07  0.00000E+00  9.000E+00
#rwgt            1           1   2.7996245179917261E-002           2      109631           0
</event>
<event>
      5   9999  3.19816E-02  1.10972E+02 -1.00000E+00  1.21828E-01
      21    -1     0     0   502   511  0.000000000E+00  0.000000000E+00  9.670180119E+02  9.670180119E+02  0.000000000E+00  0.00000E+00  9.000E+00
      21    -1     0     0   501   502  0.000000000E+00  0.000000000E+00 -1.733649344E+02  1.733649344E+02  0.000000000E+00  0.00000E+00  9.000E+00
      25     1     1     2     0     0 -1.553406722E+02  6.254182873E+01 -3.694979547E+01  2.122086053E+02  1.250000000E+02  0.00000E+00  9.000E+00
      25     1     1     2     0     0  2.655050875E+02 -7.590527532E+01  6.194831221E+02  6.896657893E+02  1.250000000E+02  0.00000E+00  9.000E+00
      21     1     1     2   501   511 -1.101644153E+02  1.336344659E+01  2.111197508E+02  2.385085518E+02  3.814697266E-06  0.00000E+00  9.000E+00
#rwgt            1           1   2.1842235538236755E-002           2      109742           0
</event>
<event>
      5   9999  3.19816E-02  5.07463E+01 -1.00000E+00  1.38709E-01
      21    -1     0     0   502   501  0.000000000E+00  0.000000000E+00  2.603023587E+02  2.603023587E+02  0.000000000E+00  0.00000E+00  9.000E+00
      21    -1     0     0   501   512  0.000000000E+00  0.000000000E+00 -6.379313358E+02  6.379313358E+02  0.000000000E+00  0.00000E+00  9.000E+00
      25     1     1     2     0     0 -1.713748773E+02  2.086927219E+02 -3.864713836E+02  4.877572461E+02  1.250000000E+02  0.00000E+00  9.000E+00
      25     1     1     2     0     0  1.977330945E+02 -2.520566113E+02  4.686987314E+01  3.470629582E+02  1.250000000E+02  0.00000E+00  9.000E+00
      21     1     1     2   502   512 -2.635821723E+01  4.336388939E+01 -3.802746657E+01  6.341349014E+01  0.000000000E+00  0.00000E+00  9.000E+00
#rwgt            1           1   2.9484056198313742E-002           2      109808           0
</event>
<event>
      5   9999  3.19816E-02  6.69086E+01 -1.00000E+00  1.32222E-01
      21    -1     0     0   502   501  0.000000000E+00  0.000000000E+00  6.676164398E+02  6.676164398E+02  0.000000000E+00  0.00000E+00  9.000E+00
      21    -1     0     0   501   511  0.000000000E+00  0.000000000E+00 -1.838032952E+03  1.838032952E+03  0.000000000E+00  0.00000E+00  9.000E+00
      25     1     1     2     0     0 -8.768783682E+02 -2.147246233E+02  3.159838278E+01  9.119461575E+02  1.250000000E+02  0.00000E+00  9.000E+00
      25     1     1     2     0     0  9.428091007E+02  2.261221556E+02 -1.098991139E+03  1.470859189E+03  1.250000000E+02  0.00000E+00  9.000E+00
      21     1     1     2   502   511 -6.593073247E+01 -1.139753228E+01 -1.030237562E+02  1.228440457E+02  1.348699152E-06  0.00000E+00  9.000E+00
#rwgt            1           1   1.8995671268202587E-002           2      109888           0
</event>
<event>
      5   9999  3.19816E-02  2.19617E+02 -1.00000E+00  1.10188E-01
      21    -1     0     0   502   501  0.000000000E+00  0.000000000E+00  4.102116305E+02  4.102116305E+02  0.000000000E+00  0.00000E+00  9.000E+00
      21    -1     0     0   512   502  0.000000000E+00  0.000000000E+00 -1.178073817E+03  1.178073817E+03  0.000000000E+00  0.00000E+00  9.000E+00
      25     1     1     2     0     0 -5.160604056E+01  2.632088931E+02  1.592654534E+02  3.360544442E+02  1.250000000E+02  0.00000E+00  9.000E+00
      25     1     1     2     0     0 -1.580686151E+02 -1.978763546E+02  1.695873931E+01  2.829369852E+02  1.250000000E+02  0.00000E+00  9.000E+00
      21     1     1     2   512   501  2.096746556E+02 -6.533253849E+01 -9.440863789E+02  9.692940176E+02  1.525878906E-05  0.00000E+00  9.000E+00
#rwgt            2          11   3.6331285994344003E-003           2      110211           0
</event>
<event>
      5   9999  3.19816E-02  4.01624E+01 -1.00000E+00  1.44731E-01
      21    -1     0     0   511   501  0.000000000E+00  0.000000000E+00  7.144657398E+02  7.144657398E+02  0.000000000E+00  0.00000E+00  9.000E+00
      21    -1     0     0   501   502  0.000000000E+00  0.000000000E+00 -1.021399422E+02  1.021399422E+02  0.000000000E+00  0.00000E+00  9.000E+00
      25     1     1     2     0     0 -3.315649673E+01  6.722960083E+01  4.987469115E+02  5.196081738E+02  1.250000000E+02  0.00000E+00  9.000E+00
      25     1     1     2     0     0  1.432449575E+00 -9.185892153E+01 -2.100851389E+01  1.565454280E+02  1.250000000E+02  0.00000E+00  9.000E+00
      21     1     1     2   511   502  3.172404716E+01  2.462932070E+01  1.345873999E+02  1.404520802E+02  0.000000000E+00  0.00000E+00  9.000E+00
#rwgt            1           1   2.9014954468231470E-002           2      110231           0
</event>
<event>
      5   9999  3.19816E-02  7.15711E+02 -1.00000E+00  9.46195E-02
      21    -1     0     0   502   501  0.000000000E+00  0.000000000E+00  2.318177422E+03  2.318177422E+03  0.000000000E+00  0.00000E+00  9.000E+00
      21    -1     0     0   501   512  0.000000000E+00  0.000000000E+00 -1.088652306E+03  1.088652306E+03  0.000000000E+00  0.00000E+00  9.000E+00
      25     1     1     2     0     0 -7.789897888E+02  2.335840857E+02 -1.197985917E+02  8.314826028E+02  1.250000000E+02  0.00000E+00  9.000E+00
      25     1     1     2     0     0  7.851900943E+02  4.821000362E+02  1.571474349E+03  1.825951960E+03  1.250000000E+02  0.00000E+00  9.000E+00
      21     1     1     2   502   512 -6.200305512E+00 -7.156841219E+02 -2.221506409E+02  7.493951650E+02  6.607249480E-06  0.00000E+00  9.000E+00
#rwgt            2          11   1.7489982894150690E-003           2      110359           0
</event>
<event>
      5   9999  3.19816E-02  1.39419E+01 -1.00000E+00  1.80430E-01
      21    -1     0     0   511   501  0.000000000E+00  0.000000000E+00  1.651463114E+02  1.651463114E+02  0.000000000E+00  0.00000E+00  9.000E+00
      21    -1     0     0   501   502  0.000000000E+00  0.000000000E+00 -6.076299243E+02  6.076299243E+02  0.000000000E+00  0.00000E+00  9.000E+00
      25     1     1     2     0     0  9.210146029E+01  2.321125816E+02 -3.553661126E+02  4.519612854E+02  1.250000000E+02  0.00000E+00  9.000E+00
      25     1     1     2     0     0 -1.054985996E+02 -2.359716038E+02 -9.772689718E+01  3.032953985E+02  1.250000000E+02  0.00000E+00  9.000E+00
      21     1     1     2   511   502  1.339713933E+01  3.859022178E+00  1.060939681E+01  1.751955180E+01  3.153981341E-07  0.00000E+00  9.000E+00
#rwgt            1           1   2.2962915189257856E-002           2      110379           0
</event>
<event>
      5   9999  3.19816E-02  4.22939E+01 -1.00000E+00  1.43354E-01
      21    -1     0     0   502   501  0.000000000E+00  0.000000000E+00  5.622488993E+02  5.622488993E+02  0.000000000E+00  0.00000E+00  9.000E+00
      21    -1     0     0   501   512  0.000000000E+00  0.000000000E+00 -5.634024306E+02  5.634024306E+02  0.000000000E+00  0.00000E+00  9.000E+00
      25     1     1     2     0     0 -8.881362026E+01  2.897707292E+02  4.155840516E+02  5.293298013E+02  1.250000000E+02  0.00000E+00  9.000E+00
      25     1     1     2     0     0  8.500534223E+01 -2.476486455E+02 -1.506985375E+02  3.269415988E+02  1.250000000E+02  0.00000E+00  9.000E+00
      21     1     1     2   502   512  3.808278030E+00 -4.212208367E+01 -2.660390454E+02  2.693799298E+02  3.814697266E-06  0.00000E+00  9.000E+00
#rwgt            1           1   2.9917331430989427E-002           2      110509           0
</event>
<event>
      5   9999  3.19816E-02  5.23597E+01 -1.00000E+00  1.37942E-01
      21    -1     0     0   502   511  0.000000000E+00  0.000000000E+00  7.735069743E+02  7.735069743E+02  0.000000000E+00  0.00000E+00  9.000E+00
      21    -1     0     0   501   502  0.000000000E+00  0.000000000E+00 -2.555683867E+02  2.555683867E+02  0.000000000E+00  0.00000E+00  9.000E+00
      25     1     1     2     0     0  1.875619498E+02 -1.830177253E+01 -1.648024073E+02  2.798200732E+02  1.250000000E+02  0.00000E+00  9.000E+00
      25     1     1     2     0     0 -1.987205402E+02 -3.285510667E+01  6.371823656E+02  6.798497468E+02  1.250000000E+02  0.00000E+00  9.000E+00
      21     1     1     2   501   511  1.115859044E+01  5.115687920E+01  4.555862929E+01  6.940554108E+01  6.743495762E-07  0.00000E+00  9.000E+00
#rwgt            1           1   2.3654358556503479E-002           2      110657           0
</event>
<event>
      5   9999  3.19816E-02  6.67699E+01 -1.00000E+00  1.32268E-01
      21    -1     0     0   502   512  0.000000000E+00  0.000000000E+00  1.481494343E+03  1.481494343E+03  0.000000000E+00  0.00000E+00  9.000E+00
      21    -1     0     0   501   502  0.000000000E+00  0.000000000E+00 -1.752372169E+02  1.752372169E+02  0.000000000E+00  0.00000E+00  9.000E+00
      25     1     1     2     0     0  2.218859605E+02 -1.676590024E+02  5.155961850E+02  5.990052975E+02  1.250000000E+02  0.00000E+00  9.000E+00
      25     1     1     2     0     0 -2.872079246E+02  1.814884688E+02  1.165396904E+02  3.803063972E+02  1.250000000E+02  0.00000E+00  9.000E+00
      21     1     1     2   501   512  6.532196417E+01 -1.382946648E+01  6.741212507E+02  6.774198652E+02  0.000000000E+00  0.00000E+00  9.000E+00
#rwgt            1           1   3.4002012358743193E-002           2      110778           0
</event>
<event>
      5   9999  3.19816E-02  7.28423E+01 -1.00000E+00  1.30351E-01
      21    -1     0     0   502   501  0.000000000E+00  0.000000000E+00  1.002236593E+03  1.002236593E+03  0.000000000E+00  0.00000E+00  9.000E+00
      21    -1     0     0   501   511  0.000000000E+00  0.000000000E+00 -4.255513750E+02  4.255513750E+02  0.000000000E+00  0.00000E+00  9.000E+00
      25     1     1     2     0     0 -4.247301408E+02 -1.326265281E+02  7.743168427E+02  9.017633068E+02  1.250000000E+02  0.00000E+00  9.000E+00
      25     1     1     2     0     0  3.566614197E+02  1.585618970E+02 -1.930539512E+02  4.530387086E+02  1.250000000E+02  0.00000E+00  9.000E+00
      21     1     1     2   502   511  6.806872115E+01 -2.593536887E+01 -4.577673701E+00  7.298595244E+01  1.203954809E-06  0.00000E+00  9.000E+00
#rwgt            1           1   3.0604498253219585E-002           2      110881           0
</event>
<event>
      5   9999  3.19816E-02  2.20815E+02 -1.00000E+00  1.10105E-01
      21    -1     0     0   502   501  0.000000000E+00  0.000000000E+00  3.990618540E+02  3.990618540E+02  0.000000000E+00  0.00000E+00  9.000E+00
      21    -1     0     0   512   502  0.000000000E+00  0.000000000E+00 -9.801442260E+02  9.801442260E+02  0.000000000E+00  0.00000E+00  9.000E+00
      25     1     1     2     0     0  2.954358843E+02  4.190779201E+02 -4.360806350E+02  6.846166701E+02  1.250000000E+02  0.00000E+00  9.000E+00
      25     1     1     2     0     0 -2.395849929E+02 -2.054424088E+02  1.104053658E+02  3.569620385E+02  1.250000000E+02  0.00000E+00  9.000E+00
      21     1     1     2   512   501 -5.585089139E+01 -2.136355113E+02 -2.554071028E+02  3.376273713E+02  6.031565972E-06  0.00000E+00  9.000E+00
#rwgt            1           1   2.6405586906323626E-002           2      110933           0
</event>
<event>
      5   9999  3.19816E-02  3.02489E+01 -1.00000E+00  1.52791E-01
      21    -1     0     0   502   501  0.000000000E+00  0.000000000E+00  1.036506947E+03  1.036506947E+03  0.000000000E+00  0.00000E+00  9.000E+00
      21    -1     0     0   501   511  0.000000000E+00  0.000000000E+00 -1.022232768E+02  1.022232768E+02  0.000000000E+00  0.00000E+00  9.000E+00
      25     1     1     2     0     0 -6.306358186E+01  2.807613035E+02  5.042288007E+02  5.938649748E+02  1.250000000E+02  0.00000E+00  9.000E+00
      25     1     1     2     0     0  8.713007339E+01 -2.624364281E+02  4.013771610E+02  5.031830222E+02  1.250000000E+02  0.00000E+00  9.000E+00
      21     1     1     2   502   511 -2.406649153E+01 -1.832487545E+01  2.867770883E+01  4.168222713E+01  8.920806376E-07  0.00000E+00  9.000E+00
#rwgt            1           1   3.2110784767487473E-002           2      110991           0
</event>
<event>
      5   9999  3.26331E-02  7.62393E+01 -1.00000E+00  1.29370E-01
      21    -1     0     0   502   501  0.000000000E+00  0.000000000E+00  5.283848973E+02  5.283848973E+02  0.000000000E+00  0.00000E+00  9.000E+00
       2    -1     0     0   501     0  0.000000000E+00  0.000000000E+00 -1.480201754E+03  1.480201754E+03  0.000000000E+00  0.00000E+00  9.000E+00
      25     1     1     2     0     0 -1.814462455E+02 -7.589528183E+02 -5.530089636E+02  9.645600210E+02  1.250000000E+02  0.00000E+00  9.000E+00
      25     1     1     2     0     0  2.524158355E+02  7.311005088E+02 -4.908244890E+02  9.245298194E+02  1.250000000E+02  0.00000E+00  9.000E+00
       2     1     1     2   502     0 -7.096958998E+01  2.785230948E+01  9.201659594E+01  1.194968107E+02  1.907348633E-06  0.00000E+00  9.000E+00
#rwgt            1           1   3.3871667282500101E-002           2      111118           0
</event>
<event>
      5   9999  3.19816E-02  3.36237E+01 -1.00000E+00  1.49678E-01
      21    -1     0     0   502   501  0.000000000E+00  0.000000000E+00  8.191320296E+02  8.191320296E+02  0.000000000E+00  0.00000E+00  9.000E+00
      21    -1     0     0   501   511  0.000000000E+00  0.000000000E+00 -1.455601740E+02  1.455601740E+02  0.000000000E+00  0.00000E+00  9.000E+00
      25     1     1     2     0     0 -2.611340579E+02  1.484438427E+02  3.311180297E+02  4.642097804E+02  1.250000000E+02  0.00000E+00  9.000E+00
      25     1     1     2     0     0  2.393457487E+02 -1.740528339E+02  3.384167506E+02  4.666172666E+02  1.250000000E+02  0.00000E+00  9.000E+00
      21     1     1     2   502   511  2.178830919E+01  2.560899127E+01  4.037075347E+00  3.386515656E+01  1.032382731E-07  0.00000E+00  9.000E+00
#rwgt            1           1   2.8309961001344794E-002           2      111251           0
</event>
<event>
      5   9999  3.19816E-02  1.48988E+01 -1.00000E+00  1.77661E-01
      21    -1     0     0   502   501  0.000000000E+00  0.000000000E+00  1.726244009E+03  1.726244009E+03  0.000000000E+00  0.00000E+00  9.000E+00
      21    -1     0     0   512   502  0.000000000E+00  0.000000000E+00 -1.093842688E+02  1.093842688E+02  0.000000000E+00  0.00000E+00  9.000E+00
      25     1     1     2     0     0  7.011603687E+01 -6.832094974E+01  1.621157557E+03  1.628914005E+03  1.250000000E+02  0.00000E+00  9.000E+00
      25     1     1     2     0     0 -6.022496143E+01  7.946274368E+01  3.587298638E+01  1.638695968E+02  1.250000000E+02  0.00000E+00  9.000E+00
      21     1     1     2   512   501 -9.891075440E+00 -1.114179394E+01 -4.017080249E+01  4.284467666E+01  6.743495762E-07  0.00000E+00  9.000E+00
#rwgt            1           1   3.7336484039777726E-002           2      111472           0
</event>
<event>
      5   9999  3.19816E-02  1.30371E+02 -1.00000E+00  1.18860E-01
      21    -1     0     0   511   501  0.000000000E+00  0.000000000E+00  2.223511272E+03  2.223511272E+03  0.000000000E+00  0.00000E+00  9.000E+00
      21    -1     0     0   501   502  0.000000000E+00  0.000000000E+00 -5.084455146E+01  5.084455146E+01  0.000000000E+00  0.00000E+00  9.000E+00
      25     1     1     2     0     0 -9.429653151E+01  1.349718336E+02  1.039730706E+03  1.060082154E+03  1.250000000E+02  0.00000E+00  9.000E+00
      25     1     1     2     0     0 -6.434074562E+00 -5.220752137E+01  8.896477163E+01  1.621935671E+02  1.250000000E+02  0.00000E+00  9.000E+00
      21     1     1     2   511   502  1.007306061E+02 -8.276431218E+01  1.043971243E+03  1.052080103E+03  1.525878906E-05  0.00000E+00  9.000E+00
#rwgt            1           1   2.8778898462651595E-002           2      111683           0
</event>
<event>
      5   9999  3.19816E-02  7.40960E+02 -1.00000E+00  9.42298E-02
      21    -1     0     0   502   501  0.000000000E+00  0.000000000E+00  1.788940960E+03  1.788940960E+03  0.000000000E+00  0.00000E+00  9.000E+00
      21    -1     0     0   501   512  0.000000000E+00  0.000000000E+00 -3.845946362E+02  3.845946362E+02  0.000000000E+00  0.00000E+00  9.000E+00
      25     1     1     2     0     0 -1.609094965E+01  2.062681712E+02  1.102548627E+02  2.656814104E+02  1.250000000E+02  0.00000E+00  9.000E+00
      25     1     1     2     0     0 -1.127114384E+02  5.234112148E+02  9.345152691E+02  1.084254101E+03  1.250000000E+02  0.00000E+00  9.000E+00
      21     1     1     2   502   512  1.288023881E+02 -7.296793860E+02  3.595761923E+02  8.236000847E+02  6.607249480E-06  0.00000E+00  9.000E+00
#rwgt            2          11   3.7898011233399019E-003           2      111805           0
</event>
<event>
      5   9999  3.19816E-02  4.64778E+01 -1.00000E+00  1.40910E-01
      21    -1     0     0   502   501  0.000000000E+00  0.000000000E+00  1.358462925E+03  1.358462925E+03  0.000000000E+00  0.00000E+00  9.000E+00
      21    -1     0     0   511   502  0.000000000E+00  0.000000000E+00 -4.551114425E+03  4.551114425E+03  0.000000000E+00  0.00000E+00  9.000E+00
      25     1     1     2     0     0 -7.903291300E+02 -1.052705616E+02  5.941480305E+01  8.092324411E+02  1.250000000E+02  0.00000E+00  9.000E+00
      25     1     1     2     0     0  7.746140538E+02  6.153013253E+01  7.564085801E+02  1.091600582E+03  1.250000000E+02  0.00000E+00  9.000E+00
      21     1     1     2   511   501  1.571507622E+01  4.374042911E+01 -4.008474884E+03  4.008744327E+03  0.000000000E+00  0.00000E+00  9.000E+00
#rwgt            1           1   2.1679587960763139E-002           2      111840           0
</event>
<event>
      5   9999  3.19816E-02  3.09989E+02 -1.00000E+00  1.05132E-01
       2    -1     0     0   502     0  0.000000000E+00  0.000000000E+00  1.186981442E+03  1.186981442E+03  0.000000000E+00  0.00000E+00  9.000E+00
      21    -1     0     0   501   502  0.000000000E+00  0.000000000E+00 -1.993673843E+02  1.993673843E+02  0.000000000E+00  0.00000E+00  9.000E+00
      25     1     1     2     0     0  1.661368102E+01  4.443693587E+00 -6.521696604E+01  1.420352543E+02  1.250000000E+02  0.00000E+00  9.000E+00
      25     1     1     2     0     0 -1.186749111E+02  2.882622306E+02  6.877623149E+02  7.653893453E+02  1.250000000E+02  0.00000E+00  9.000E+00
       2     1     1     2   501     0  1.020612301E+02 -2.927059242E+02  3.650687089E+02  4.789242267E+02  5.394796609E-06  0.00000E+00  9.000E+00
#rwgt            2          18   7.4564843464127969E-004           2      112018           0
</event>
<event>
      5   9999  3.19816E-02  4.01755E+02 -1.00000E+00  1.01628E-01
      21    -1     0     0   502   501  0.000000000E+00  0.000000000E+00  1.288305782E+03  1.288305782E+03  0.000000000E+00  0.00000E+00  9.000E+00
      21    -1     0     0   501   511  0.000000000E+00  0.000000000E+00 -2.288779554E+02  2.288779554E+02  0.000000000E+00  0.00000E+00  9.000E+00
      25     1     1     2     0     0  2.330682829E+02  2.303028410E+02  8.075431052E+02  8.804039356E+02  1.250000000E+02  0.00000E+00  9.000E+00
      25     1     1     2     0     0 -2.724572116E+01  1.147249659E+02  2.024272911E+01  1.730286543E+02  1.250000000E+02  0.00000E+00  9.000E+00
      21     1     1     2   502   511 -2.058225617E+02 -3.450278069E+02  2.316419926E+02  4.637511479E+02  7.136645101E-06  0.00000E+00  9.000E+00
#rwgt            2          11   3.1983261326041703E-003           2      112052           0
</event>
<event>
      5   9999  3.19816E-02  1.07269E+02 -1.00000E+00  1.22473E-01
      21    -1     0     0   502   501  0.000000000E+00  0.000000000E+00  8.471725269E+02  8.471725269E+02  0.000000000E+00  0.00000E+00  9.000E+00
      21    -1     0     0   512   502  0.000000000E+00  0.000000000E+00 -3.922734117E+02  3.922734117E+02  0.000000000E+00  0.00000E+00  9.000E+00
      25     1     1     2     0     0 -8.655283348E+01 -1.665110191E+02  6.958493932E+01  2.359753721E+02  1.250000000E+02  0.00000E+00  9.000E+00
      25     1     1     2     0     0  7.428939847E+00  9.408176662E+01  6.758518198E+02  6.937631082E+02  1.250000000E+02  0.00000E+00  9.000E+00
      21     1     1     2   512   501  7.912389363E+01  7.242925245E+01 -2.905376440E+02  3.097074583E+02  5.394796609E-06  0.00000E+00  9.000E+00
#rwgt            1           1   2.9613919014112356E-002           2      112087           0
</event>
<event>
      5   9999  3.19816E-02  2.85591E+02 -1.00000E+00  1.06291E-01
       1    -1     0     0   502     0  0.000000000E+00  0.000000000E+00  4.008450453E+03  4.008450453E+03  0.000000000E+00  0.00000E+00  9.000E+00
      21    -1     0     0   501   502  0.000000000E+00  0.000000000E+00 -1.068068856E+02  1.068068856E+02  0.000000000E+00  0.00000E+00  9.000E+00
      25     1     1     2     0     0 -5.030972608E+02 -1.375999890E+02  1.742909572E+03  1.823567764E+03  1.250000000E+02  0.00000E+00  9.000E+00
      25     1     1     2     0     0  2.184004355E+02  1.150132161E+02  2.883281610E+02  3.996059541E+02  1.250000000E+02  0.00000E+00  9.000E+00
       1     1     1     2   501     0  2.846968254E+02  2.258677292E+01  1.870405834E+03  1.892083621E+03  4.315837288E-05  0.00000E+00  9.000E+00
#rwgt            2          17   2.1050415655463392E-004           2      112318           0
</event>
<event>
      5   9999  3.19816E-02  6.63909E+01 -1.00000E+00  1.32396E-01
      21    -1     0     0   502   501  0.000000000E+00  0.000000000E+00  3.983794502E+02  3.983794502E+02  0.000000000E+00  0.00000E+00  9.000E+00
      21    -1     0     0   511   502  0.000000000E+00  0.000000000E+00 -4.208185661E+02  4.208185661E+02  0.000000000E+00  0.00000E+00  9.000E+00
      25     1     1     2     0     0 -8.370831949E+01  2.998955309E+02 -1.071253489E+02  3.522005857E+02  1.250000000E+02  0.00000E+00  9.000E+00
      25     1     1     2     0     0  1.462098058E+02 -2.775055818E+02  1.539126939E+02  3.710805473E+02  1.250000000E+02  0.00000E+00  9.000E+00
      21     1     1     2   511   501 -6.250148629E+01 -2.238994907E+01 -6.922646092E+01  9.591688329E+01  2.132480600E-06  0.00000E+00  9.000E+00
#rwgt            1           1   2.6074021818156108E-002           2      112352           0
</event>
<event>
      5   9999  3.19816E-02  1.62503E+01 -1.00000E+00  1.74170E-01
      21    -1     0     0   512   501  0.000000000E+00  0.000000000E+00  3.582694698E+02  3.582694698E+02  0.000000000E+00  0.00000E+00  9.000E+00
      21    -1     0     0   501   502  0.000000000E+00  0.000000000E+00 -8.775353100E+02  8.775353100E+02  0.000000000E+00  0.00000E+00  9.000E+00
      25     1     1     2     0     0 -3.080940869E+01  3.963188956E+02  1.305374966E+02  4.366725601E+02  1.250000000E+02  0.00000E+00  9.000E+00
      25     1     1     2     0     0  4.383627190E+01 -4.060334182E+02 -6.551120474E+02  7.820367958E+02  1.250000000E+02  0.00000E+00  9.000E+00
      21     1     1     2   512   502 -1.302686320E+01  9.714522537E+00  5.308710536E+00  1.709542397E+01  5.960464478E-08  0.00000E+00  9.000E+00
#rwgt            1           1   2.6415239327079613E-002           2      112460           0
</event>
<event>
      5   9999  3.19816E-02  5.42195E+01 -1.00000E+00  1.37097E-01
      21    -1     0     0   502   501  0.000000000E+00  0.000000000E+00  1.164875187E+03  1.164875187E+03  0.000000000E+00  0.00000E+00  9.000E+00
      -3    -1     0     0     0   502  0.000000000E+00  0.000000000E+00 -3.835609440E+02  3.835609440E+02  0.000000000E+00  0.00000E+00  9.000E+00
      25     1     1     2     0     0  1.025631065E+02  1.618439549E+02  6.956982636E+02  7.323480938E+02  1.250000000E+02  0.00000E+00  9.000E+00
      25     1     1     2     0     0 -1.327583629E+02 -1.168105749E+02  4.225558638E+02  4.748135964E+02  1.250000000E+02  0.00000E+00  9.000E+00
      -3     1     1     2     0   501  3.019525642E+01 -4.503338002E+01 -3.369398839E+02  3.412744412E+02  5.394796609E-06  0.00000E+00  9.000E+00
#rwgt            1           1   2.6177517931449571E-002           2      112736           0
</event>
<event>
      5   9999  3.19816E-02  2.39809E+01 -1.00000E+00  1.60117E-01
      21    -1     0     0   502   511  0.000000000E+00  0.000000000E+00  2.638875669E+02  2.638875669E+02  0.000000000E+00  0.00000E+00  9.000E+00
      21    -1     0     0   501   502  0.000000000E+00  0.000000000E+00 -5.300771615E+02  5.300771615E+02  0.000000000E+00  0.00000E+00  9.000E+00
      25     1     1     2     0     0 -2.062014599E+02 -2.572663659E+02 -1.748547750E+02  3.935787309E+02  1.250000000E+02  0.00000E+00  9.000E+00
      25     1     1     2     0     0  1.991635499E+02  2.801912556E+02 -8.744630137E+01  3.760918969E+02  1.250000000E+02  0.00000E+00  9.000E+00
      21     1     1     2   501   511  7.037910018E+00 -2.292488973E+01 -3.888518255E+00  2.429410054E+01  2.346637211E-07  0.00000E+00  9.000E+00
#rwgt            1           1   2.5819930473164113E-002           2      112861           0
</event>
<event>
      5   9999  3.19816E-02  8.65091E+00 -1.00000E+00  2.03326E-01
      21    -1     0     0   512   501  0.000000000E+00  0.000000000E+00  3.718626215E+01  3.718626215E+01  0.000000000E+00  0.00000E+00  9.000E+00
      21    -1     0     0   501   502  0.000000000E+00  0.000000000E+00 -1.481729790E+03  1.481729790E+03  0.000000000E+00  0.00000E+00  9.000E+00
      25     1     1     2     0     0 -1.711025386E+02 -8.701294952E+01 -6.289675723E+02  6.693822070E+02  1.250000000E+02  0.00000E+00  9.000E+00
      25     1     1     2     0     0  1.636471272E+02  9.140101369E+01 -8.046581810E+02  8.356041621E+02  1.250000000E+02  0.00000E+00  9.000E+00
      21     1     1     2   512   502  7.455411448E+00 -4.388064169E+00 -1.091777467E+01  1.392968308E+01  2.384185791E-07  0.00000E+00  9.000E+00
#rwgt            1           1   3.9678292869107477E-002           2      112968           0
</event>
<event>
      5   9999  3.19816E-02  1.52064E+01 -1.00000E+00  1.76826E-01
      21    -1     0     0   502   501  0.000000000E+00  0.000000000E+00  8.251252953E+01  8.251252953E+01  0.000000000E+00  0.00000E+00  9.000E+00
      21    -1     0     0   501   511  0.000000000E+00  0.000000000E+00 -1.821493205E+03  1.821493205E+03  0.000000000E+00  0.00000E+00  9.000E+00
      25     1     1     2     0     0  1.803960050E+02  1.838378041E+02 -4.305705035E+02  5.170638407E+02  1.250000000E+02  0.00000E+00  9.000E+00
      25     1     1     2     0     0 -1.651947279E+02 -1.834431237E+02 -4.491204733E+02  5.275176559E+02  1.250000000E+02  0.00000E+00  9.000E+00
      21     1     1     2   502   511 -1.520127710E+01 -3.946804303E-01 -8.592896986E+02  8.594242379E+02  1.078959322E-05  0.00000E+00  9.000E+00
#rwgt            1           1   2.8364961078825100E-002           2      113269           0
</event>
<event>
      5   9999  3.19816E-02  2.69094E+02 -1.00000E+00  1.07149E-01
      21    -1     0     0   502   501  0.000000000E+00  0.000000000E+00  4.393424482E+02  4.393424482E+02  0.000000000E+00  0.00000E+00  9.000E+00
      21    -1     0     0   512   502  0.000000000E+00  0.000000000E+00 -6.909446124E+02  6.909446124E+02  0.000000000E+00  0.00000E+00  9.000E+00
      25     1     1     2     0     0 -2.528827336E+02 -3.448826688E+01 -1.055303542E+02  3.031514030E+02  1.250000000E+02  0.00000E+00  9.000E+00
      25     1     1     2     0     0  2.164230896E+02  3.011003786E+02  1.571855421E+02  4.217021298E+02  1.250000000E+02  0.00000E+00  9.000E+00
      21     1     1     2   512   501  3.645964404E+01 -2.666121117E+02 -3.032573521E+02  4.054335276E+02  3.814697266E-06  0.00000E+00  9.000E+00
#rwgt            1           1   2.7799322897985871E-002           2      113475           0
</event>
<event>
      5   9999  3.19816E-02  1.80225E+02 -1.00000E+00  1.13319E-01
      21    -1     0     0   502   501  0.000000000E+00  0.000000000E+00  1.841668446E+02  1.841668446E+02  0.000000000E+00  0.00000E+00  9.000E+00
       2    -1     0     0   501     0  0.000000000E+00  0.000000000E+00 -3.228741628E+03  3.228741628E+03  0.000000000E+00  0.00000E+00  9.000E+00
      25     1     1     2     0     0  1.873761562E+02  2.538546125E+02 -9.221792466E+00  3.395026210E+02  1.250000000E+02  0.00000E+00  9.000E+00
      25     1     1     2     0     0 -2.407226307E+02 -8.170618897E+01 -1.416265386E+03  1.444318500E+03  1.250000000E+02  0.00000E+00  9.000E+00
       2     1     1     2   502     0  5.334647454E+01 -1.721484235E+02 -1.619087605E+03  1.629087352E+03  2.157918644E-05  0.00000E+00  9.000E+00
#rwgt            2          13   1.4126936005623993E-003           2      113635           0
</event>
<event>
      5   9999  3.19816E-02  1.09274E+01 -1.00000E+00  1.91408E-01
      21    -1     0     0   502   501  0.000000000E+00  0.000000000E+00  3.300381465E+02  3.300381465E+02  0.000000000E+00  0.00000E+00  9.000E+00
      21    -1     0     0   511   502  0.000000000E+00  0.000000000E+00 -6.858407091E+02  6.858407091E+02  0.000000000E+00  0.00000E+00  9.000E+00
      25     1     1     2     0     0 -2.607525569E+02  2.304911287E+02 -6.008725248E+01  3.746378708E+02  1.250000000E+02  0.00000E+00  9.000E+00
      25     1     1     2     0     0  2.716782539E+02 -2.303006369E+02 -3.365467788E+01  3.789526281E+02  1.250000000E+02  0.00000E+00  9.000E+00
      21     1     1     2   511   501 -1.092569698E+01 -1.904918582E-01 -2.620606322E+02  2.622883568E+02  3.814697266E-06  0.00000E+00  9.000E+00
#rwgt            1           1   2.8672333579109137E-002           2      113669           0
</event>
<event>
      5   9999  3.19816E-02  1.86128E+02 -1.00000E+00  1.12796E-01
      21    -1     0     0   502   501  0.000000000E+00  0.000000000E+00  5.695447145E+02  5.695447145E+02  0.000000000E+00  0.00000E+00  9.000E+00
      21    -1     0     0   501   512  0.000000000E+00  0.000000000E+00 -3.007410902E+02  3.007410902E+02  0.000000000E+00  0.00000E+00  9.000E+00
      25     1     1     2     0     0 -1.700355861E+01 -1.294079769E+02  1.092758801E+01  1.810523617E+02  1.250000000E+02  0.00000E+00  9.000E+00
      25     1     1     2     0     0 -1.261884307E+02  2.483189624E+02  3.639130361E+02  4.750194996E+02  1.250000000E+02  0.00000E+00  9.000E+00
      21     1     1     2   502   512  1.431919893E+02 -1.189109855E+02 -1.060369997E+02  2.142139435E+02  1.348699152E-06  0.00000E+00  9.000E+00
#rwgt            1           1   2.7128925695083926E-002           2      113950           0
</event>
<event>
      5   9999  3.19816E-02  8.74090E+00 -1.00000E+00  2.02765E-01
      21    -1     0     0   511   501  0.000000000E+00  0.000000000E+00  5.977176643E+02  5.977176643E+02  0.000000000E+00  0.00000E+00  9.000E+00
      21    -1     0     0   501   502  0.000000000E+00  0.000000000E+00 -1.103155868E+02  1.103155868E+02  0.000000000E+00  0.00000E+00  9.000E+00
      25     1     1     2     0     0  9.477212749E+01 -1.688155639E+02  1.287634702E+02  2.639800789E+02  1.250000000E+02  0.00000E+00  9.000E+00
      25     1     1     2     0     0 -1.034048574E+02  1.674447161E+02  2.774703980E+02  3.624156720E+02  1.250000000E+02  0.00000E+00  9.000E+00
      21     1     1     2   511   502  8.632729948E+00  1.370847751E+00  8.116820929E+01  8.163750026E+01  9.536743164E-07  0.00000E+00  9.000E+00
#rwgt            1           1   3.1504022678853459E-002           2      114042           0
</event>
<event>
      5   9999  3.19816E-02  1.01256E+02 -1.00000E+00  1.23585E-01
      21    -1     0     0   502   512  0.000000000E+00  0.000000000E+00  3.047871877E+02  3.047871877E+02  0.000000000E+00  0.00000E+00  9.000E+00
      21    -1     0     0   501   502  0.000000000E+00  0.000000000E+00 -4.804830474E+02  4.804830474E+02  0.000000000E+00  0.00000E+00  9.000E+00
      25     1     1     2     0     0 -1.449685251E+02  1.868640711E-01  1.792772448E+01  1.922558491E+02  1.250000000E+02  0.00000E+00  9.000E+00
      25     1     1     2     0     0  9.218598537E+01 -8.659797974E+01 -3.581262429E+02  3.998460602E+02  1.250000000E+02  0.00000E+00  9.000E+00
      21     1     1     2   501   512  5.278253977E+01  8.641111567E+01  1.645026587E+02  1.931683259E+02  3.303624740E-06  0.00000E+00  9.000E+00
#rwgt            2          11   2.7203952457581829E-003           2      114439           0
</event>
<event>
      5   9999  3.19816E-02  4.31234E+01 -1.00000E+00  1.42844E-01
      21    -1     0     0   502   501  0.000000000E+00  0.000000000E+00  7.006522740E+02  7.006522740E+02  0.000000000E+00  0.00000E+00  9.000E+00
      21    -1     0     0   511   502  0.000000000E+00  0.000000000E+00 -2.760530423E+02  2.760530423E+02  0.000000000E+00  0.00000E+00  9.000E+00
      25     1     1     2     0     0  2.647033144E+02  1.499789233E+02  3.864490190E+02  5.074735130E+02  1.250000000E+02  0.00000E+00  9.000E+00
      25     1     1     2     0     0 -2.917605148E+02 -1.835576915E+02  1.122809833E+02  3.834705247E+02  1.250000000E+02  0.00000E+00  9.000E+00
      21     1     1     2   511   501  2.705720040E+01  3.357876822E+01 -7.413077056E+01  8.576127863E+01  1.907348633E-06  0.00000E+00  9.000E+00
#rwgt            2          11   2.0446630344694585E-003           2      114489           0
</event>
<event>
      5   9999  3.19816E-02  2.99746E+01 -1.00000E+00  1.53065E-01
      21    -1     0     0   512   501  0.000000000E+00  0.000000000E+00  3.807880873E+02  3.807880873E+02  0.000000000E+00  0.00000E+00  9.000E+00
      21    -1     0     0   501   502  0.000000000E+00  0.000000000E+00 -9.078126947E+02  9.078126947E+02  0.000000000E+00  0.00000E+00  9.000E+00
      25     1     1     2     0     0  2.496064609E+02 -1.584581863E+02 -6.102514836E+02  6.895246590E+02  1.250000000E+02  0.00000E+00  9.000E+00
      25     1     1     2     0     0 -2.331745675E+02  1.333889035E+02 -1.716649709E+02  3.424278621E+02  1.250000000E+02  0.00000E+00  9.000E+00
      21     1     1     2   512   502 -1.643189332E+01  2.506928282E+01  2.548918472E+02  2.566482609E+02  0.000000000E+00  0.00000E+00  9.000E+00
#rwgt            1           1   2.7908423752709289E-002           2      114509           0
</event>
<event>
      5   9999  3.19816E-02  2.18816E+02 -1.00000E+00  1.10245E-01
      21    -1     0     0   502   501  0.000000000E+00  0.000000000E+00  3.521623967E+02  3.521623967E+02  0.000000000E+00  0.00000E+00  9.000E+00
       2    -1     0     0   501     0  0.000000000E+00  0.000000000E+00 -5.334771097E+02  5.334771097E+02  0.000000000E+00  0.00000E+00  9.000E+00
      25     1     1     2     0     0 -2.897318635E+01 -1.169817781E+02  1.169274427E+02  2.093351590E+02  1.250000000E+02  0.00000E+00  9.000E+00
      25     1     1     2     0     0 -4.950948881E+01  3.212382554E+02 -6.096660263E+01  3.535351932E+02  1.250000000E+02  0.00000E+00  9.000E+00
       2     1     1     2   502     0  7.848267517E+01 -2.042564773E+02 -2.372755531E+02  3.227691542E+02  6.607249480E-06  0.00000E+00  9.000E+00
#rwgt            1           1   2.5885957514457224E-002           2      114635           0
</event>
<event>
      5   9999  3.19816E-02  6.26346E+01 -1.00000E+00  1.33714E-01
      21    -1     0     0   502   501  0.000000000E+00  0.000000000E+00  1.999577336E+02  1.999577336E+02  0.000000000E+00  0.00000E+00  9.000E+00
       2    -1     0     0   501     0  0.000000000E+00  0.000000000E+00 -2.127908937E+03  2.127908937E+03  0.000000000E+00  0.00000E+00  9.000E+00
      25     1     1     2     0     0  2.096980843E+02 -2.592196296E+02 -1.710872190E+03  1.747534479E+03  1.250000000E+02  0.00000E+00  9.000E+00
      25     1     1     2     0     0 -2.302035919E+02  2.000367036E+02  2.474980665E+01  3.305237200E+02  1.250000000E+02  0.00000E+00  9.000E+00
       2     1     1     2   502     0  2.050550761E+01  5.918292599E+01 -2.418288196E+02  2.498084718E+02  0.000000000E+00  0.00000E+00  9.000E+00
#rwgt            1           1   2.9294642722484731E-002           2      114724           0
</event>
<event>
      5   9999  3.19816E-02  3.35455E+01 -1.00000E+00  1.49745E-01
      21    -1     0     0   502   501  0.000000000E+00  0.000000000E+00  3.172750087E+02  3.172750087E+02  0.000000000E+00  0.00000E+00  9.000E+00
      21    -1     0     0   501   511  0.000000000E+00  0.000000000E+00 -6.123343207E+02  6.123343207E+02  0.000000000E+00  0.00000E+00  9.000E+00
      25     1     1     2     0     0  8.483905282E+01  3.226817772E+01 -5.066786123E+02  5.297047445E+02  1.250000000E+02  0.00000E+00  9.000E+00
      25     1     1     2     0     0 -9.578408085E+01 -5.583982856E-01  2.814062415E+02  3.224738357E+02  1.250000000E+02  0.00000E+00  9.000E+00
      21     1     1     2   502   511  1.094502802E+01 -3.170977944E+01 -6.978694127E+01  7.743074921E+01  9.536743164E-07  0.00000E+00  9.000E+00
#rwgt            1           1   2.8516653890636810E-002           2      114896           0
</event>
<event>
      5   9999  3.19816E-02  6.24214E+01 -1.00000E+00  1.33792E-01
       1    -1     0     0   502     0  0.000000000E+00  0.000000000E+00  1.191212160E+03  1.191212160E+03  0.000000000E+00  0.00000E+00  9.000E+00
      21    -1     0     0   501   502  0.000000000E+00  0.000000000E+00 -6.846751115E+02  6.846751115E+02  0.000000000E+00  0.00000E+00  9.000E+00
      25     1     1     2     0     0  2.631033305E+02 -5.277765653E+02 -3.238155491E+02  6.842901251E+02  1.250000000E+02  0.00000E+00  9.000E+00
      25     1     1     2     0     0 -2.674969975E+02  4.655099860E+02  2.455427254E+02  6.034653434E+02  1.250000000E+02  0.00000E+00  9.000E+00
       1     1     1     2   501     0  4.393667012E+00  6.226657936E+01  5.848098720E+02  5.881318029E+02  1.078959322E-05  0.00000E+00  9.000E+00
#rwgt            1           1   3.1683011582524977E-002           2      115012           0
</event>
<event>
      5   9999  3.19816E-02  4.24149E+01 -1.00000E+00  1.43279E-01
      21    -1     0     0   502   501  0.000000000E+00  0.000000000E+00  1.551684549E+03  1.551684549E+03  0.000000000E+00  0.00000E+00  9.000E+00
      21    -1     0     0   501   511  0.000000000E+00  0.000000000E+00 -6.957393801E+02  6.957393801E+02  0.000000000E+00  0.00000E+00  9.000E+00
      25     1     1     2     0     0  4.675692777E+02  2.082773349E+02 -2.028980396E+02  5.646176513E+02  1.250000000E+02  0.00000E+00  9.000E+00
      25     1     1     2     0     0 -4.617309324E+02 -2.502885396E+02  1.315864121E+03  1.422309105E+03  1.250000000E+02  0.00000E+00  9.000E+00
      21     1     1     2   502   511 -5.838345280E+00  4.201120473E+01 -2.570209121E+02  2.604971725E+02  5.394796609E-06  0.00000E+00  9.000E+00
#rwgt            1           1   3.0538202190552918E-002           2      115136           0
</event>
<event>
      5   9999  3.19816E-02  3.85850E+01 -1.00000E+00  1.45817E-01
      21    -1     0     0   502   501  0.000000000E+00  0.000000000E+00  1.960795278E+02  1.960795278E+02  0.000000000E+00  0.00000E+00  9.000E+00
      21    -1     0     0   512   502  0.000000000E+00  0.000000000E+00 -8.218153356E+02  8.218153356E+02  0.000000000E+00  0.00000E+00  9.000E+00
      25     1     1     2     0     0  1.324570927E+01 -1.743375259E+02 -6.901175477E+02  7.228113526E+02  1.250000000E+02  0.00000E+00  9.000E+00
      25     1     1     2     0     0  2.190709308E+01  1.584290602E+02  1.135441847E+02  2.325875528E+02  1.250000000E+02  0.00000E+00  9.000E+00
      21     1     1     2   512   501 -3.515280236E+01  1.590846569E+01 -4.916244471E+01  6.249595798E+01  0.000000000E+00  0.00000E+00  9.000E+00
#rwgt            1           1   1.6542183573546632E-002           2      115255           0
</event>
<event>
      5   9999  3.19816E-02  9.58980E+00 -1.00000E+00  1.97884E-01
      21    -1     0     0   502   511  0.000000000E+00  0.000000000E+00  8.639602333E+02  8.639602333E+02  0.000000000E+00  0.00000E+00  9.000E+00
      21    -1     0     0   501   502  0.000000000E+00  0.000000000E+00 -3.216671582E+02  3.216671582E+02  0.000000000E+00  0.00000E+00  9.000E+00
      25     1     1     2     0     0 -2.234327512E+02 -2.942942161E+02  2.786025527E+02  4.793492071E+02  1.250000000E+02  0.00000E+00  9.000E+00
      25     1     1     2     0     0  2.287678354E+02  2.863254539E+02 -5.177275717E+01  3.906691778E+02  1.250000000E+02  0.00000E+00  9.000E+00
      21     1     1     2   501   511 -5.335084142E+00  7.968762154E+00  3.154632796E+02  3.156090067E+02  5.394796609E-06  0.00000E+00  9.000E+00
#rwgt            1           1   2.7162444187651354E-002           2      115347           0
</event>
<event>
      5   9999  3.19816E-02  2.14467E+01 -1.00000E+00  1.63905E-01
      21    -1     0     0   502   501  0.000000000E+00  0.000000000E+00  7.572749806E+02  7.572749806E+02  0.000000000E+00  0.00000E+00  9.000E+00
      21    -1     0     0   501   512  0.000000000E+00  0.000000000E+00 -1.251806722E+02  1.251806722E+02  0.000000000E+00  0.00000E+00  9.000E+00
      25     1     1     2     0     0  1.739515435E+02  1.758986841E+02  4.228784298E+02  5.056190790E+02  1.250000000E+02  0.00000E+00  9.000E+00
      25     1     1     2     0     0 -1.564988146E+02 -1.883630758E+02  2.206436211E+02  3.525352959E+02  1.250000000E+02  0.00000E+00  9.000E+00
      21     1     1     2   502   512 -1.745272895E+01  1.246439167E+01 -1.142774266E+01  2.430127795E+01  6.529361695E-07  0.00000E+00  9.000E+00
#rwgt            1           1   1.7189452462951338E-002           2      115641           0
</event>
<event>
      5   9999  3.19816E-02  9.91255E+01 -1.00000E+00  1.24000E-01
      21    -1     0     0   511   501  0.000000000E+00  0.000000000E+00  1.629269053E+02  1.629269053E+02  0.000000000E+00  0.00000E+00  9.000E+00
      21    -1     0     0   501   502  0.000000000E+00  0.000000000E+00 -6.560950618E+02  6.560950618E+02  0.000000000E+00  0.00000E+00  9.000E+00
      25     1     1     2     0     0  3.473505145E+01 -8.957607934E+01  4.017809851E+01  1.626950441E+02  1.250000000E+02  0.00000E+00  9.000E+00
      25     1     1     2     0     0 -1.331215565E+02  7.749478416E+01 -5.196916309E+02  5.562653877E+02  1.250000000E+02  0.00000E+00  9.000E+00
      21     1     1     2   511   502  9.838650505E+01  1.208129518E+01 -1.365462420E+01  1.000615352E+02  1.581489940E-06  0.00000E+00  9.000E+00
#rwgt            1           1   3.0453871563900003E-002           2      115784           0
</event>
<event>
      5   9999  3.19816E-02  2.51896E+01 -1.00000E+00  1.58506E-01
       2    -1     0     0   502     0  0.000000000E+00  0.000000000E+00  2.501328767E+03  2.501328767E+03  0.000000000E+00  0.00000E+00  9.000E+00
      21    -1     0     0   501   502  0.000000000E+00  0.000000000E+00 -7.010919716E+02  7.010919716E+02  0.000000000E+00  0.00000E+00  9.000E+00
      25     1     1     2     0     0 -4.565157657E+02  9.173086772E+01  3.386677208E+02  5.891875945E+02  1.250000000E+02  0.00000E+00  9.000E+00
      25     1     1     2     0     0  4.691017870E+02 -1.135507691E+02 -4.678143709E+02  6.836852707E+02  1.250000000E+02  0.00000E+00  9.000E+00
       2     1     1     2   501     0 -1.258602136E+01  2.181990142E+01  1.929383446E+03  1.929547874E+03  2.157918644E-05  0.00000E+00  9.000E+00
#rwgt            1           1   3.0262864246130939E-002           2      115847           0
</event>
<event>
      5   9999  3.19816E-02  5.64722E+01 -1.00000E+00  1.36125E-01
      21    -1     0     0   502   501  0.000000000E+00  0.000000000E+00  1.288439352E+03  1.288439352E+03  0.000000000E+00  0.00000E+00  9.000E+00
       1    -1     0     0   501     0  0.000000000E+00  0.000000000E+00 -1.265789441E+03  1.265789441E+03  0.000000000E+00  0.00000E+00  9.000E+00
      25     1     1     2     0     0 -2.472025646E+02  1.412966460E+02  6.827234130E+02  7.502067107E+02  1.250000000E+02  0.00000E+00  9.000E+00
      25     1     1     2     0     0  1.980649287E+02 -1.691282596E+02  5.347863137E+02  6.078285001E+02  1.250000000E+02  0.00000E+00  9.000E+00
       1     1     1     2   502     0  4.913763589E+01  2.783161355E+01 -1.194859816E+03  1.196193582E+03  2.157918644E-05  0.00000E+00  9.000E+00
#rwgt            1           1   2.6524585630797157E-002           2      116000           0
</event>
<event>
      5   9999  3.19816E-02  4.55650E+01 -1.00000E+00  1.41417E-01
      21    -1     0     0   502   511  0.000000000E+00  0.000000000E+00  1.309415690E+03  1.309415690E+03  0.000000000E+00  0.00000E+00  9.000E+00
      21    -1     0     0   501   502  0.000000000E+00  0.000000000E+00 -6.405205585E+02  6.405205585E+02  0.000000000E+00  0.00000E+00  9.000E+00
      25     1     1     2     0     0 -6.825848446E+02  1.348209047E+02 -2.629186316E+02  7.542214219E+02  1.250000000E+02  0.00000E+00  9.000E+00
      25     1     1     2     0     0  6.656335743E+02 -1.771154127E+02  8.419751020E+02  1.094981734E+03  1.250000000E+02  0.00000E+00  9.000E+00
      21     1     1     2   501   511  1.695127031E+01  4.229450794E+01  8.983866141E+01  1.007330931E+02  1.907348633E-06  0.00000E+00  9.000E+00
#rwgt            1           1   2.3010244861814608E-002           2      116080           0
</event>
<event>
      5   9999  3.19816E-02  1.71301E+02 -1.00000E+00  1.14153E-01
      21    -1     0     0   502   501  0.000000000E+00  0.000000000E+00  5.346824506E+02  5.346824506E+02  0.000000000E+00  0.00000E+00  9.000E+00
      21    -1     0     0   512   502  0.000000000E+00  0.000000000E+00 -3.643814250E+02  3.643814250E+02  0.000000000E+00  0.00000E+00  9.000E+00
      25     1     1     2     0     0 -1.280320867E+01 -6.086917507E+01 -1.920973034E+02  2.374770570E+02  1.250000000E+02  0.00000E+00  9.000E+00
      25     1     1     2     0     0  1.597261091E+02 -2.720911111E+01  4.309564761E+02  4.770757277E+02  1.250000000E+02  0.00000E+00  9.000E+00
      21     1     1     2   512   501 -1.469229005E+02  8.807828618E+01 -6.855814701E+01  1.845110910E+02  3.932099939E-06  0.00000E+00  9.000E+00
#rwgt            1           1   2.8104493569192032E-002           2      116327           0
</event>
<event>
      5   9999  3.19816E-02  5.46858E+01 -1.00000E+00  1.36892E-01
      21    -1     0     0   511   501  0.000000000E+00  0.000000000E+00  1.591081036E+02  1.591081036E+02  0.000000000E+00  0.00000E+00  9.000E+00
      21    -1     0     0   501   502  0.000000000E+00  0.000000000E+00 -5.091147350E+02  5.091147350E+02  0.000000000E+00  0.00000E+00  9.000E+00
      25     1     1     2     0     0 -3.270962203E+01  8.643805367E+01 -4.196968489E+02  4.475621761E+02  1.250000000E+02  0.00000E+00  9.000E+00
      25     1     1     2     0     0  1.877218947E+01 -3.355813658E+01  9.375438446E+01  1.609143506E+02  1.250000000E+02  0.00000E+00  9.000E+00
      21     1     1     2   511   502  1.393743256E+01 -5.287991709E+01 -2.406416695E+01  5.974631193E+01  1.118282261E-06  0.00000E+00  9.000E+00
#rwgt            1           1   2.7536647724330357E-002           2      116385           0
</event>
<event>
      5   9999  3.19816E-02  5.57493E+01 -1.00000E+00  1.36431E-01
      21    -1     0     0   512   501  0.000000000E+00  0.000000000E+00  5.279564211E+02  5.279564211E+02  0.000000000E+00  0.00000E+00  9.000E+00
      21    -1     0     0   501   502  0.000000000E+00  0.000000000E+00 -2.107692771E+03  2.107692771E+03  0.000000000E+00  0.00000E+00  9.000E+00
      25     1     1     2     0     0 -3.862368766E+02  8.689129788E+02 -4.175098582E+02  1.046005818E+03  1.250000000E+02  0.00000E+00  9.000E+00
      25     1     1     2     0     0  3.482425075E+02 -8.281157344E+02 -1.212747863E+03  1.514407770E+03  1.250000000E+02  0.00000E+00  9.000E+00
      21     1     1     2   512   502  3.799436906E+01 -4.079724441E+01  5.052137127E+01  7.523560452E+01  1.507891493E-06  0.00000E+00  9.000E+00
#rwgt            1           1   2.0734296023553960E-002           2      116523           0
</event>
<event>
      5   9999  3.19816E-02  3.15154E+01 -1.00000E+00  1.51568E-01
      21    -1     0     0   502   501  0.000000000E+00  0.000000000E+00  6.082313258E+01  6.082313258E+01  0.000000000E+00  0.00000E+00  9.000E+00
      21    -1     0     0   511   502  0.000000000E+00  0.000000000E+00 -1.174322372E+03  1.174322372E+03  0.000000000E+00  0.00000E+00  9.000E+00
      25     1     1     2     0     0 -6.494783158E+01  1.605229268E+02 -8.385179539E+02  8.652879231E+02  1.250000000E+02  0.00000E+00  9.000E+00
      25     1     1     2     0     0  8.945423281E+01 -1.407072943E+02 -2.013773140E+02  2.897903122E+02  1.250000000E+02  0.00000E+00  9.000E+00
      21     1     1     2   511   501 -2.450640123E+01 -1.981563251E+01 -7.360397172E+01  8.006726951E+01  1.348699152E-06  0.00000E+00  9.000E+00
#rwgt            1           1   3.7355742653155624E-002           2      116689           0
</event>
<event>
      5   9999  3.19816E-02  1.50730E+02 -1.00000E+00  1.16310E-01
      21    -1     0     0   502   501  0.000000000E+00  0.000000000E+00  1.239562615E+03  1.239562615E+03  0.000000000E+00  0.00000E+00  9.000E+00
      21    -1     0     0   501   512  0.000000000E+00  0.000000000E+00 -3.847473869E+02  3.847473869E+02  0.000000000E+00  0.00000E+00  9.000E+00
      25     1     1     2     0     0  1.656961167E+02 -9.052080414E+01  9.630545790E+01  2.460669833E+02  1.250000000E+02  0.00000E+00  9.000E+00
      25     1     1     2     0     0 -7.772057097E+01 -3.187139091E+01  1.044319347E+03  1.055122823E+03  1.250000000E+02  0.00000E+00  9.000E+00
      21     1     1     2   502   512 -8.797554569E+01  1.223921951E+02 -2.858095774E+02  3.231201952E+02  7.629394531E-06  0.00000E+00  9.000E+00
#rwgt            2          11   7.4585771800322540E-003           2      116823           0
</event>
<event>
      5   9999  3.19816E-02  1.14339E+02 -1.00000E+00  1.21266E-01
      21    -1     0     0   502   501  0.000000000E+00  0.000000000E+00  3.793364240E+02  3.793364240E+02  0.000000000E+00  0.00000E+00  9.000E+00
       1    -1     0     0   501     0  0.000000000E+00  0.000000000E+00 -9.014643571E+02  9.014643571E+02  0.000000000E+00  0.00000E+00  9.000E+00
      25     1     1     2     0     0  5.460541600E+02 -6.034168448E+01 -1.809715272E+02  5.917701904E+02  1.250000000E+02  0.00000E+00  9.000E+00
      25     1     1     2     0     0 -4.458143106E+02  1.153457585E+02 -3.149436889E+02  5.717250832E+02  1.250000000E+02  0.00000E+00  9.000E+00
       1     1     1     2   502     0 -1.002398494E+02 -5.500407406E+01 -2.621271693E+01  1.173055075E+02  1.581489940E-06  0.00000E+00  9.000E+00
#rwgt            1           1   2.9404588149624818E-002           2      116843           0
</event>
<event>
      5   9999  3.19816E-02  3.13851E+01 -1.00000E+00  1.51691E-01
      21    -1     0     0   502   501  0.000000000E+00  0.000000000E+00  8.547501519E+02  8.547501519E+02  0.000000000E+00  0.00000E+00  9.000E+00
      21    -1     0     0   501   511  0.000000000E+00  0.000000000E+00 -2.875772947E+02  2.875772947E+02  0.000000000E+00  0.00000E+00  9.000E+00
      25     1     1     2     0     0  1.307022320E+02 -5.381356568E+01  7.564315888E+02  7.796106219E+02  1.250000000E+02  0.00000E+00  9.000E+00
      25     1     1     2     0     0 -1.349619116E+02  2.271892597E+01 -1.533790847E+01  1.859868776E+02  1.250000000E+02  0.00000E+00  9.000E+00
      21     1     1     2   502   511  4.259679597E+00  3.109463971E+01 -1.739208232E+02  1.767299472E+02  3.303624740E-06  0.00000E+00  9.000E+00
#rwgt            1           1   2.6531781108867433E-002           2      116908           0
</event>
<event>
      5   9999  3.19816E-02  6.47069E+01 -1.00000E+00  1.32974E-01
      21    -1     0     0   512   501  0.000000000E+00  0.000000000E+00  8.080967056E+02  8.080967056E+02  0.000000000E+00  0.00000E+00  9.000E+00
      21    -1     0     0   501   502  0.000000000E+00  0.000000000E+00 -8.735901422E+01  8.735901422E+01  0.000000000E+00  0.00000E+00  9.000E+00
      25     1     1     2     0     0 -1.666593842E+02  3.890688477E+01  3.801179208E+02  4.352053880E+02  1.250000000E+02  0.00000E+00  9.000E+00
      25     1     1     2     0     0  1.692025203E+02 -1.035638357E+02  2.112693243E+02  3.156179468E+02  1.250000000E+02  0.00000E+00  9.000E+00
      21     1     1     2   512   502 -2.543136037E+00  6.465695095E+01  1.293504463E+02  1.446323851E+02  1.907348633E-06  0.00000E+00  9.000E+00
#rwgt            1           1   2.4486490058556996E-002           2      117027           0
</event>
<event>
      5   9999  3.19816E-02  3.63730E+01 -1.00000E+00  1.47448E-01
      21    -1     0     0   502   501  0.000000000E+00  0.000000000E+00  4.980141003E+02  4.980141003E+02  0.000000000E+00  0.00000E+00  9.000E+00
       2    -1     0     0   501     0  0.000000000E+00  0.000000000E+00 -1.633356230E+03  1.633356230E+03  0.000000000E+00  0.00000E+00  9.000E+00
      25     1     1     2     0     0  1.212072130E+01 -7.694027551E+02 -5.474751854E+02  9.526182814E+02  1.250000000E+02  0.00000E+00  9.000E+00
      25     1     1     2     0     0  1.039089132E+01  7.408331679E+02 -1.844319964E+02  7.736807575E+02  1.250000000E+02  0.00000E+00  9.000E+00
       2     1     1     2   502     0 -2.251161262E+01  2.856958724E+01 -4.034349477E+02  4.050712913E+02  5.394796609E-06  0.00000E+00  9.000E+00
#rwgt            1           1   3.7190951901469316E-002           2      117111           0
</event>
<event>
      5   9999  3.19816E-02  2.59665E+01 -1.00000E+00  1.57527E-01
      21    -1     0     0   502   501  0.000000000E+00  0.000000000E+00  6.520337485E+02  6.520337485E+02  0.000000000E+00  0.00000E+00  9.000E+00
      21    -1     0     0   511   502  0.000000000E+00  0.000000000E+00 -5.307234911E+01  5.307234911E+01  0.000000000E+00  0.00000E+00  9.000E+00
      25     1     1     2     0     0  5.397141354E+01 -8.607951082E+01  3.120901271E+02  3.512091159E+02  1.250000000E+02  0.00000E+00  9.000E+00
      25     1     1     2     0     0 -6.139003572E+01  1.109636560E+02  2.681444017E+02  3.218821051E+02  1.250000000E+02  0.00000E+00  9.000E+00
      21     1     1     2   511   501  7.418622178E+00 -2.488414521E+01  1.872687056E+01  3.201487652E+01  5.331201500E-07  0.00000E+00  9.000E+00
#rwgt            1           1   3.2057295439249366E-002           2      117284           0
</event>
<event>
      5   9999  3.19816E-02  4.99928E+01 -1.00000E+00  1.39079E-01
      21    -1     0     0   502   501  0.000000000E+00  0.000000000E+00  1.087675364E+03  1.087675364E+03  0.000000000E+00  0.00000E+00  9.000E+00
       1    -1     0     0   501     0  0.000000000E+00  0.000000000E+00 -9.369083310E+02  9.369083310E+02  0.000000000E+00  0.00000E+00  9.000E+00
      25     1     1     2     0     0  1.021064157E+02 -2.737299930E+02 -4.041767244E+02  5.141377770E+02  1.250000000E+02  0.00000E+00  9.000E+00
      25     1     1     2     0     0 -7.904794275E+01  2.293725354E+02  1.013280083E+03  1.049391188E+03  1.250000000E+02  0.00000E+00  9.000E+00
       1     1     1     2   502     0 -2.305847299E+01  4.435745762E+01 -4.583363257E+02  4.610547307E+02  0.000000000E+00  0.00000E+00  9.000E+00
#rwgt            1           1   2.3337201893003007E-002           2      117395           0
</event>
<event>
      5   9999  3.19816E-02  7.64882E+01 -1.00000E+00  1.29300E-01
      21    -1     0     0   511   501  0.000000000E+00  0.000000000E+00  9.072400972E+02  9.072400972E+02  0.000000000E+00  0.00000E+00  9.000E+00
      21    -1     0     0   501   502  0.000000000E+00  0.000000000E+00 -1.351540648E+02  1.351540648E+02  0.000000000E+00  0.00000E+00  9.000E+00
      25     1     1     2     0     0  5.548304899E+01  1.165790932E+02  1.293038614E+02  2.213900230E+02  1.250000000E+02  0.00000E+00  9.000E+00
      25     1     1     2     0     0  1.891098362E+01 -1.343546327E+02  1.121600048E+01  1.848231352E+02  1.250000000E+02  0.00000E+00  9.000E+00
      21     1     1     2   511   502 -7.439403261E+01  1.777553955E+01  6.315661705E+02  6.361810038E+02  1.078959322E-05  0.00000E+00  9.000E+00
#rwgt            1           1   2.4468728814584079E-002           2      117504           0
</event>
<event>
      5   9999  3.19816E-02  1.47248E+01 -1.00000E+00  1.78145E-01
      21    -1     0     0   502   512  0.000000000E+00  0.000000000E+00  2.097485107E+02  2.097485107E+02  0.000000000E+00  0.00000E+00  9.000E+00
      21    -1     0     0   501   502  0.000000000E+00  0.000000000E+00 -1.874252246E+03  1.874252246E+03  0.000000000E+00  0.00000E+00  9.000E+00
      25     1     1     2     0     0  4.015703208E+02 -3.075567274E+02 -3.182331249E+02  6.105302490E+02  1.250000000E+02  0.00000E+00  9.000E+00
      25     1     1     2     0     0 -4.078079324E+02  3.208950973E+02 -1.355007620E+03  1.456348730E+03  1.250000000E+02  0.00000E+00  9.000E+00
      21     1     1     2   501   512  6.237611600E+00 -1.333836988E+01  8.737010133E+00  1.712177724E+01  2.920019320E-07  0.00000E+00  9.000E+00
#rwgt            1           1   2.5232364123046955E-002           2      117548           0
</event>
<event>
      5   9999  3.19816E-02  1.26720E+02 -1.00000E+00  1.19372E-01
      21    -1     0     0   511   501  0.000000000E+00  0.000000000E+00  5.317647583E+02  5.317647583E+02  0.000000000E+00  0.00000E+00  9.000E+00
      21    -1     0     0   501   502  0.000000000E+00  0.000000000E+00 -3.504308553E+02  3.504308553E+02  0.000000000E+00  0.00000E+00  9.000E+00
      25     1     1     2     0     0  1.565215529E+01  1.262330488E+02  1.756133895E+02  2.502895027E+02  1.250000000E+02  0.00000E+00  9.000E+00
      25     1     1     2     0     0  7.200423256E+01 -3.472162945E+01 -2.813687756E+02  3.180936795E+02  1.250000000E+02  0.00000E+00  9.000E+00
      21     1     1     2   511   502 -8.765638785E+01 -9.151141935E+01  2.870892891E+02  3.138124314E+02  0.000000000E+00  0.00000E+00  9.000E+00
#rwgt            1           1   2.7568994726555565E-002           2      117788           0
</event>
<event>
      5   9999  3.19816E-02  1.03990E+02 -1.00000E+00  1.23068E-01
      21    -1     0     0   512   501  0.000000000E+00  0.000000000E+00  1.268179133E+03  1.268179133E+03  0.000000000E+00  0.00000E+00  9.000E+00
      21    -1     0     0   501   502  0.000000000E+00  0.000000000E+00 -2.096182775E+02  2.096182775E+02  0.000000000E+00  0.00000E+00  9.000E+00
      25     1     1     2     0     0 -2.088917091E+02  1.008565315E+02 -2.670176567E+01  2.648504679E+02  1.250000000E+02  0.00000E+00  9.000E+00
      25     1     1     2     0     0  2.514025934E+02 -1.957606618E+02  4.305228535E+02  5.500003892E+02  1.250000000E+02  0.00000E+00  9.000E+00
      21     1     1     2   512   502 -4.251088435E+01  9.490413039E+01  6.547397673E+02  6.629465530E+02  0.000000000E+00  0.00000E+00  9.000E+00
#rwgt            1           1   2.9586065384958924E-002           2      117890           0
</event>
<event>
      5   9999  3.19816E-02  3.73240E+01 -1.00000E+00  1.46730E-01
      21    -1     0     0   502   511  0.000000000E+00  0.000000000E+00  1.272317823E+02  1.272317823E+02  0.000000000E+00  0.00000E+00  9.000E+00
      21    -1     0     0   501   502  0.000000000E+00  0.000000000E+00 -5.401543166E+02  5.401543166E+02  0.000000000E+00  0.00000E+00  9.000E+00
      25     1     1     2     0     0  1.309000347E+01  7.523172637E+01 -2.529084546E+01  1.486465193E+02  1.250000000E+02  0.00000E+00  9.000E+00
      25     1     1     2     0     0 -5.003950280E+01 -6.995767052E+01 -4.336839909E+02  4.594614580E+02  1.250000000E+02  0.00000E+00  9.000E+00
      21     1     1     2   501   511  3.694949933E+01 -5.274055855E+00  4.605230207E+01  5.927812153E+01  1.348699152E-06  0.00000E+00  9.000E+00
#rwgt            1           1   2.6219959794744709E-002           2      117991           0
</event>
<event>
      5   9999  3.19816E-02  1.68893E+02 -1.00000E+00  1.14388E-01
      21    -1     0     0   502   512  0.000000000E+00  0.000000000E+00  2.688295234E+03  2.688295234E+03  0.000000000E+00  0.00000E+00  9.000E+00
      21    -1     0     0   501   502  0.000000000E+00  0.000000000E+00 -4.011579392E+02  4.011579392E+02  0.000000000E+00  0.00000E+00  9.000E+00
      25     1     1     2     0     0  1.652624427E+02  2.700270079E+02  2.272086561E+02  4.092371359E+02  1.250000000E+02  0.00000E+00  9.000E+00
      25     1     1     2     0     0 -7.573102516E+01 -4.132366728E+02 -1.504290530E+02  4.634151874E+02  1.250000000E+02  0.00000E+00  9.000E+00
      21     1     1     2   501   512 -8.953141759E+01  1.432096649E+02  2.210357691E+03  2.216800849E+03  0.000000000E+00  0.00000E+00  9.000E+00
#rwgt            1           1   2.7732256696077855E-002           2      118041           0
</event>
<event>
      5   9999  3.19816E-02  5.95535E+01 -1.00000E+00  1.34877E-01
      21    -1     0     0   511   501  0.000000000E+00  0.000000000E+00  1.392479822E+03  1.392479822E+03  0.000000000E+00  0.00000E+00  9.000E+00
      21    -1     0     0   501   502  0.000000000E+00  0.000000000E+00 -1.861012103E+02  1.861012103E+02  0.000000000E+00  0.00000E+00  9.000E+00
      25     1     1     2     0     0  3.844533250E+01  4.782040629E+02  5.882291435E+02  7.692825844E+02  1.250000000E+02  0.00000E+00  9.000E+00
      25     1     1     2     0     0 -6.044049498E+01 -4.228612137E+02  4.589097522E+02  6.392869623E+02  1.250000000E+02  0.00000E+00  9.000E+00
      21     1     1     2   511   502  2.199516247E+01 -5.534284916E+01  1.592397157E+02  1.700114855E+02  2.697398305E-06  0.00000E+00  9.000E+00
#rwgt            1           1   2.8620711237768232E-002           2      118127           0
</event>
<event>
      5   9999  3.19816E-02  5.21070E+01 -1.00000E+00  1.38060E-01
      21    -1     0     0   502   512  0.000000000E+00  0.000000000E+00  3.592782291E+02  3.592782291E+02  0.000000000E+00  0.00000E+00  9.000E+00
      21    -1     0     0   501   502  0.000000000E+00  0.000000000E+00 -1.487709538E+03  1.487709538E+03  0.000000000E+00  0.00000E+00  9.000E+00
      25     1     1     2     0     0 -5.276386372E+01 -2.414914109E+02  2.548231441E+02  3.763800760E+02  1.250000000E+02  0.00000E+00  9.000E+00
      25     1     1     2     0     0  9.607545256E+01  2.125216580E+02 -1.392730840E+03  1.417645985E+03  1.250000000E+02  0.00000E+00  9.000E+00
      21     1     1     2   501   512 -4.331158884E+01  2.896975297E+01  9.476387193E+00  5.296170531E+01  5.591411304E-07  0.00000E+00  9.000E+00
#rwgt            1           1   2.9890008045235967E-002           2      118250           0
</event>
<event>
      5   9999  3.19816E-02  2.55078E+01 -1.00000E+00  1.58100E-01
       1    -1     0     0   502     0  0.000000000E+00  0.000000000E+00  1.118094725E+03  1.118094725E+03  0.000000000E+00  0.00000E+00  9.000E+00
      21    -1     0     0   501   502  0.000000000E+00  0.000000000E+00 -4.657797949E+02  4.657797949E+02  0.000000000E+00  0.00000E+00  9.000E+00
      25     1     1     2     0     0 -2.682570272E+02  1.628669235E+02 -4.146012090E+01  3.403401373E+02  1.250000000E+02  0.00000E+00  9.000E+00
      25     1     1     2     0     0  2.914067215E+02 -1.521553311E+02 -1.621134119E+02  3.872659040E+02  1.250000000E+02  0.00000E+00  9.000E+00
       1     1     1     2   501     0 -2.314969435E+01 -1.071159239E+01  8.558884624E+02  8.562684782E+02  1.078959322E-05  0.00000E+00  9.000E+00
#rwgt            2          17   4.6873142594575811E-004           2      118454           0
</event>
<event>
      5   9999  3.19816E-02  3.79368E+01 -1.00000E+00  1.46281E-01
      21    -1     0     0   502   501  0.000000000E+00  0.000000000E+00  2.341031678E+02  2.341031678E+02  0.000000000E+00  0.00000E+00  9.000E+00
      21    -1     0     0   511   502  0.000000000E+00  0.000000000E+00 -5.913934612E+02  5.913934612E+02  0.000000000E+00  0.00000E+00  9.000E+00
      25     1     1     2     0     0 -2.119413160E+02  8.273366885E+01 -4.365962898E+02  5.079422228E+02  1.250000000E+02  0.00000E+00  9.000E+00
      25     1     1     2     0     0  1.818420397E+02 -1.058255816E+02  1.104269416E+02  2.684859224E+02  1.250000000E+02  0.00000E+00  9.000E+00
      21     1     1     2   511   501  3.009927633E+01  2.309191273E+01 -3.112094516E+01  4.906848375E+01  3.371747881E-07  0.00000E+00  9.000E+00
#rwgt            1           1   2.9095241026924387E-002           2      118518           0
</event>
<event>
      5   9999  3.19816E-02  1.67275E+02 -1.00000E+00  1.14548E-01
      21    -1     0     0   512   501  0.000000000E+00  0.000000000E+00  5.838469904E+01  5.838469904E+01  0.000000000E+00  0.00000E+00  9.000E+00
      21    -1     0     0   501   502  0.000000000E+00  0.000000000E+00 -1.417236902E+03  1.417236902E+03  0.000000000E+00  0.00000E+00  9.000E+00
      25     1     1     2     0     0  3.188947530E+01 -9.061244023E+01 -2.720326485E+02  3.144110603E+02  1.250000000E+02  0.00000E+00  9.000E+00
      25     1     1     2     0     0  1.208225512E+02  1.588761547E+02 -7.316811638E+02  7.686494955E+02  1.250000000E+02  0.00000E+00  9.000E+00
      21     1     1     2   512   502 -1.527120265E+02 -6.826371443E+01 -3.551383901E+02  3.925610448E+02  7.629394531E-06  0.00000E+00  9.000E+00
#rwgt            1           1   3.3868943275426056E-002           2      118609           0
</event>
<event>
      5   9999  3.19816E-02  3.13962E+01 -1.00000E+00  1.51680E-01
      21    -1     0     0   502   501  0.000000000E+00  0.000000000E+00  4.222576823E+02  4.222576823E+02  0.000000000E+00  0.00000E+00  9.000E+00
      21    -1     0     0   501   511  0.000000000E+00  0.000000000E+00 -7.818828261E+02  7.818828261E+02  0.000000000E+00  0.00000E+00  9.000E+00
      25     1     1     2     0     0  3.853283801E+02 -3.950062550E+02 -1.002425322E+02  5.746141900E+02  1.250000000E+02  0.00000E+00  9.000E+00
      25     1     1     2     0     0 -3.541851124E+02  3.910293223E+02 -2.441625776E+02  5.946355094E+02  1.250000000E+02  0.00000E+00  9.000E+00
      21     1     1     2   502   511 -3.114326769E+01  3.976932735E+00 -1.522003405E+01  3.489080900E+01  0.000000000E+00  0.00000E+00  9.000E+00
#rwgt            2          11   1.2325727544157705E-002           2      118737           0
</event>
<event>
      5   9999  3.19816E-02  4.19665E+01 -1.00000E+00  1.43559E-01
      21    -1     0     0   502   501  0.000000000E+00  0.000000000E+00  1.057975638E+02  1.057975638E+02  0.000000000E+00  0.00000E+00  9.000E+00
       2    -1     0     0   501     0  0.000000000E+00  0.000000000E+00 -5.203820717E+03  5.203820717E+03  0.000000000E+00  0.00000E+00  9.000E+00
      25     1     1     2     0     0 -2.195184451E+00  2.563209678E+02 -3.370249711E+03  3.382294099E+03  1.250000000E+02  0.00000E+00  9.000E+00
      25     1     1     2     0     0 -2.519506401E+00 -2.146201497E+02 -5.547692536E+01  2.545011706E+02  1.250000000E+02  0.00000E+00  9.000E+00
       2     1     1     2   502     0  4.714690852E+00 -4.170081808E+01 -1.672296517E+03  1.672823012E+03  2.157918644E-05  0.00000E+00  9.000E+00
#rwgt            1           1   2.7816730468604226E-002           2      118802           0
</event>
<event>
      5   9999  3.19816E-02  4.17271E+01 -1.00000E+00  1.43711E-01
      21    -1     0     0   502   501  0.000000000E+00  0.000000000E+00  1.510704870E+03  1.510704870E+03  0.000000000E+00  0.00000E+00  9.000E+00
      21    -1     0     0   511   502  0.000000000E+00  0.000000000E+00 -3.857573789E+02  3.857573789E+02  0.000000000E+00  0.00000E+00  9.000E+00
      25     1     1     2     0     0  5.170765914E+02  4.085552229E+02  8.110067934E+02  1.052446004E+03  1.250000000E+02  0.00000E+00  9.000E+00
      25     1     1     2     0     0 -5.118791276E+02 -4.499573432E+02  3.608535572E+02  7.812311705E+02  1.250000000E+02  0.00000E+00  9.000E+00
      21     1     1     2   511   501 -5.197463835E+00  4.140212033E+01 -4.691285965E+01  6.278507465E+01  6.743495762E-07  0.00000E+00  9.000E+00
#rwgt            2          11   3.6065547588707116E-003           2      118912           0
</event>
<event>
      5   9999  3.19816E-02  9.05881E+01 -1.00000E+00  1.25790E-01
       1    -1     0     0   502     0  0.000000000E+00  0.000000000E+00  5.802182780E+01  5.802182780E+01  0.000000000E+00  0.00000E+00  9.000E+00
      21    -1     0     0   501   502  0.000000000E+00  0.000000000E+00 -1.600163612E+03  1.600163612E+03  0.000000000E+00  0.00000E+00  9.000E+00
      25     1     1     2     0     0  1.455155495E+01  2.645943721E+01 -7.112749944E+02  7.228063138E+02  1.250000000E+02  0.00000E+00  9.000E+00
      25     1     1     2     0     0 -1.040275869E+02 -1.230887152E+01 -8.288768023E+02  8.447691995E+02  1.250000000E+02  0.00000E+00  9.000E+00
       1     1     1     2   501     0  8.947603198E+01 -1.415056569E+01 -1.989987991E+00  9.060992694E+01  2.501442977E-06  0.00000E+00  9.000E+00
#rwgt            1           1   7.1959679117873224E-002           2      118962           0
</event>
<event>
      5   9999  3.19816E-02  9.03779E+02 -1.00000E+00  9.20585E-02
       1    -1     0     0   502     0  0.000000000E+00  0.000000000E+00  4.508837584E+03  4.508837584E+03  0.000000000E+00  0.00000E+00  9.000E+00
      21    -1     0     0   501   502  0.000000000E+00  0.000000000E+00 -5.911382550E+02  5.911382550E+02  0.000000000E+00  0.00000E+00  9.000E+00
      25     1     1     2     0     0 -1.336501887E+02  1.624891346E+02 -7.075804556E+00  2.448267935E+02  1.250000000E+02  0.00000E+00  9.000E+00
      25     1     1     2     0     0  5.657589403E+02  6.312988180E+02  3.055248982E+01  8.574262830E+02  1.250000000E+02  0.00000E+00  9.000E+00
       1     1     1     2   501     0 -4.321087516E+02 -7.937879526E+02  3.894222644E+03  3.997722762E+03  4.315837288E-05  0.00000E+00  9.000E+00
#rwgt            2          17   3.1049290907578654E-004           2      119038           0
</event>
<event>
      5   9999  3.19816E-02  3.36023E+01 -1.00000E+00  1.49696E-01
      21    -1     0     0   502   511  0.000000000E+00  0.000000000E+00  7.275018903E+02  7.275018903E+02  0.000000000E+00  0.00000E+00  9.000E+00
      21    -1     0     0   501   502  0.000000000E+00  0.000000000E+00 -7.812071384E+02  7.812071384E+02  0.000000000E+00  0.00000E+00  9.000E+00
      25     1     1     2     0     0 -1.528712002E+02  6.996273804E+02  6.014892679E+01  7.294456585E+02  1.250000000E+02  0.00000E+00  9.000E+00
      25     1     1     2     0     0  1.195149589E+02 -6.955681437E+02 -1.474413142E+02  7.317532433E+02  1.250000000E+02  0.00000E+00  9.000E+00
      21     1     1     2   501   511  3.335624134E+01 -4.059236690E+00  3.358713927E+01  4.751012696E+01  6.743495762E-07  0.00000E+00  9.000E+00
#rwgt            1           1   2.8199666720796691E-002           2      119072           0
</event>
<event>
      5   9999  3.19816E-02  9.76841E+00 -1.00000E+00  1.96941E-01
      21    -1     0     0   512   501  0.000000000E+00  0.000000000E+00  4.549619581E+02  4.549619581E+02  0.000000000E+00  0.00000E+00  9.000E+00
      21    -1     0     0   501   502  0.000000000E+00  0.000000000E+00 -2.253641890E+02  2.253641890E+02  0.000000000E+00  0.00000E+00  9.000E+00
      25     1     1     2     0     0  1.852890803E+02  1.671379159E+02  1.474195051E+02  3.156337065E+02  1.250000000E+02  0.00000E+00  9.000E+00
      25     1     1     2     0     0 -1.821115283E+02 -1.763750708E+02  7.324237684E-01  2.826628925E+02  1.250000000E+02  0.00000E+00  9.000E+00
      21     1     1     2   512   502 -3.177551993E+00  9.237154893E+00  8.144584029E+01  8.202954814E+01  1.348699152E-06  0.00000E+00  9.000E+00
#rwgt            1           1   2.9506049870397136E-002           2      119203           0
</event>
<event>
      5   9999  3.19816E-02  7.47898E+01 -1.00000E+00  1.29781E-01
      21    -1     0     0   502   501  0.000000000E+00  0.000000000E+00  5.491008037E+02  5.491008037E+02  0.000000000E+00  0.00000E+00  9.000E+00
      21    -1     0     0   501   511  0.000000000E+00  0.000000000E+00 -6.427497141E+02  6.427497141E+02  0.000000000E+00  0.00000E+00  9.000E+00
      25     1     1     2     0     0 -3.113238748E+02  3.034212481E+02 -2.190493905E+02  5.025879469E+02  1.250000000E+02  0.00000E+00  9.000E+00
      25     1     1     2     0     0  3.414791624E+02 -2.349802495E+02  2.813272099E+02  5.163271589E+02  1.250000000E+02  0.00000E+00  9.000E+00
      21     1     1     2   502   511 -3.015528755E+01 -6.844099861E+01 -1.559267297E+02  1.729354119E+02  1.907348633E-06  0.00000E+00  9.000E+00
#rwgt            1           1   3.0286366122710781E-002           2      119455           0
</event>
<event>
      5   9999  3.19816E-02  7.72010E+01 -1.00000E+00  1.29103E-01
      21    -1     0     0   502   501  0.000000000E+00  0.000000000E+00  2.649069294E+01  2.649069294E+01  0.000000000E+00  0.00000E+00  9.000E+00
      21    -1     0     0   512   502  0.000000000E+00  0.000000000E+00 -1.711632087E+03  1.711632087E+03  0.000000000E+00  0.00000E+00  9.000E+00
      25     1     1     2     0     0 -1.240919119E+01 -1.175976461E+02 -4.990292261E+02  5.278620681E+02  1.250000000E+02  0.00000E+00  9.000E+00
      25     1     1     2     0     0 -5.693754438E+01  8.367097846E+01 -8.790539228E+02  8.936461916E+02  1.250000000E+02  0.00000E+00  9.000E+00
      21     1     1     2   512   501  6.934673557E+01  3.392666768E+01 -3.070582450E+02  3.166145201E+02  9.344061824E-06  0.00000E+00  9.000E+00
#rwgt            1           1   3.2215504534712447E-002           2      119547           0
</event>
<event>
      5   9999  3.19816E-02  7.64678E+01 -1.00000E+00  1.29306E-01
      21    -1     0     0   502   501  0.000000000E+00  0.000000000E+00  4.636252891E+02  4.636252891E+02  0.000000000E+00  0.00000E+00  9.000E+00
       1    -1     0     0   501     0  0.000000000E+00  0.000000000E+00 -6.606090398E+02  6.606090398E+02  0.000000000E+00  0.00000E+00  9.000E+00
      25     1     1     2     0     0  1.877997249E+02 -4.167129508E+02  1.212146344E+02  4.891179895E+02  1.250000000E+02  0.00000E+00  9.000E+00
      25     1     1     2     0     0 -1.142948252E+02  4.377925940E+02 -2.980324988E+02  5.560342010E+02  1.250000000E+02  0.00000E+00  9.000E+00
       1     1     1     2   502     0 -7.350489972E+01 -2.107964319E+01 -2.016588633E+01  7.908213838E+01  1.143415337E-06  0.00000E+00  9.000E+00
#rwgt            1           1   2.3227465363013851E-002           2      119625           0
</event>
<event>
      5   9999  3.19816E-02  4.85158E+01 -1.00000E+00  1.39826E-01
      21    -1     0     0   502   501  0.000000000E+00  0.000000000E+00  3.519649030E+02  3.519649030E+02  0.000000000E+00  0.00000E+00  9.000E+00
       2    -1     0     0   501     0  0.000000000E+00  0.000000000E+00 -3.893848311E+02  3.893848311E+02  0.000000000E+00  0.00000E+00  9.000E+00
      25     1     1     2     0     0 -8.935093855E+01 -2.373082677E+02 -1.421464714E+02  3.164323363E+02  1.250000000E+02  0.00000E+00  9.000E+00
      25     1     1     2     0     0  1.377987779E+02  2.398761817E+02  1.666088863E+02  3.462839972E+02  1.250000000E+02  0.00000E+00  9.000E+00
       2     1     1     2   502     0 -4.844783935E+01 -2.567913966E+00 -6.188234295E+01  7.863340060E+01  6.743495762E-07  0.00000E+00  9.000E+00
#rwgt            1           1   2.7283612904714673E-002           2      119714           0
</event>
<event>
      5   9999  3.19816E-02  7.80659E+01 -1.00000E+00  1.28866E-01
      21    -1     0     0   502   501  0.000000000E+00  0.000000000E+00  1.282776387E+03  1.282776387E+03  0.000000000E+00  0.00000E+00  9.000E+00
      21    -1     0     0   501   511  0.000000000E+00  0.000000000E+00 -2.537387183E+02  2.537387183E+02  0.000000000E+00  0.00000E+00  9.000E+00
      25     1     1     2     0     0  4.803225548E+02  1.589407274E+02  5.989362482E+02  7.939279192E+02  1.250000000E+02  0.00000E+00  9.000E+00
      25     1     1     2     0     0 -4.442631872E+02 -2.281794818E+02  4.188826129E+02  6.637192922E+02  1.250000000E+02  0.00000E+00  9.000E+00
      21     1     1     2   502   511 -3.605936760E+01  6.923875438E+01  1.121880791E+01  7.886789429E+01  9.536743164E-07  0.00000E+00  9.000E+00
#rwgt            1           1   2.8713871637177295E-002           2      119777           0
</event>
<event>
      5   9999  3.19816E-02  1.59480E+01 -1.00000E+00  1.74912E-01
      21    -1     0     0   502   501  0.000000000E+00  0.000000000E+00  2.540524683E+02  2.540524683E+02  0.000000000E+00  0.00000E+00  9.000E+00
      21    -1     0     0   501   512  0.000000000E+00  0.000000000E+00 -1.390100286E+02  1.390100286E+02  0.000000000E+00  0.00000E+00  9.000E+00
      25     1     1     2     0     0  3.755654633E+01  5.590361205E+00 -7.134055661E+01  1.488496602E+02  1.250000000E+02  0.00000E+00  9.000E+00
      25     1     1     2     0     0 -3.023775554E+01 -1.975983310E+01  1.875024055E+02  2.282256009E+02  1.250000000E+02  0.00000E+00  9.000E+00
      21     1     1     2   502   512 -7.318790798E+00  1.416947189E+01 -1.119409156E+00  1.598723583E+01  3.150459306E-07  0.00000E+00  9.000E+00
#rwgt            1           1   3.6141384808952882E-002           2      119911           0
</event>
<event>
      5   9999  3.19816E-02  5.36678E+01 -1.00000E+00  1.37344E-01
      21    -1     0     0   502   501  0.000000000E+00  0.000000000E+00  7.704616752E+02  7.704616752E+02  0.000000000E+00  0.00000E+00  9.000E+00
      21    -1     0     0   511   502  0.000000000E+00  0.000000000E+00 -2.461774835E+02  2.461774835E+02  0.000000000E+00  0.00000E+00  9.000E+00
      25     1     1     2     0     0  1.335268169E+02  3.221722101E+01  6.976417678E+02  7.219393301E+02  1.250000000E+02  0.00000E+00  9.000E+00
      25     1     1     2     0     0 -1.094885020E+02 -8.020045724E+01 -1.384174628E+02  2.306604418E+02  1.250000000E+02  0.00000E+00  9.000E+00
      21     1     1     2   511   501 -2.403831496E+01  4.798323623E+01 -3.494011333E+01  6.403938682E+01  1.066240300E-06  0.00000E+00  9.000E+00
#rwgt            1           1   3.0658756343908602E-002           2      120048           0
</event>
<event>
      5   9999  3.19816E-02  1.45802E+01 -1.00000E+00  1.78553E-01
      21    -1     0     0   502   512  0.000000000E+00  0.000000000E+00  1.873331183E+02  1.873331183E+02  0.000000000E+00  0.00000E+00  9.000E+00
      21    -1     0     0   501   502  0.000000000E+00  0.000000000E+00 -6.356915640E+02  6.356915640E+02  0.000000000E+00  0.00000E+00  9.000E+00
      25     1     1     2     0     0 -1.308301386E+02  3.851213653E+01 -2.446607295E+02  3.067304719E+02  1.250000000E+02  0.00000E+00  9.000E+00
      25     1     1     2     0     0  1.425604844E+02 -4.717127014E+01 -3.330464402E+02  3.861263417E+02  1.250000000E+02  0.00000E+00  9.000E+00
      21     1     1     2   501   512 -1.173034587E+01  8.659133614E+00  1.293487241E+02  1.301678687E+02  2.697398305E-06  0.00000E+00  9.000E+00
#rwgt            1           1   2.6408805473189231E-002           2      120152           0
</event>
<event>
      5   9999  3.19816E-02  8.74572E+01 -1.00000E+00  1.26504E-01
      21    -1     0     0   511   501  0.000000000E+00  0.000000000E+00  3.141979103E+02  3.141979103E+02  0.000000000E+00  0.00000E+00  9.000E+00
      21    -1     0     0   501   502  0.000000000E+00  0.000000000E+00 -3.288560346E+02  3.288560346E+02  0.000000000E+00  0.00000E+00  9.000E+00
      25     1     1     2     0     0  1.267760808E+02 -4.670681981E+01 -2.160589475E+02  2.838312359E+02  1.250000000E+02  0.00000E+00  9.000E+00
      25     1     1     2     0     0 -1.546629741E+02 -3.618512950E+01  1.006225653E+02  2.257872888E+02  1.250000000E+02  0.00000E+00  9.000E+00
      21     1     1     2   511   502  2.788689331E+01  8.289194931E+01  1.007782580E+02  1.334354202E+02  2.697398305E-06  0.00000E+00  9.000E+00
#rwgt            1           1   2.6309008669933995E-002           2      120316           0
</event>
<event>
      5   9999  3.19816E-02  1.14786E+02 -1.00000E+00  1.21193E-01
      21    -1     0     0   512   501  0.000000000E+00  0.000000000E+00  1.598830029E+02  1.598830029E+02  0.000000000E+00  0.00000E+00  9.000E+00
      21    -1     0     0   501   502  0.000000000E+00  0.000000000E+00 -6.404656608E+02  6.404656608E+02  0.000000000E+00  0.00000E+00  9.000E+00
      25     1     1     2     0     0  1.772769526E+02  9.088236858E+01 -5.028391934E+01  2.404998865E+02  1.250000000E+02  0.00000E+00  9.000E+00
      25     1     1     2     0     0 -1.947721056E+02  2.256257055E+01 -3.482802000E+02  4.187712268E+02  1.250000000E+02  0.00000E+00  9.000E+00
      21     1     1     2   512   502  1.749515298E+01 -1.134449391E+02 -8.201853859E+01  1.410775505E+02  2.523185073E-06  0.00000E+00  9.000E+00
#rwgt            2          11   3.2656800206610488E-003           2      120606           0
</event>
<event>
      5   9999  3.19816E-02  3.01697E+02 -1.00000E+00  1.05512E-01
      21    -1     0     0   502   511  0.000000000E+00  0.000000000E+00  1.401946563E+02  1.401946563E+02  0.000000000E+00  0.00000E+00  9.000E+00
      21    -1     0     0   501   502  0.000000000E+00  0.000000000E+00 -1.315224624E+03  1.315224624E+03  0.000000000E+00  0.00000E+00  9.000E+00
      25     1     1     2     0     0 -2.272192953E+01  3.438955310E+02 -7.697601251E+02  8.526054612E+02  1.250000000E+02  0.00000E+00  9.000E+00
      25     1     1     2     0     0 -3.954690988E+01 -4.869442482E+01 -1.705686756E+02  2.205760145E+02  1.250000000E+02  0.00000E+00  9.000E+00
      21     1     1     2   501   511  6.226883941E+01 -2.952011061E+02 -2.347011669E+02  3.822378045E+02  2.697398305E-06  0.00000E+00  9.000E+00
#rwgt            2          11   4.0197552512512861E-003           2      120806           0
</event>
<event>
      5   9999  3.37932E-02  1.12733E+01 -1.00000E+00  1.89926E-01
      21    -1     0     0   502   501  0.000000000E+00  0.000000000E+00  1.801398022E+02  1.801398022E+02  0.000000000E+00  0.00000E+00  9.000E+00
      21    -1     0     0   512   502  0.000000000E+00  0.000000000E+00 -1.235565689E+03  1.235565689E+03  0.000000000E+00  0.00000E+00  9.000E+00
      25     1     1     2     0     0  3.597598343E+02  3.166779128E+01 -1.332084708E+02  4.047214895E+02  1.250000000E+02  0.00000E+00  9.000E+00
      25     1     1     2     0     0 -3.485094895E+02 -3.238725422E+01 -7.368694329E+02  8.252934992E+02  1.250000000E+02  0.00000E+00  9.000E+00
      21     1     1     2   512   501 -1.125034472E+01  7.194629393E-01 -1.853479829E+02  1.856905024E+02  2.697398305E-06  0.00000E+00  9.000E+00
#rwgt            1           1   3.2556216973005814E-002           2      120856           0
</event>
<event>
      5   9999  3.19816E-02  8.25370E+01 -1.00000E+00  1.27697E-01
      21    -1     0     0   511   501  0.000000000E+00  0.000000000E+00  3.651256970E+02  3.651256970E+02  0.000000000E+00  0.00000E+00  9.000E+00
      21    -1     0     0   501   502  0.000000000E+00  0.000000000E+00 -3.647156807E+02  3.647156807E+02  0.000000000E+00  0.00000E+00  9.000E+00
      25     1     1     2     0     0 -9.640172365E+01  6.716157953E+01 -2.589878276E+02  3.106503902E+02  1.250000000E+02  0.00000E+00  9.000E+00
      25     1     1     2     0     0  1.598905614E+02 -1.199017846E+02  1.403951884E+02  2.743669778E+02  1.250000000E+02  0.00000E+00  9.000E+00
      21     1     1     2   511   502 -6.348883774E+01  5.274020507E+01  1.190026555E+02  1.448240096E+02  1.907348633E-06  0.00000E+00  9.000E+00
#rwgt            1           1   2.8132490638839863E-002           2      121057           0
</event>
<event>
      5   9999  3.19816E-02  7.93972E+00 -1.00000E+00  2.08101E-01
       2    -1     0     0   502     0  0.000000000E+00  0.000000000E+00  2.718125650E+02  2.718125650E+02  0.000000000E+00  0.00000E+00  9.000E+00
      21    -1     0     0   501   502  0.000000000E+00  0.000000000E+00 -4.223287820E+02  4.223287820E+02  0.000000000E+00  0.00000E+00  9.000E+00
      25     1     1     2     0     0  1.638880797E+02 -1.122920280E+01 -3.455263146E+02  4.024907847E+02  1.250000000E+02  0.00000E+00  9.000E+00
      25     1     1     2     0     0 -1.600609595E+02  1.818566109E+01  1.701962667E+02  2.655974364E+02  1.250000000E+02  0.00000E+00  9.000E+00
       2     1     1     2   501     0 -3.827120184E+00 -6.956458287E+00  2.481383096E+01  2.605312587E+01  3.371747881E-07  0.00000E+00  9.000E+00
#rwgt            1           1   2.5688472029185023E-002           2      121204           0
</event>
<event>
      5   9999  3.19816E-02  2.88612E+01 -1.00000E+00  1.54216E-01
      21    -1     0     0   502   501  0.000000000E+00  0.000000000E+00  9.894895989E+01  9.894895989E+01  0.000000000E+00  0.00000E+00  9.000E+00
      21    -1     0     0   501   511  0.000000000E+00  0.000000000E+00 -8.471497597E+02  8.471497597E+02  0.000000000E+00  0.00000E+00  9.000E+00
      25     1     1     2     0     0 -1.537349399E+02 -4.667024562E+01 -4.565924871E+01  2.086200148E+02  1.250000000E+02  0.00000E+00  9.000E+00
      25     1     1     2     0     0  1.377273704E+02  2.265515720E+01 -5.212260869E+02  5.538805994E+02  1.250000000E+02  0.00000E+00  9.000E+00
      21     1     1     2   502   511  1.600756956E+01  2.401508842E+01 -1.813154642E+02  1.835981054E+02  0.000000000E+00  0.00000E+00  9.000E+00
#rwgt            1           1   3.0136640108723089E-002           2      121497           0
</event>
<event>
      5   9999  3.19816E-02  7.21792E+01 -1.00000E+00  1.30550E-01
      21    -1     0     0   502   512  0.000000000E+00  0.000000000E+00  2.439930787E+02  2.439930787E+02  0.000000000E+00  0.00000E+00  9.000E+00
      21    -1     0     0   501   502  0.000000000E+00  0.000000000E+00 -7.273280838E+02  7.273280838E+02  0.000000000E+00  0.00000E+00  9.000E+00
      25     1     1     2     0     0 -2.239668102E+02 -4.014566870E+01 -6.015167498E+02  6.551489961E+02  1.250000000E+02  0.00000E+00  9.000E+00
      25     1     1     2     0     0  1.732549916E+02 -1.121728706E+01  1.173109913E+02  2.439876806E+02  1.250000000E+02  0.00000E+00  9.000E+00
      21     1     1     2   501   512  5.071181865E+01  5.136295576E+01  8.707533555E-01  7.218448578E+01  1.438830384E-06  0.00000E+00  9.000E+00
#rwgt            1           1   2.7821012434160238E-002           2      121619           0
</event>
<event>
      5   9999  3.19816E-02  1.42694E+02 -1.00000E+00  1.17260E-01
      21    -1     0     0   502   511  0.000000000E+00  0.000000000E+00  8.551406183E+02  8.551406183E+02  0.000000000E+00  0.00000E+00  9.000E+00
      21    -1     0     0   501   502  0.000000000E+00  0.000000000E+00 -5.263603036E+02  5.263603036E+02  0.000000000E+00  0.00000E+00  9.000E+00
      25     1     1     2     0     0  4.443143927E+02 -3.619149137E+02  7.074814269E+01  5.907859037E+02  1.250000000E+02  0.00000E+00  9.000E+00
      25     1     1     2     0     0 -3.540066565E+02  4.723961432E+02  1.898756645E+02  6.325793207E+02  1.250000000E+02  0.00000E+00  9.000E+00
      21     1     1     2   501   511 -9.030773621E+01 -1.104812296E+02  6.815650761E+01  1.581356975E+02  3.162979880E-06  0.00000E+00  9.000E+00
#rwgt            1           1   2.8984108447650977E-002           2      121783           0
</event>
<event>
      5   9999  3.19816E-02  4.62529E+01 -1.00000E+00  1.41034E-01
      21    -1     0     0   512   501  0.000000000E+00  0.000000000E+00  1.633299192E+03  1.633299192E+03  0.000000000E+00  0.00000E+00  9.000E+00
      21    -1     0     0   501   502  0.000000000E+00  0.000000000E+00 -4.883142418E+01  4.883142418E+01  0.000000000E+00  0.00000E+00  9.000E+00
      25     1     1     2     0     0 -1.402617614E+01 -1.427041232E+02  1.200345016E+03  1.215324796E+03  1.250000000E+02  0.00000E+00  9.000E+00
      25     1     1     2     0     0  5.431789722E+01  1.199904447E+02  1.734436043E+02  2.511091887E+02  1.250000000E+02  0.00000E+00  9.000E+00
      21     1     1     2   512   502 -4.029172108E+01  2.271367843E+01  2.106791472E+02  2.156966319E+02  2.697398305E-06  0.00000E+00  9.000E+00
#rwgt            1           1   2.6389384738122777E-002           2      121901           0
</event>
<event>
      5   9999  3.19816E-02  1.25710E+02 -1.00000E+00  1.19518E-01
      21    -1     0     0   502   511  0.000000000E+00  0.000000000E+00  3.506775835E+02  3.506775835E+02  0.000000000E+00  0.00000E+00  9.000E+00
      21    -1     0     0   501   502  0.000000000E+00  0.000000000E+00 -5.523234568E+02  5.523234568E+02  0.000000000E+00  0.00000E+00  9.000E+00
      25     1     1     2     0     0  1.033424537E+02 -1.969420008E+02 -4.075046441E+02  4.807814986E+02  1.250000000E+02  0.00000E+00  9.000E+00
      25     1     1     2     0     0  1.700398343E+01  1.606132797E+02  2.145446634E+02  2.962096785E+02  1.250000000E+02  0.00000E+00  9.000E+00
      21     1     1     2   501   511 -1.203464371E+02  3.632872109E+01 -8.685892543E+00  1.260098632E+02  4.915124924E-07  0.00000E+00  9.000E+00
#rwgt            1           1   2.8653979641569162E-002           2      121986           0
</event>
<event>
      5   9999  3.19816E-02  1.52542E+02 -1.00000E+00  1.16105E-01
      21    -1     0     0   502   501  0.000000000E+00  0.000000000E+00  3.312375978E+02  3.312375978E+02  0.000000000E+00  0.00000E+00  9.000E+00
       1    -1     0     0   501     0  0.000000000E+00  0.000000000E+00 -1.441282948E+03  1.441282948E+03  0.000000000E+00  0.00000E+00  9.000E+00
      25     1     1     2     0     0 -2.184373990E+02 -1.474299481E+02 -3.518319061E+02  4.570133226E+02  1.250000000E+02  0.00000E+00  9.000E+00
      25     1     1     2     0     0  2.303470655E+02 -4.646539436E+00  2.096802653E+02  3.356667612E+02  1.250000000E+02  0.00000E+00  9.000E+00
       1     1     1     2   502     0 -1.190966649E+01  1.520764875E+02 -9.678937097E+02  9.798404622E+02  1.525878906E-05  0.00000E+00  9.000E+00
#rwgt            1           1   2.9268195345929050E-002           2      122026           0
</event>
<event>
      5   9999  3.19816E-02  4.29081E+01 -1.00000E+00  1.42975E-01
       2    -1     0     0   502     0  0.000000000E+00  0.000000000E+00  3.001771832E+03  3.001771832E+03  0.000000000E+00  0.00000E+00  9.000E+00
      21    -1     0     0   501   502  0.000000000E+00  0.000000000E+00 -1.785247244E+02  1.785247244E+02  0.000000000E+00  0.00000E+00  9.000E+00
      25     1     1     2     0     0 -9.142090923E+01  8.494074511E+01  1.536044126E+02  2.340769711E+02  1.250000000E+02  0.00000E+00  9.000E+00
      25     1     1     2     0     0  5.096480649E+01 -7.064369107E+01 -9.610675784E+01  1.801373129E+02  1.250000000E+02  0.00000E+00  9.000E+00
       2     1     1     2   501     0  4.045610274E+01 -1.429705405E+01  2.765749453E+03  2.766082272E+03  4.315837288E-05  0.00000E+00  9.000E+00
#rwgt            1           1   2.7413652017255968E-002           2      122099           0
</event>
<event>
      5   9999  3.19816E-02  2.86522E+01 -1.00000E+00  1.54440E-01
      21    -1     0     0   511   501  0.000000000E+00  0.000000000E+00  8.335685185E+02  8.335685185E+02  0.000000000E+00  0.00000E+00  9.000E+00
      21    -1     0     0   501   502  0.000000000E+00  0.000000000E+00 -4.942144560E+01  4.942144560E+01  0.000000000E+00  0.00000E+00  9.000E+00
      25     1     1     2     0     0  5.823588749E+01 -6.179666394E+01  5.398830219E+02  5.606326102E+02  1.250000000E+02  0.00000E+00  9.000E+00
      25     1     1     2     0     0 -8.452872474E+01  7.318230526E+01  1.541189365E+02  2.277683070E+02  1.250000000E+02  0.00000E+00  9.000E+00
      21     1     1     2   511   502  2.629283725E+01 -1.138564131E+01  9.014511455E+01  9.458904691E+01  9.536743164E-07  0.00000E+00  9.000E+00
#rwgt            1           1   3.2116471332537561E-002           2      122178           0
</event>
<event>
      5   9999  3.19816E-02  1.21956E+01 -1.00000E+00  1.86293E-01
      21    -1     0     0   502   501  0.000000000E+00  0.000000000E+00  1.075587365E+01  1.075587365E+01  0.000000000E+00  0.00000E+00  9.000E+00
      21    -1     0     0   512   502  0.000000000E+00  0.000000000E+00 -3.433681630E+03  3.433681630E+03  0.000000000E+00  0.00000E+00  9.000E+00
      25     1     1     2     0     0 -1.217040533E+02  1.569315086E+01 -1.783965117E+03  1.792544195E+03  1.250000000E+02  0.00000E+00  9.000E+00
      25     1     1     2     0     0  1.241811467E+02 -2.763458211E+01 -1.241493044E+03  1.254238655E+03  1.250000000E+02  0.00000E+00  9.000E+00
      21     1     1     2   512   501 -2.477093380E+00  1.194143125E+01 -3.974675951E+02  3.976546528E+02  7.629394531E-06  0.00000E+00  9.000E+00
#rwgt            1           1   2.4310865082779090E-002           2      122282           0
</event>
<event>
      5   9999  3.19816E-02  1.07406E+02 -1.00000E+00  1.22448E-01
      21    -1     0     0   502   501  0.000000000E+00  0.000000000E+00  1.125431620E+02  1.125431620E+02  0.000000000E+00  0.00000E+00  9.000E+00
       2    -1     0     0   501     0  0.000000000E+00  0.000000000E+00 -1.206007176E+03  1.206007176E+03  0.000000000E+00  0.00000E+00  9.000E+00
      25     1     1     2     0     0  1.438289790E+02 -1.690637602E+02 -6.976835173E+02  7.427359023E+02  1.250000000E+02  0.00000E+00  9.000E+00
      25     1     1     2     0     0 -8.416306573E+01  7.975456764E+01 -5.029966311E+00  1.705711384E+02  1.250000000E+02  0.00000E+00  9.000E+00
       2     1     1     2   502     0 -5.966591325E+01  8.930919252E+01 -3.907505304E+02  4.052432974E+02  7.629394531E-06  0.00000E+00  9.000E+00
#rwgt            1           1   3.0063448816957581E-002           2      122418           0
</event>
<event>
      5   9999  3.19816E-02  1.15296E+02 -1.00000E+00  1.21110E-01
      21    -1     0     0   502   501  0.000000000E+00  0.000000000E+00  2.592055417E+02  2.592055417E+02  0.000000000E+00  0.00000E+00  9.000E+00
       1    -1     0     0   501     0  0.000000000E+00  0.000000000E+00 -1.604248608E+03  1.604248608E+03  0.000000000E+00  0.00000E+00  9.000E+00
      25     1     1     2     0     0  1.038548403E+02  1.524563686E+02  1.747517662E+02  2.831818355E+02  1.250000000E+02  0.00000E+00  9.000E+00
      25     1     1     2     0     0 -2.048412179E+02 -2.080884680E+02 -1.102065887E+03  1.146924127E+03  1.250000000E+02  0.00000E+00  9.000E+00
       1     1     1     2   502     0  1.009863777E+02  5.563209934E+01 -4.177289454E+02  4.333481865E+02  0.000000000E+00  0.00000E+00  9.000E+00
#rwgt            2          12   3.3085987217258922E-004           2      122471           0
</event>
<event>
      5   9999  3.19816E-02  5.48316E+02 -1.00000E+00  9.77271E-02
      21    -1     0     0   511   501  0.000000000E+00  0.000000000E+00  7.602911623E+02  7.602911623E+02  0.000000000E+00  0.00000E+00  9.000E+00
      21    -1     0     0   501   502  0.000000000E+00  0.000000000E+00 -9.384949785E+02  9.384949785E+02  0.000000000E+00  0.00000E+00  9.000E+00
      25     1     1     2     0     0  1.326008555E+02 -2.028495774E+02  1.147396125E+01  2.729241464E+02  1.250000000E+02  0.00000E+00  9.000E+00
      25     1     1     2     0     0  4.154089327E+02  1.845296372E+02 -5.839628182E+02  7.505020596E+02  1.250000000E+02  0.00000E+00  9.000E+00
      21     1     1     2   511   502 -5.480097881E+02  1.831994022E+01  3.942850408E+02  6.753599348E+02  1.206313194E-05  0.00000E+00  9.000E+00
#rwgt            1           1   2.8595956612760837E-002           2      122490           0
</event>
<event>
      5   9999  3.19816E-02  6.70745E+01 -1.00000E+00  1.32167E-01
      21    -1     0     0   502   512  0.000000000E+00  0.000000000E+00  4.571977435E+02  4.571977435E+02  0.000000000E+00  0.00000E+00  9.000E+00
      21    -1     0     0   501   502  0.000000000E+00  0.000000000E+00 -1.300176789E+02  1.300176789E+02  0.000000000E+00  0.00000E+00  9.000E+00
      25     1     1     2     0     0  7.663138799E+01  8.574183682E+01  1.024915623E+02  1.983772985E+02  1.250000000E+02  0.00000E+00  9.000E+00
      25     1     1     2     0     0 -6.836744975E+01 -1.523053217E+02  6.959596330E+01  2.198627238E+02  1.250000000E+02  0.00000E+00  9.000E+00
      21     1     1     2   501   512 -8.263938238E+00  6.656348486E+01  1.550925389E+02  1.689754001E+02  2.697398305E-06  0.00000E+00  9.000E+00
#rwgt            1           1   3.2655041735062819E-002           2      122532           0
</event>
<event>
      5   9999  3.19816E-02  6.41355E+01 -1.00000E+00  1.33175E-01
      21    -1     0     0   502   501  0.000000000E+00  0.000000000E+00  5.055725283E+01  5.055725283E+01  0.000000000E+00  0.00000E+00  9.000E+00
      21    -1     0     0   501   511  0.000000000E+00  0.000000000E+00 -2.531687149E+03  2.531687149E+03  0.000000000E+00  0.00000E+00  9.000E+00
      25     1     1     2     0     0 -3.365057065E+01  1.517200607E+02 -2.171086064E+02  2.948092344E+02  1.250000000E+02  0.00000E+00  9.000E+00
      25     1     1     2     0     0  3.099039465E+01 -2.158003609E+02 -1.517939461E+03  1.538601770E+03  1.250000000E+02  0.00000E+00  9.000E+00
      21     1     1     2   502   511  2.660176002E+00  6.408030019E+01 -7.460818285E+02  7.488333969E+02  1.868812365E-05  0.00000E+00  9.000E+00
#rwgt            1           1   3.2355934078315080E-002           2      122610           0
</event>
<event>
      5   9999  3.19816E-02  3.12641E+01 -1.00000E+00  1.51805E-01
      21    -1     0     0   502   501  0.000000000E+00  0.000000000E+00  2.934017783E+02  2.934017783E+02  0.000000000E+00  0.00000E+00  9.000E+00
      21    -1     0     0   501   512  0.000000000E+00  0.000000000E+00 -3.711510797E+02  3.711510797E+02  0.000000000E+00  0.00000E+00  9.000E+00
      25     1     1     2     0     0 -2.473344085E+02 -1.844959835E+01 -1.712507282E+02  3.262920612E+02  1.250000000E+02  0.00000E+00  9.000E+00
      25     1     1     2     0     0  2.172614598E+02  2.699739478E+01  1.352585260E+02  2.860966097E+02  1.250000000E+02  0.00000E+00  9.000E+00
      21     1     1     2   502   512  3.007294874E+01 -8.547796429E+00 -4.175709924E+01  5.216418701E+01  1.066240300E-06  0.00000E+00  9.000E+00
#rwgt            1           1   2.7054279185342995E-002           2      122700           0
</event>
<event>
      5   9999  3.19816E-02  4.18494E+01 -1.00000E+00  1.43633E-01
      21    -1     0     0   502   501  0.000000000E+00  0.000000000E+00  2.845208589E+02  2.845208589E+02  0.000000000E+00  0.00000E+00  9.000E+00
      21    -1     0     0   511   502  0.000000000E+00  0.000000000E+00 -2.394052084E+02  2.394052084E+02  0.000000000E+00  0.00000E+00  9.000E+00
      25     1     1     2     0     0  5.166953512E+00 -1.492702318E+02 -1.224925839E+02  2.300820128E+02  1.250000000E+02  0.00000E+00  9.000E+00
      25     1     1     2     0     0 -4.334649919E+01  1.321327485E+02  1.689030453E+02  2.519746434E+02  1.250000000E+02  0.00000E+00  9.000E+00
      21     1     1     2   511   501  3.817954568E+01  1.713748333E+01 -1.294810878E+00  4.186941101E+01  2.698715072E-07  0.00000E+00  9.000E+00
#rwgt            1           1   2.7020545887396438E-002           2      122884           0
</event>
<event>
      5   9999  3.19816E-02  2.44418E+01 -1.00000E+00  1.59489E-01
      21    -1     0     0   502   501  0.000000000E+00  0.000000000E+00  9.438512931E+02  9.438512931E+02  0.000000000E+00  0.00000E+00  9.000E+00
      21    -1     0     0   512   502  0.000000000E+00  0.000000000E+00 -1.222556413E+02  1.222556413E+02  0.000000000E+00  0.00000E+00  9.000E+00
      25     1     1     2     0     0 -1.123163057E+02 -3.101258272E+01  2.845706418E+01  1.732383829E+02  1.250000000E+02  0.00000E+00  9.000E+00
      25     1     1     2     0     0  1.245094384E+02  9.829351042E+00  8.300213416E+02  8.486222033E+02  1.250000000E+02  0.00000E+00  9.000E+00
      21     1     1     2   512   501 -1.219313275E+01  2.118323167E+01 -3.688275403E+01  4.424634827E+01  1.261592536E-06  0.00000E+00  9.000E+00
#rwgt            1           1   2.6482257008382040E-002           2      122936           0
</event>
<event>
      5   9999  3.19816E-02  8.57087E+02 -1.00000E+00  9.26283E-02
      21    -1     0     0   502   501  0.000000000E+00  0.000000000E+00  9.907838967E+02  9.907838967E+02  0.000000000E+00  0.00000E+00  9.000E+00
      21    -1     0     0   501   511  0.000000000E+00  0.000000000E+00 -1.775693740E+03  1.775693740E+03  0.000000000E+00  0.00000E+00  9.000E+00
      25     1     1     2     0     0  2.316502727E+02  6.448979393E+02  4.792851308E+01  6.981957772E+02  1.250000000E+02  0.00000E+00  9.000E+00
      25     1     1     2     0     0 -7.116672052E+02  6.515971184E+01  1.739728967E+02  7.460613700E+02  1.250000000E+02  0.00000E+00  9.000E+00
      21     1     1     2   502   511  4.800169325E+02 -7.100576511E+02 -1.006811253E+03  1.322220489E+03  0.000000000E+00  0.00000E+00  9.000E+00
#rwgt            2          11   8.7277562927443031E-004           2      123022           0
</event>
<event>
      5   9999  3.19816E-02  5.23103E+01 -1.00000E+00  1.37965E-01
      21    -1     0     0   502   501  0.000000000E+00  0.000000000E+00  1.643221892E+03  1.643221892E+03  0.000000000E+00  0.00000E+00  9.000E+00
      21    -1     0     0   501   512  0.000000000E+00  0.000000000E+00 -7.722471482E+02  7.722471482E+02  0.000000000E+00  0.00000E+00  9.000E+00
      25     1     1     2     0     0 -1.493264926E+02  7.665804477E+02  4.881950375E+02  9.294640277E+02  1.250000000E+02  0.00000E+00  9.000E+00
      25     1     1     2     0     0  1.985537309E+02 -7.842734843E+02  7.529030208E+02  1.112203417E+03  1.250000000E+02  0.00000E+00  9.000E+00
      21     1     1     2   502   512 -4.922723829E+01  1.769303656E+01 -3.701233147E+02  3.738015952E+02  5.394796609E-06  0.00000E+00  9.000E+00
#rwgt            1           1   3.4915919663424791E-002           2      123042           0
</event>
<event>
      5   9999  3.19816E-02  2.56800E+01 -1.00000E+00  1.57883E-01
      21    -1     0     0   511   501  0.000000000E+00  0.000000000E+00  1.863762162E+02  1.863762162E+02  0.000000000E+00  0.00000E+00  9.000E+00
      21    -1     0     0   501   502  0.000000000E+00  0.000000000E+00 -9.706427114E+02  9.706427114E+02  0.000000000E+00  0.00000E+00  9.000E+00
      25     1     1     2     0     0  1.638194042E+02 -2.519651283E+02 -4.541647775E+01  3.286500867E+02  1.250000000E+02  0.00000E+00  9.000E+00
      25     1     1     2     0     0 -1.892408662E+02  2.556000620E+02 -7.184413114E+02  7.955667257E+02  1.250000000E+02  0.00000E+00  9.000E+00
      21     1     1     2   511   502  2.542146196E+01 -3.634933742E+00 -2.040870608E+01  3.280211510E+01  3.371747881E-07  0.00000E+00  9.000E+00
#rwgt            1           1   2.3114868084874472E-002           2      123175           0
</event>
<event>
      5   9999  3.19816E-02  2.21738E+01 -1.00000E+00  1.62755E-01
      21    -1     0     0   502   501  0.000000000E+00  0.000000000E+00  3.053294230E+02  3.053294230E+02  0.000000000E+00  0.00000E+00  9.000E+00
       2    -1     0     0   501     0  0.000000000E+00  0.000000000E+00 -2.435527711E+03  2.435527711E+03  0.000000000E+00  0.00000E+00  9.000E+00
      25     1     1     2     0     0 -5.141578428E+02 -1.905494711E+02 -1.099565436E+03  1.235045155E+03  1.250000000E+02  0.00000E+00  9.000E+00
      25     1     1     2     0     0  5.009895194E+02  1.727092821E+02 -7.463655208E+01  5.495585588E+02  1.250000000E+02  0.00000E+00  9.000E+00
       2     1     1     2   502     0  1.316832334E+01  1.784018898E+01 -9.559962995E+02  9.562534192E+02  1.078959322E-05  0.00000E+00  9.000E+00
#rwgt            1           1   3.5489207765554462E-002           2      123373           0
</event>
<event>
      5   9999  3.19816E-02  8.73633E+01 -1.00000E+00  1.26526E-01
      21    -1     0     0   502   511  0.000000000E+00  0.000000000E+00  1.019052840E+02  1.019052840E+02  0.000000000E+00  0.00000E+00  9.000E+00
      21    -1     0     0   501   502  0.000000000E+00  0.000000000E+00 -6.734094052E+02  6.734094052E+02  0.000000000E+00  0.00000E+00  9.000E+00
      25     1     1     2     0     0 -1.598185955E+02  4.437193534E+01 -2.626071340E+02  3.348109301E+02  1.250000000E+02  0.00000E+00  9.000E+00
      25     1     1     2     0     0  8.128994286E+01 -8.265506241E+01 -3.092615861E+02  3.531396930E+02  1.250000000E+02  0.00000E+00  9.000E+00
      21     1     1     2   501   511  7.852865265E+01  3.828312707E+01  3.645989153E-01  8.736406606E+01  1.596007580E-06  0.00000E+00  9.000E+00
#rwgt            2          11   2.3998313080820714E-003           2      123593           0
</event>
<event>
      5   9999  3.19816E-02  3.66894E+01 -1.00000E+00  1.47206E-01
      21    -1     0     0   502   512  0.000000000E+00  0.000000000E+00  4.326540427E+02  4.326540427E+02  0.000000000E+00  0.00000E+00  9.000E+00
      21    -1     0     0   501   502  0.000000000E+00  0.000000000E+00 -5.138867497E+02  5.138867497E+02  0.000000000E+00  0.00000E+00  9.000E+00
      25     1     1     2     0     0 -5.345699200E+00 -7.162954586E+01 -3.039955446E+02  3.364485986E+02  1.250000000E+02  0.00000E+00  9.000E+00
      25     1     1     2     0     0 -1.154882664E+01  1.041976999E+02 -1.582687172E+02  2.272983126E+02  1.250000000E+02  0.00000E+00  9.000E+00
      21     1     1     2   501   512  1.689452584E+01 -3.256815408E+01  3.810315549E+02  3.827938812E+02  5.394796609E-06  0.00000E+00  9.000E+00
#rwgt            1           1   2.7998191775807636E-002           2      123613           0
</event>
<event>
      5   9999  3.19816E-02  1.57292E+02 -1.00000E+00  1.15582E-01
       2    -1     0     0   502     0  0.000000000E+00  0.000000000E+00  8.057446795E+02  8.057446795E+02  0.000000000E+00  0.00000E+00  9.000E+00
      21    -1     0     0   501   502  0.000000000E+00  0.000000000E+00 -1.924926175E+02  1.924926175E+02  0.000000000E+00  0.00000E+00  9.000E+00
      25     1     1     2     0     0 -1.512972571E+02  2.725361028E+02  7.058586628E+01  3.431823886E+02  1.250000000E+02  0.00000E+00  9.000E+00
      25     1     1     2     0     0  5.764648315E+01 -1.461619044E+02  3.736127187E+02  4.241437055E+02  1.250000000E+02  0.00000E+00  9.000E+00
       2     1     1     2   501     0  9.365077400E+01 -1.263741984E+02  1.690534770E+02  2.309112028E+02  0.000000000E+00  0.00000E+00  9.000E+00
#rwgt            1           1   2.6861637843187056E-002           2      123735           0
</event>
<event>
      5   9999  3.19816E-02  7.52041E+01 -1.00000E+00  1.29663E-01
      21    -1     0     0   502   501  0.000000000E+00  0.000000000E+00  5.001638811E+02  5.001638811E+02  0.000000000E+00  0.00000E+00  9.000E+00
      21    -1     0     0   511   502  0.000000000E+00  0.000000000E+00 -4.218118769E+02  4.218118769E+02  0.000000000E+00  0.00000E+00  9.000E+00
      25     1     1     2     0     0  1.334833645E+02 -2.428377724E+02 -2.368314682E+02  3.853597496E+02  1.250000000E+02  0.00000E+00  9.000E+00
      25     1     1     2     0     0 -5.829479520E+01  2.443670265E+02  3.542100702E+02  4.518885931E+02  1.250000000E+02  0.00000E+00  9.000E+00
      21     1     1     2   511   501 -7.518856927E+01 -1.529254153E+00 -3.902659776E+01  8.472741528E+01  1.168007728E-06  0.00000E+00  9.000E+00
#rwgt            1           1   3.1960935232705205E-002           2      123784           0
</event>
<event>
      5   9999  3.19816E-02  1.76559E+02 -1.00000E+00  1.13655E-01
       2    -1     0     0   502     0  0.000000000E+00  0.000000000E+00  1.131224315E+03  1.131224315E+03  0.000000000E+00  0.00000E+00  9.000E+00
      21    -1     0     0   501   502  0.000000000E+00  0.000000000E+00 -1.457254956E+02  1.457254956E+02  0.000000000E+00  0.00000E+00  9.000E+00
      25     1     1     2     0     0  8.307897232E+01 -2.549597113E+02  4.709697870E+02  5.561871181E+02  1.250000000E+02  0.00000E+00  9.000E+00
      25     1     1     2     0     0 -1.730434206E+02  1.030404142E+02  7.744838332E+01  2.493684111E+02  1.250000000E+02  0.00000E+00  9.000E+00
       2     1     1     2   501     0  8.996444830E+01  1.519192971E+02  4.370806494E+02  4.713942817E+02  7.629394531E-06  0.00000E+00  9.000E+00
#rwgt            1           1   2.6506597498346156E-002           2      123867           0
</event>
<event>
      5   9999  3.19916E-02  2.70498E+01 -1.00000E+00  1.56229E-01
      21    -1     0     0   502   511  0.000000000E+00  0.000000000E+00  2.948319269E+03  2.948319269E+03  0.000000000E+00  0.00000E+00  9.000E+00
      21    -1     0     0   501   502  0.000000000E+00  0.000000000E+00 -2.075744195E+02  2.075744195E+02  0.000000000E+00  0.00000E+00  9.000E+00
      25     1     1     2     0     0 -1.394914737E+01 -3.110496860E+02  2.575004179E+03  2.596770688E+03  1.250000000E+02  0.00000E+00  9.000E+00
      25     1     1     2     0     0  4.085935612E+01  3.137938652E+02 -4.806317672E+01  3.436148219E+02  1.250000000E+02  0.00000E+00  9.000E+00
      21     1     1     2   501   511 -2.691020875E+01 -2.744179210E+00  2.138038471E+02  2.155081783E+02  3.814697266E-06  0.00000E+00  9.000E+00
#rwgt            1           1   2.6932217411220087E-002           2      123926           0
</event>
<event>
      5   9999  3.19816E-02  1.00201E+02 -1.00000E+00  1.23789E-01
      21    -1     0     0   512   501  0.000000000E+00  0.000000000E+00  2.240952230E+02  2.240952230E+02  0.000000000E+00  0.00000E+00  9.000E+00
      21    -1     0     0   501   502  0.000000000E+00  0.000000000E+00 -1.161172582E+03  1.161172582E+03  0.000000000E+00  0.00000E+00  9.000E+00
      25     1     1     2     0     0  9.115183697E+01 -3.622416285E+02 -4.929843525E+02  6.310199890E+02  1.250000000E+02  0.00000E+00  9.000E+00
      25     1     1     2     0     0 -1.910431307E+02  3.701098950E+02 -4.801080592E+02  6.477712256E+02  1.250000000E+02  0.00000E+00  9.000E+00
      21     1     1     2   512   502  9.989129369E+01 -7.868266553E+00  3.601505308E+01  1.064765900E+02  1.966049969E-06  0.00000E+00  9.000E+00
#rwgt            1           1   2.5680136343434353E-002           2      124109           0
</event>
<event>
      5   9999  3.19816E-02  9.98340E+01 -1.00000E+00  1.23860E-01
      21    -1     0     0   502   501  0.000000000E+00  0.000000000E+00  2.657776322E+02  2.657776322E+02  0.000000000E+00  0.00000E+00  9.000E+00
      -2    -1     0     0     0   502  0.000000000E+00  0.000000000E+00 -3.171049831E+02  3.171049831E+02  0.000000000E+00  0.00000E+00  9.000E+00
      25     1     1     2     0     0  3.860297222E+01 -1.448917671E+02 -1.453394988E+02  2.433770398E+02  1.250000000E+02  0.00000E+00  9.000E+00
      25     1     1     2     0     0  3.360640388E+01  7.595243407E+01  1.603621443E+02  2.196341958E+02  1.250000000E+02  0.00000E+00  9.000E+00
      -2     1     1     2     0   501 -7.220937610E+01  6.893933300E+01 -6.634999642E+01  1.198713796E+02  2.336015456E-06  0.00000E+00  9.000E+00
#rwgt            1           1   2.9275600773472805E-002           2      124252           0
</event>
<event>
      5   9999  3.19816E-02  2.75229E+02 -1.00000E+00  1.06823E-01
      21    -1     0     0   502   501  0.000000000E+00  0.000000000E+00  1.532447968E+03  1.532447968E+03  0.000000000E+00  0.00000E+00  9.000E+00
      21    -1     0     0   501   511  0.000000000E+00  0.000000000E+00 -3.392695555E+02  3.392695555E+02  0.000000000E+00  0.00000E+00  9.000E+00
      25     1     1     2     0     0  6.726284585E+01 -3.447548708E+01  1.281277624E+03  1.289577527E+03  1.250000000E+02  0.00000E+00  9.000E+00
      25     1     1     2     0     0  1.019440077E+02  2.515463748E+02 -2.567138104E+01  2.999202880E+02  1.250000000E+02  0.00000E+00  9.000E+00
      21     1     1     2   502   511 -1.692068535E+02 -2.170708877E+02 -6.242783049E+01  2.822197080E+02  8.635888231E-06  0.00000E+00  9.000E+00
#rwgt            1           1   2.7540863233440762E-002           2      124340           0
</event>
<event>
      5   9999  3.19816E-02  4.18592E+01 -1.00000E+00  1.43627E-01
       2    -1     0     0   502     0  0.000000000E+00  0.000000000E+00  8.263135661E+02  8.263135661E+02  0.000000000E+00  0.00000E+00  9.000E+00
      21    -1     0     0   501   502  0.000000000E+00  0.000000000E+00 -2.453561855E+02  2.453561855E+02  0.000000000E+00  0.00000E+00  9.000E+00
      25     1     1     2     0     0  5.372680663E+00  9.990386277E+01 -1.149967799E+02  1.971266265E+02  1.250000000E+02  0.00000E+00  9.000E+00
      25     1     1     2     0     0  1.202214273E+01 -6.183005631E+01 -3.346975369E+01  1.439191168E+02  1.250000000E+02  0.00000E+00  9.000E+00
       2     1     1     2   501     0 -1.739482339E+01 -3.807380646E+01  7.294239142E+02  7.306240081E+02  0.000000000E+00  0.00000E+00  9.000E+00
#rwgt            1           1   4.8569556662608315E-002           2      124389           0
</event>
<event>
      5   9999  3.19816E-02  2.05086E+01 -1.00000E+00  1.65474E-01
      21    -1     0     0   502   501  0.000000000E+00  0.000000000E+00  1.419288400E+03  1.419288400E+03  0.000000000E+00  0.00000E+00  9.000E+00
      21    -1     0     0   501   511  0.000000000E+00  0.000000000E+00 -6.098345822E+01  6.098345822E+01  0.000000000E+00  0.00000E+00  9.000E+00
      25     1     1     2     0     0  6.131932963E+01  2.334885966E+02  8.153552106E+02  8.594801362E+02  1.250000000E+02  0.00000E+00  9.000E+00
      25     1     1     2     0     0 -4.105931717E+01 -2.366719180E+02  5.333390204E+02  5.981429386E+02  1.250000000E+02  0.00000E+00  9.000E+00
      21     1     1     2   502   511 -2.026001246E+01  3.183321341E+00  9.610711017E+00  2.264878376E+01  1.685873940E-07  0.00000E+00  9.000E+00
#rwgt            1           1   2.6347872598006510E-002           2      124459           0
</event>
<event>
      5   9999  3.19816E-02  4.73761E+02 -1.00000E+00  9.95217E-02
       2    -1     0     0   502     0  0.000000000E+00  0.000000000E+00  2.105442059E+03  2.105442059E+03  0.000000000E+00  0.00000E+00  9.000E+00
      21    -1     0     0   501   502  0.000000000E+00  0.000000000E+00 -7.338775676E+02  7.338775676E+02  0.000000000E+00  0.00000E+00  9.000E+00
      25     1     1     2     0     0 -2.944365103E+02  3.094715449E+02 -5.827535224E+02  7.332749577E+02  1.250000000E+02  0.00000E+00  9.000E+00
      25     1     1     2     0     0  2.052420628E+02  1.558173532E+02  4.965877795E+02  5.732606516E+02  1.250000000E+02  0.00000E+00  9.000E+00
       2     1     1     2   501     0  8.919444751E+01 -4.652888980E+02  1.457730234E+03  1.532784017E+03  2.157918644E-05  0.00000E+00  9.000E+00
#rwgt            2          18   1.7903182866562805E-003           2      124590           0
</event>
<event>
      5   9999  3.19816E-02  2.37357E+02 -1.00000E+00  1.09006E-01
      21    -1     0     0   502   501  0.000000000E+00  0.000000000E+00  4.460329491E+02  4.460329491E+02  0.000000000E+00  0.00000E+00  9.000E+00
       2    -1     0     0   501     0  0.000000000E+00  0.000000000E+00 -5.874171987E+02  5.874171987E+02  0.000000000E+00  0.00000E+00  9.000E+00
      25     1     1     2     0     0 -8.671743200E+01 -9.592158717E+00  1.668146231E+01  1.533466456E+02  1.250000000E+02  0.00000E+00  9.000E+00
      25     1     1     2     0     0  3.195924145E+02  5.550217219E+01  2.359346772E+02  4.201309015E+02  1.250000000E+02  0.00000E+00  9.000E+00
       2     1     1     2   502     0 -2.328749825E+02 -4.591001348E+01 -3.940003891E+02  4.599726007E+02  5.394796609E-06  0.00000E+00  9.000E+00
#rwgt            2          13   8.3598693445190457E-004           2      124609           0
</event>
<event>
      5   9999  3.19816E-02  4.18581E+01 -1.00000E+00  1.43628E-01
      21    -1     0     0   502   501  0.000000000E+00  0.000000000E+00  1.295508335E+03  1.295508335E+03  0.000000000E+00  0.00000E+00  9.000E+00
      21    -1     0     0   501   511  0.000000000E+00  0.000000000E+00 -2.395872541E+02  2.395872541E+02  0.000000000E+00  0.00000E+00  9.000E+00
      25     1     1     2     0     0  2.954493185E+02  2.237875698E+02  1.038160416E+03  1.109402193E+03  1.250000000E+02  0.00000E+00  9.000E+00
      25     1     1     2     0     0 -2.620860536E+02 -2.490658669E+02  7.647258503E+00  3.826308745E+02  1.250000000E+02  0.00000E+00  9.000E+00
      21     1     1     2   502   511 -3.336326489E+01  2.527829707E+01  1.011340580E+01  4.306252110E+01  4.129530925E-07  0.00000E+00  9.000E+00
#rwgt            1           1   2.8268799882196726E-002           2      124628           0
</event>
<event>
      5   9999  3.19816E-02  3.74224E+01 -1.00000E+00  1.46657E-01
      21    -1     0     0   502   501  0.000000000E+00  0.000000000E+00  2.989304716E+02  2.989304716E+02  0.000000000E+00  0.00000E+00  9.000E+00
      21    -1     0     0   501   512  0.000000000E+00  0.000000000E+00 -6.107639332E+02  6.107639332E+02  0.000000000E+00  0.00000E+00  9.000E+00
      25     1     1     2     0     0  9.663858927E+01 -3.380356765E+01  2.450278437E+02  2.935052679E+02  1.250000000E+02  0.00000E+00  9.000E+00
      25     1     1     2     0     0 -6.851809252E+01  5.849512612E+01 -1.777572725E+02  2.352425487E+02  1.250000000E+02  0.00000E+00  9.000E+00
      21     1     1     2   502   512 -2.812049675E+01 -2.469155847E+01 -3.791040328E+02  3.809465882E+02  5.394796609E-06  0.00000E+00  9.000E+00
#rwgt            1           1   2.7282726313345954E-002           2      124800           0
</event>
<event>
      5   9999  3.19816E-02  7.37459E+01 -1.00000E+00  1.30084E-01
      21    -1     0     0   502   511  0.000000000E+00  0.000000000E+00  1.341497520E+03  1.341497520E+03  0.000000000E+00  0.00000E+00  9.000E+00
      21    -1     0     0   501   502  0.000000000E+00  0.000000000E+00 -1.207347893E+02  1.207347893E+02  0.000000000E+00  0.00000E+00  9.000E+00
      25     1     1     2     0     0 -2.244956175E+02  1.919467350E+02  7.253508269E+02  7.930956143E+02  1.250000000E+02  0.00000E+00  9.000E+00
      25     1     1     2     0     0  2.277626194E+02 -1.182732661E+02  1.631657425E+02  3.288045556E+02  1.250000000E+02  0.00000E+00  9.000E+00
      21     1     1     2   501   511 -3.267001955E+00 -7.367346887E+01  3.322461615E+02  3.403321395E+02  3.814697266E-06  0.00000E+00  9.000E+00
#rwgt            1           1   2.8942041694688638E-002           2      124900           0
</event>
<event>
      5   9999  3.19816E-02  2.80334E+02 -1.00000E+00  1.06558E-01
       2    -1     0     0   502     0  0.000000000E+00  0.000000000E+00  7.729101827E+02  7.729101827E+02  0.000000000E+00  0.00000E+00  9.000E+00
      21    -1     0     0   501   502  0.000000000E+00  0.000000000E+00 -3.100506596E+02  3.100506596E+02  0.000000000E+00  0.00000E+00  9.000E+00
      25     1     1     2     0     0 -3.897095160E+01 -1.693270484E+02  1.688441793E+02  2.726238091E+02  1.250000000E+02  0.00000E+00  9.000E+00
      25     1     1     2     0     0  1.405549815E+02  4.306077465E+02  1.391329261E+02  4.900629605E+02  1.250000000E+02  0.00000E+00  9.000E+00
       2     1     1     2   501     0 -1.015840299E+02 -2.612806980E+02  1.548824178E+02  3.202740727E+02  5.722045898E-06  0.00000E+00  9.000E+00
#rwgt            2          18   3.9603621373540551E-004           2      125005           0
</event>
<event>
      5   9999  3.19816E-02  1.78882E+01 -1.00000E+00  1.70470E-01
      21    -1     0     0   502   501  0.000000000E+00  0.000000000E+00  1.628062327E+02  1.628062327E+02  0.000000000E+00  0.00000E+00  9.000E+00
      21    -1     0     0   501   511  0.000000000E+00  0.000000000E+00 -4.892149638E+02  4.892149638E+02  0.000000000E+00  0.00000E+00  9.000E+00
      25     1     1     2     0     0  2.358853437E+01 -1.156163444E+02 -2.186633683E+02  2.781406599E+02  1.250000000E+02  0.00000E+00  9.000E+00
      25     1     1     2     0     0 -6.907859081E+00  1.220771999E+02  7.499806312E+01  1.902636874E+02  1.250000000E+02  0.00000E+00  9.000E+00
      21     1     1     2   502   511 -1.668067529E+01 -6.460855512E+00 -1.827434260E+02  1.836168493E+02  2.697398305E-06  0.00000E+00  9.000E+00
#rwgt            1           1   2.6534385977976232E-002           2      125069           0
</event>
<event>
      5   9999  3.19816E-02  1.82337E+02 -1.00000E+00  1.13130E-01
      21    -1     0     0   502   512  0.000000000E+00  0.000000000E+00  7.361140595E+02  7.361140595E+02  0.000000000E+00  0.00000E+00  9.000E+00
      21    -1     0     0   501   502  0.000000000E+00  0.000000000E+00 -1.351862428E+03  1.351862428E+03  0.000000000E+00  0.00000E+00  9.000E+00
      25     1     1     2     0     0 -2.701615791E+02 -2.141471463E+02  1.397756840E+02  3.924391939E+02  1.250000000E+02  0.00000E+00  9.000E+00
      25     1     1     2     0     0  2.846940285E+02  3.239054768E+01 -1.186810293E+03  1.227291126E+03  1.250000000E+02  0.00000E+00  9.000E+00
      21     1     1     2   501   512 -1.453244939E+01  1.817565986E+02  4.312862398E+02  4.682461680E+02  5.394796609E-06  0.00000E+00  9.000E+00
#rwgt            1           1   3.0769039152387576E-002           2      125207           0
</event>
<event>
      5   9999  3.19816E-02  4.72658E+01 -1.00000E+00  1.40483E-01
      21    -1     0     0   502   501  0.000000000E+00  0.000000000E+00  3.724091194E+02  3.724091194E+02  0.000000000E+00  0.00000E+00  9.000E+00
      21    -1     0     0   501   511  0.000000000E+00  0.000000000E+00 -9.852767329E+01  9.852767329E+01  0.000000000E+00  0.00000E+00  9.000E+00
      25     1     1     2     0     0  4.946761481E+01 -1.050947118E+02  1.943834761E+02  2.586539757E+02  1.250000000E+02  0.00000E+00  9.000E+00
      25     1     1     2     0     0 -5.715721335E+01  5.845861010E+01  5.619276903E+01  1.595837818E+02  1.250000000E+02  0.00000E+00  9.000E+00
      21     1     1     2   502   511  7.689598540E+00  4.663610174E+01  2.330520095E+01  5.269903512E+01  8.259061849E-07  0.00000E+00  9.000E+00
#rwgt            1           1   2.5768195387345573E-002           2      125305           0
</event>
<event>
      5   9999  3.19816E-02  8.67816E+00 -1.00000E+00  2.03155E-01
       1    -1     0     0   502     0  0.000000000E+00  0.000000000E+00  1.193780160E+02  1.193780160E+02  0.000000000E+00  0.00000E+00  9.000E+00
      21    -1     0     0   501   502  0.000000000E+00  0.000000000E+00 -5.794801969E+02  5.794801969E+02  0.000000000E+00  0.00000E+00  9.000E+00
      25     1     1     2     0     0 -5.875757569E+00 -8.400786777E+01 -4.665167317E+02  4.902598365E+02  1.250000000E+02  0.00000E+00  9.000E+00
      25     1     1     2     0     0 -2.800542899E+00  8.418733780E+01 -4.433072629E+01  1.571164033E+02  1.250000000E+02  0.00000E+00  9.000E+00
       1     1     1     2   501     0  8.676300469E+00 -1.794700326E-01  5.074527709E+01  5.148197303E+01  1.168007728E-06  0.00000E+00  9.000E+00
#rwgt            1           1   3.5369280631583670E-002           2      125398           0
</event>
<event>
      5   9999  3.19816E-02  1.94171E+02 -1.00000E+00  1.12118E-01
      21    -1     0     0   502   501  0.000000000E+00  0.000000000E+00  4.644643512E+02  4.644643512E+02  0.000000000E+00  0.00000E+00  9.000E+00
      21    -1     0     0   501   511  0.000000000E+00  0.000000000E+00 -8.167776683E+02  8.167776683E+02  0.000000000E+00  0.00000E+00  9.000E+00
      25     1     1     2     0     0 -1.429330776E+02 -5.145469463E+02  5.753880888E+01  5.514745136E+02  1.250000000E+02  0.00000E+00  9.000E+00
      25     1     1     2     0     0  3.359391818E+01  3.540874962E+02 -1.508494085E+02  4.060628650E+02  1.250000000E+02  0.00000E+00  9.000E+00
      21     1     1     2   502   511  1.093391594E+02  1.604594500E+02 -2.590027175E+02  3.237046409E+02  3.814697266E-06  0.00000E+00  9.000E+00
#rwgt            1           1   3.1107731581641374E-002           2      125686           0
</event>
<event>
      5   9999  3.19816E-02  1.29528E+02 -1.00000E+00  1.18976E-01
      21    -1     0     0   502   501  0.000000000E+00  0.000000000E+00  1.233946332E+02  1.233946332E+02  0.000000000E+00  0.00000E+00  9.000E+00
      21    -1     0     0   501   512  0.000000000E+00  0.000000000E+00 -9.538661938E+02  9.538661938E+02  0.000000000E+00  0.00000E+00  9.000E+00
      25     1     1     2     0     0 -6.710435063E+01 -7.805577606E+01  2.271723999E+01  1.635138252E+02  1.250000000E+02  0.00000E+00  9.000E+00
      25     1     1     2     0     0 -5.967097446E+01  5.149258099E+01 -6.887284266E+02  7.044032629E+02  1.250000000E+02  0.00000E+00  9.000E+00
      21     1     1     2   502   512  1.267753251E+02  2.656319507E+01 -1.644603740E+02  2.093437388E+02  2.697398305E-06  0.00000E+00  9.000E+00
#rwgt            1           1   2.9173989710386469E-002           2      125751           0
</event>
<event>
      5   9999  3.19816E-02  4.14018E+01 -1.00000E+00  1.43918E-01
      21    -1     0     0   502   501  0.000000000E+00  0.000000000E+00  1.379029025E+03  1.379029025E+03  0.000000000E+00  0.00000E+00  9.000E+00
      21    -1     0     0   501   511  0.000000000E+00  0.000000000E+00 -1.089214532E+02  1.089214532E+02  0.000000000E+00  0.00000E+00  9.000E+00
      25     1     1     2     0     0  5.780199455E+01 -3.060423155E+02  3.800152592E+02  5.069906969E+02  1.250000000E+02  0.00000E+00  9.000E+00
      25     1     1     2     0     0 -1.881060242E+01  3.199628158E+02  8.687339253E+02  9.343734132E+02  1.250000000E+02  0.00000E+00  9.000E+00
      21     1     1     2   502   511 -3.899139214E+01 -1.392050036E+01  2.135838728E+01  4.658636816E+01  2.384185791E-07  0.00000E+00  9.000E+00
#rwgt            1           1   2.8378493338619609E-002           2      125796           0
</event>
<event>
      5   9999  3.19816E-02  3.21227E+01 -1.00000E+00  1.51006E-01
      21    -1     0     0   502   512  0.000000000E+00  0.000000000E+00  3.987726145E+02  3.987726145E+02  0.000000000E+00  0.00000E+00  9.000E+00
      21    -1     0     0   501   502  0.000000000E+00  0.000000000E+00 -2.119594484E+02  2.119594484E+02  0.000000000E+00  0.00000E+00  9.000E+00
      25     1     1     2     0     0 -1.442959936E+02  1.828051968E+02  7.473995161E+01  2.746818780E+02  1.250000000E+02  0.00000E+00  9.000E+00
      25     1     1     2     0     0  1.763891351E+02 -1.841824031E+02  9.382446988E+01  2.991058604E+02  1.250000000E+02  0.00000E+00  9.000E+00
      21     1     1     2   501   512 -3.209314152E+01  1.377206279E+00  1.824874461E+01  3.694432446E+01  3.371747881E-07  0.00000E+00  9.000E+00
#rwgt            1           1   3.1521329298899517E-002           2      125925           0
</event>
<event>
      5   9999  3.19816E-02  5.81258E+01 -1.00000E+00  1.35444E-01
      21    -1     0     0   502   501  0.000000000E+00  0.000000000E+00  2.199307392E+02  2.199307392E+02  0.000000000E+00  0.00000E+00  9.000E+00
       2    -1     0     0   501     0  0.000000000E+00  0.000000000E+00 -4.354664832E+02  4.354664832E+02  0.000000000E+00  0.00000E+00  9.000E+00
      25     1     1     2     0     0 -9.190261362E+01 -1.859432784E+02 -1.924416676E+02  3.093214971E+02  1.250000000E+02  0.00000E+00  9.000E+00
      25     1     1     2     0     0  7.084182959E+01  2.401194199E+02  8.433608969E+00  2.799500427E+02  1.250000000E+02  0.00000E+00  9.000E+00
       2     1     1     2   502     0  2.106078403E+01 -5.417614157E+01 -3.152768541E+01  6.612568250E+01  1.719260824E-06  0.00000E+00  9.000E+00
#rwgt            1           1   2.5800163294295173E-002           2      126076           0
</event>
<event>
      5   9999  3.19816E-02  2.82480E+02 -1.00000E+00  1.06448E-01
      21    -1     0     0   502   501  0.000000000E+00  0.000000000E+00  4.187255820E+02  4.187255820E+02  0.000000000E+00  0.00000E+00  9.000E+00
       2    -1     0     0   501     0  0.000000000E+00  0.000000000E+00 -1.993150455E+03  1.993150455E+03  0.000000000E+00  0.00000E+00  9.000E+00
      25     1     1     2     0     0 -3.926398505E+02  5.984877947E+01  1.992555192E+02  4.616012246E+02  1.250000000E+02  0.00000E+00  9.000E+00
      25     1     1     2     0     0  1.128353166E+02 -9.863462489E+01 -4.712573171E+01  2.007646196E+02  1.250000000E+02  0.00000E+00  9.000E+00
       2     1     1     2   502     0  2.798045340E+02  3.878584542E+01 -1.726554661E+03  1.749510193E+03  0.000000000E+00  0.00000E+00  9.000E+00
#rwgt            1           1   2.6679713330441529E-002           2      126187           0
</event>
<event>
      5   9999  3.19816E-02  1.06217E+02 -1.00000E+00  1.22661E-01
      21    -1     0     0   502   501  0.000000000E+00  0.000000000E+00  2.117965584E+02  2.117965584E+02  0.000000000E+00  0.00000E+00  9.000E+00
       2    -1     0     0   501     0  0.000000000E+00  0.000000000E+00 -1.932477805E+03  1.932477805E+03  0.000000000E+00  0.00000E+00  9.000E+00
      25     1     1     2     0     0 -1.911162230E+01  7.965925628E+00  1.770203922E+02  2.176922813E+02  1.250000000E+02  0.00000E+00  9.000E+00
      25     1     1     2     0     0  1.071063435E+02  5.152396708E+01 -5.933387793E+02  6.179016062E+02  1.250000000E+02  0.00000E+00  9.000E+00
       2     1     1     2   502     0 -8.799472117E+01 -5.948989271E+01 -1.304362859E+03  1.308680475E+03  2.157918644E-05  0.00000E+00  9.000E+00
#rwgt            1           1   2.9922646956918163E-002           2      126230           0
</event>
<event>
      5   9999  3.19816E-02  2.73872E+01 -1.00000E+00  1.55840E-01
      21    -1     0     0   502   501  0.000000000E+00  0.000000000E+00  2.393592968E+02  2.393592968E+02  0.000000000E+00  0.00000E+00  9.000E+00
      21    -1     0     0   511   502  0.000000000E+00  0.000000000E+00 -1.342901630E+03  1.342901630E+03  0.000000000E+00  0.00000E+00  9.000E+00
      25     1     1     2     0     0 -3.770242872E+02 -2.329645612E+02 -9.922811824E+02  1.093922641E+03  1.250000000E+02  0.00000E+00  9.000E+00
      25     1     1     2     0     0  3.561716142E+02  2.152099611E+02 -7.194794344E+01  4.404259900E+02  1.250000000E+02  0.00000E+00  9.000E+00
      21     1     1     2   511   501  2.085267303E+01  1.775460016E+01 -3.931320700E+01  4.791229533E+01  8.259061849E-07  0.00000E+00  9.000E+00
#rwgt            1           1   3.0316351006252604E-002           2      126337           0
</event>
<event>
      5   9999  3.19816E-02  6.76372E+01 -1.00000E+00  1.31980E-01
      21    -1     0     0   502   512  0.000000000E+00  0.000000000E+00  1.926377286E+03  1.926377286E+03  0.000000000E+00  0.00000E+00  9.000E+00
      21    -1     0     0   501   502  0.000000000E+00  0.000000000E+00 -1.622921045E+02  1.622921045E+02  0.000000000E+00  0.00000E+00  9.000E+00
      25     1     1     2     0     0  1.721405474E+02  3.678113824E+02  2.798645907E+02  5.087895147E+02  1.250000000E+02  0.00000E+00  9.000E+00
      25     1     1     2     0     0 -1.427004777E+02 -4.287053278E+02  1.358576361E+03  1.437186979E+03  1.250000000E+02  0.00000E+00  9.000E+00
      21     1     1     2   501   512 -2.944006969E+01  6.089394534E+01  1.256442305E+02  1.426928973E+02  0.000000000E+00  0.00000E+00  9.000E+00
#rwgt            1           1   2.3159192687258169E-002           2      126526           0
</event>
<event>
      5   9999  3.19816E-02  2.75087E+02 -1.00000E+00  1.06830E-01
      21    -1     0     0   502   511  0.000000000E+00  0.000000000E+00  1.161418502E+03  1.161418502E+03  0.000000000E+00  0.00000E+00  9.000E+00
      21    -1     0     0   501   502  0.000000000E+00  0.000000000E+00 -1.350803037E+03  1.350803037E+03  0.000000000E+00  0.00000E+00  9.000E+00
      25     1     1     2     0     0 -5.785433045E+02  7.624335800E+02 -2.348123711E+02  9.933675899E+02  1.250000000E+02  0.00000E+00  9.000E+00
      25     1     1     2     0     0  3.212206008E+02 -8.596844804E+02 -3.890590483E+02  1.004605407E+03  1.250000000E+02  0.00000E+00  9.000E+00
      21     1     1     2   501   511  2.573227037E+02  9.725090037E+01  4.344868838E+02  5.142485427E+02  7.629394531E-06  0.00000E+00  9.000E+00
#rwgt            2          11   3.9402662485654005E-003           2      126689           0
</event>
<event>
      5   9999  3.19816E-02  3.16358E+01 -1.00000E+00  1.51455E-01
      21    -1     0     0   502   501  0.000000000E+00  0.000000000E+00  5.603744658E+02  5.603744658E+02  0.000000000E+00  0.00000E+00  9.000E+00
       2    -1     0     0   501     0  0.000000000E+00  0.000000000E+00 -1.967835449E+03  1.967835449E+03  0.000000000E+00  0.00000E+00  9.000E+00
      25     1     1     2     0     0 -3.211801315E+01  2.329808910E+00 -7.373402260E+00  1.292917702E+02  1.250000000E+02  0.00000E+00  9.000E+00
      25     1     1     2     0     0  6.360081230E+01  7.780493709E-01  4.894334123E+02  5.091323342E+02  1.250000000E+02  0.00000E+00  9.000E+00
       2     1     1     2   502     0 -3.148279914E+01 -3.107858281E+00 -1.889520993E+03  1.889785810E+03  2.157918644E-05  0.00000E+00  9.000E+00
#rwgt            1           1   2.6992042525611961E-002           2      126709           0
</event>
<event>
      5   9999  3.19816E-02  9.23496E+02 -1.00000E+00  9.18287E-02
      21    -1     0     0   502   501  0.000000000E+00  0.000000000E+00  1.505868626E+03  1.505868626E+03  0.000000000E+00  0.00000E+00  9.000E+00
      21    -1     0     0   501   511  0.000000000E+00  0.000000000E+00 -1.098958469E+03  1.098958469E+03  0.000000000E+00  0.00000E+00  9.000E+00
      25     1     1     2     0     0 -4.506793664E+02 -7.928564214E+02  3.976674725E+02  1.002745040E+03  1.250000000E+02  0.00000E+00  9.000E+00
      25     1     1     2     0     0  6.412369851E+02 -1.107659211E+02 -1.072977751E+02  6.712613298E+02  1.250000000E+02  0.00000E+00  9.000E+00
      21     1     1     2   502   511 -1.905576187E+02  9.036223425E+02  1.165404600E+02  9.308207254E+02  1.000222061E-05  0.00000E+00  9.000E+00
#rwgt            2          11   1.0752639610825962E-003           2      126819           0
</event>
<event>
      5   9999  3.19816E-02  3.89965E+01 -1.00000E+00  1.45528E-01
      21    -1     0     0   502   501  0.000000000E+00  0.000000000E+00  7.194083978E+01  7.194083978E+01  0.000000000E+00  0.00000E+00  9.000E+00
      21    -1     0     0   512   502  0.000000000E+00  0.000000000E+00 -7.590933446E+02  7.590933446E+02  0.000000000E+00  0.00000E+00  9.000E+00
      25     1     1     2     0     0  3.259673081E+01 -1.396833341E+02 -4.008590234E+02  4.437194354E+02  1.250000000E+02  0.00000E+00  9.000E+00
      25     1     1     2     0     0 -7.055250771E+01  1.307340593E+02 -1.494091456E+02  2.449839656E+02  1.250000000E+02  0.00000E+00  9.000E+00
      21     1     1     2   512   501  3.795577690E+01  8.949274765E+00 -1.368843358E+02  1.423307834E+02  1.907348633E-06  0.00000E+00  9.000E+00
#rwgt            1           1   2.6859328161797084E-002           2      126839           0
</event>
<event>
      5   9999  3.19816E-02  2.41169E+01 -1.00000E+00  1.59930E-01
      21    -1     0     0   502   501  0.000000000E+00  0.000000000E+00  3.308987309E+02  3.308987309E+02  0.000000000E+00  0.00000E+00  9.000E+00
      21    -1     0     0   501   511  0.000000000E+00  0.000000000E+00 -1.108943352E+03  1.108943352E+03  0.000000000E+00  0.00000E+00  9.000E+00
      25     1     1     2     0     0  3.994014165E+02  1.296884914E+02 -8.329036243E+02  9.411131938E+02  1.250000000E+02  0.00000E+00  9.000E+00
      25     1     1     2     0     0 -4.026211615E+02 -1.057874850E+02  1.013912549E+02  4.463182477E+02  1.250000000E+02  0.00000E+00  9.000E+00
      21     1     1     2   502   511  3.219744992E+00 -2.390100647E+01 -4.653225164E+01  5.241064119E+01  6.743495762E-07  0.00000E+00  9.000E+00
#rwgt            1           1   2.8962932034586334E-002           2      126936           0
</event>
<event>
      5   9999  3.19816E-02  2.12741E+02 -1.00000E+00  1.10680E-01
      21    -1     0     0   502   512  0.000000000E+00  0.000000000E+00  1.176764311E+03  1.176764311E+03  0.000000000E+00  0.00000E+00  9.000E+00
      21    -1     0     0   501   502  0.000000000E+00  0.000000000E+00 -4.783146864E+02  4.783146864E+02  0.000000000E+00  0.00000E+00  9.000E+00
      25     1     1     2     0     0  1.969982057E+01  4.963637279E+02  4.436180611E+02  6.776333945E+02  1.250000000E+02  0.00000E+00  9.000E+00
      25     1     1     2     0     0 -1.275882941E+02 -3.130088368E+02 -2.439498046E+02  4.351893978E+02  1.250000000E+02  0.00000E+00  9.000E+00
      21     1     1     2   501   512  1.078884735E+02 -1.833548911E+02  4.987813681E+02  5.422562051E+02  0.000000000E+00  0.00000E+00  9.000E+00
#rwgt            2          11   3.0007863876602482E-003           2      127224           0
</event>
<event>
      5   9999  3.19816E-02  6.31484E+01 -1.00000E+00  1.33527E-01
      21    -1     0     0   502   511  0.000000000E+00  0.000000000E+00  2.305437727E+03  2.305437727E+03  0.000000000E+00  0.00000E+00  9.000E+00
      21    -1     0     0   501   502  0.000000000E+00  0.000000000E+00 -1.222286323E+02  1.222286323E+02  0.000000000E+00  0.00000E+00  9.000E+00
      25     1     1     2     0     0  4.237567729E+02 -1.886765888E+02  7.613997284E+02  9.002906221E+02  1.250000000E+02  0.00000E+00  9.000E+00
      25     1     1     2     0     0 -4.311545184E+02  1.259630186E+02  1.031352334E+03  1.131845192E+03  1.250000000E+02  0.00000E+00  9.000E+00
      21     1     1     2   501   511  7.397745530E+00  6.271357017E+01  3.904570323E+02  3.955305457E+02  5.394796609E-06  0.00000E+00  9.000E+00
#rwgt            1           1   2.7534340103339914E-002           2      127244           0
</event>
<event>
      5   9999  3.19816E-02  2.20211E+01 -1.00000E+00  1.62992E-01
      21    -1     0     0   512   501  0.000000000E+00  0.000000000E+00  9.475350962E+02  9.475350962E+02  0.000000000E+00  0.00000E+00  9.000E+00
      21    -1     0     0   501   502  0.000000000E+00  0.000000000E+00 -2.714625709E+02  2.714625709E+02  0.000000000E+00  0.00000E+00  9.000E+00
      25     1     1     2     0     0 -7.532552515E+01 -3.183134298E+01  5.700277853E+01  1.598795981E+02  1.250000000E+02  0.00000E+00  9.000E+00
      25     1     1     2     0     0  6.024780161E+01  4.788098873E+01 -1.953757863E+02  2.443748853E+02  1.250000000E+02  0.00000E+00  9.000E+00
      21     1     1     2   512   502  1.507772354E+01 -1.604964575E+01  8.144455331E+02  8.147431836E+02  1.078959322E-05  0.00000E+00  9.000E+00
#rwgt            1           1   2.4484834748185757E-002           2      127336           0
</event>
<event>
      5   9999  3.19816E-02  2.02966E+02 -1.00000E+00  1.11416E-01
      21    -1     0     0   502   501  0.000000000E+00  0.000000000E+00  4.392979159E+02  4.392979159E+02  0.000000000E+00  0.00000E+00  9.000E+00
      21    -1     0     0   511   502  0.000000000E+00  0.000000000E+00 -1.255101948E+03  1.255101948E+03  0.000000000E+00  0.00000E+00  9.000E+00
      25     1     1     2     0     0 -9.817451664E+01 -5.555204684E+02 -2.287621844E+02  6.214486009E+02  1.250000000E+02  0.00000E+00  9.000E+00
      25     1     1     2     0     0 -7.722810029E+01  6.576426231E+02 -3.448914269E+02  7.569894950E+02  1.250000000E+02  0.00000E+00  9.000E+00
      21     1     1     2   511   501  1.754026169E+02 -1.021221547E+02 -2.421504204E+02  3.159617676E+02  2.697398305E-06  0.00000E+00  9.000E+00
#rwgt            1           1   2.2513489158445067E-002           2      127510           0
</event>
<event>
      5   9999  3.19816E-02  4.21446E+01 -1.00000E+00  1.43447E-01
      21    -1     0     0   512   501  0.000000000E+00  0.000000000E+00  1.670136440E+03  1.670136440E+03  0.000000000E+00  0.00000E+00  9.000E+00
      21    -1     0     0   501   502  0.000000000E+00  0.000000000E+00 -1.719102945E+02  1.719102945E+02  0.000000000E+00  0.00000E+00  9.000E+00
      25     1     1     2     0     0 -9.241583722E+01  3.407672797E+02  1.191847149E+02  3.930560038E+02  1.250000000E+02  0.00000E+00  9.000E+00
      25     1     1     2     0     0  5.817343842E+01 -3.653360012E+02  1.319334075E+03  1.375907680E+03  1.250000000E+02  0.00000E+00  9.000E+00
      21     1     1     2   512   502  3.424239880E+01  2.456872148E+01  5.970735552E+01  7.308305039E+01  6.743495762E-07  0.00000E+00  9.000E+00
#rwgt            1           1   2.8390748777932500E-002           2      127592           0
</event>
<event>
      5   9999  3.19816E-02  4.76223E+01 -1.00000E+00  1.40294E-01
      21    -1     0     0   502   501  0.000000000E+00  0.000000000E+00  8.717145262E+02  8.717145262E+02  0.000000000E+00  0.00000E+00  9.000E+00
      -1    -1     0     0     0   502  0.000000000E+00  0.000000000E+00 -3.552408008E+02  3.552408008E+02  0.000000000E+00  0.00000E+00  9.000E+00
      25     1     1     2     0     0  8.475468600E+01 -1.011573067E+02  2.963142026E+02  3.476251777E+02  1.250000000E+02  0.00000E+00  9.000E+00
      25     1     1     2     0     0 -9.629486052E+01  5.495437949E+01  5.352182192E+02  5.606926308E+02  1.250000000E+02  0.00000E+00  9.000E+00
      -1     1     1     2     0   501  1.154017452E+01  4.620292716E+01 -3.150586963E+02  3.186375186E+02  3.814697266E-06  0.00000E+00  9.000E+00
#rwgt            1           1   2.2751711075581712E-002           2      127697           0
</event>
<event>
      5   9999  3.19816E-02  1.85099E+01 -1.00000E+00  1.69192E-01
      21    -1     0     0   502   511  0.000000000E+00  0.000000000E+00  1.732307513E+02  1.732307513E+02  0.000000000E+00  0.00000E+00  9.000E+00
      21    -1     0     0   501   502  0.000000000E+00  0.000000000E+00 -9.375644022E+02  9.375644022E+02  0.000000000E+00  0.00000E+00  9.000E+00
      25     1     1     2     0     0  1.644411708E+02 -1.606701730E+02  3.519375982E+00  2.617120348E+02  1.250000000E+02  0.00000E+00  9.000E+00
      25     1     1     2     0     0 -1.748937041E+02  1.759462928E+02 -7.792915225E+02  8.273241098E+02  1.250000000E+02  0.00000E+00  9.000E+00
      21     1     1     2   501   511  1.045253328E+01 -1.527611987E+01  1.143849553E+01  2.175900894E+01  2.920019320E-07  0.00000E+00  9.000E+00
#rwgt            1           1   3.5320399835555918E-002           2      127778           0
</event>
<event>
      5   9999  3.19816E-02  2.45715E+02 -1.00000E+00  1.08487E-01
       2    -1     0     0   502     0  0.000000000E+00  0.000000000E+00  2.368137708E+03  2.368137708E+03  0.000000000E+00  0.00000E+00  9.000E+00
      21    -1     0     0   501   502  0.000000000E+00  0.000000000E+00 -5.480722003E+02  5.480722003E+02  0.000000000E+00  0.00000E+00  9.000E+00
      25     1     1     2     0     0 -4.655271829E+02  2.220916126E+02 -9.957341061E+01  5.399815798E+02  1.250000000E+02  0.00000E+00  9.000E+00
      25     1     1     2     0     0  2.200421130E+02 -2.114669294E+02 -9.771747897E+01  3.439629333E+02  1.250000000E+02  0.00000E+00  9.000E+00
       2     1     1     2   501     0  2.454850699E+02 -1.062468314E+01  2.017356397E+03  2.032265395E+03  2.157918644E-05  0.00000E+00  9.000E+00
#rwgt            1           1   2.8249178558232522E-002           2      127917           0
</event>
<event>
      5   9999  3.19816E-02  1.23623E+01 -1.00000E+00  1.85680E-01
      21    -1     0     0   502   511  0.000000000E+00  0.000000000E+00  5.816080651E+02  5.816080651E+02  0.000000000E+00  0.00000E+00  9.000E+00
      21    -1     0     0   501   502  0.000000000E+00  0.000000000E+00 -6.083081100E+02  6.083081100E+02  0.000000000E+00  0.00000E+00  9.000E+00
      25     1     1     2     0     0  1.459187593E+02  1.832809368E+02 -1.056965985E+02  2.857988052E+02  1.250000000E+02  0.00000E+00  9.000E+00
      25     1     1     2     0     0 -1.404944790E+02 -1.721721698E+02 -3.730754535E+02  4.518763643E+02  1.250000000E+02  0.00000E+00  9.000E+00
      21     1     1     2   501   511 -5.424280329E+00 -1.110876705E+01  4.520720071E+02  4.522410056E+02  9.344061824E-06  0.00000E+00  9.000E+00
#rwgt            1           1   2.7007162668642976E-002           2      127994           0
</event>
<event>
      5   9999  3.19816E-02  5.18089E+01 -1.00000E+00  1.38201E-01
      21    -1     0     0   502   501  0.000000000E+00  0.000000000E+00  6.036457370E+02  6.036457370E+02  0.000000000E+00  0.00000E+00  9.000E+00
      21    -1     0     0   512   502  0.000000000E+00  0.000000000E+00 -1.115048241E+03  1.115048241E+03  0.000000000E+00  0.00000E+00  9.000E+00
      25     1     1     2     0     0 -1.892080112E+02  3.144363799E+02  2.353152654E+02  4.535065409E+02  1.250000000E+02  0.00000E+00  9.000E+00
      25     1     1     2     0     0  1.382568405E+02 -3.238248533E+02  1.234336313E+02  3.934950456E+02  1.250000000E+02  0.00000E+00  9.000E+00
      21     1     1     2   512   501  5.095117062E+01  9.388473415E+00 -8.701514012E+02  8.716923920E+02  0.000000000E+00  0.00000E+00  9.000E+00
#rwgt            1           1   2.8937219545108240E-002           2      128172           0
</event>
<event>
      5   9999  3.19816E-02  3.17384E+01 -1.00000E+00  1.51360E-01
      21    -1     0     0   502   511  0.000000000E+00  0.000000000E+00  8.937625995E+02  8.937625995E+02  0.000000000E+00  0.00000E+00  9.000E+00
      21    -1     0     0   501   502  0.000000000E+00  0.000000000E+00 -8.861618112E+02  8.861618112E+02  0.000000000E+00  0.00000E+00  9.000E+00
      25     1     1     2     0     0  7.434890880E+02  1.324244373E+02  4.059772028E+02  8.664610463E+02  1.250000000E+02  0.00000E+00  9.000E+00
      25     1     1     2     0     0 -7.256373072E+02 -1.586663901E+02 -4.311061384E+02  8.678721263E+02  1.250000000E+02  0.00000E+00  9.000E+00
      21     1     1     2   501   511 -1.785178078E+01  2.624195283E+01  3.272972392E+01  4.559123812E+01  8.259061849E-07  0.00000E+00  9.000E+00
#rwgt            1           1   3.2668538978821528E-002           2      128304           0
</event>
<event>
      5   9999  3.19816E-02  4.57506E+01 -1.00000E+00  1.41313E-01
      21    -1     0     0   512   501  0.000000000E+00  0.000000000E+00  4.012631542E+02  4.012631542E+02  0.000000000E+00  0.00000E+00  9.000E+00
      21    -1     0     0   501   502  0.000000000E+00  0.000000000E+00 -6.483295228E+02  6.483295228E+02  0.000000000E+00  0.00000E+00  9.000E+00
      25     1     1     2     0     0 -1.370025272E+02 -9.881949456E+01 -2.811024840E+02  3.509680776E+02  1.250000000E+02  0.00000E+00  9.000E+00
      25     1     1     2     0     0  1.724385507E+02  6.988146768E+01 -2.927179617E+02  3.686831680E+02  1.250000000E+02  0.00000E+00  9.000E+00
      21     1     1     2   512   502 -3.543602354E+01  2.893802688E+01  3.267540772E+02  3.299414313E+02  5.394796609E-06  0.00000E+00  9.000E+00
#rwgt            1           1   2.9339195527811883E-002           2      128503           0
</event>
<event>
      5   9999  3.19816E-02  4.97185E+01 -1.00000E+00  1.39216E-01
      21    -1     0     0   502   511  0.000000000E+00  0.000000000E+00  2.178671750E+02  2.178671750E+02  0.000000000E+00  0.00000E+00  9.000E+00
      21    -1     0     0   501   502  0.000000000E+00  0.000000000E+00 -6.656110441E+02  6.656110441E+02  0.000000000E+00  0.00000E+00  9.000E+00
      25     1     1     2     0     0 -1.941487047E+02  1.712301018E+02 -3.185541984E+00  2.874867213E+02  1.250000000E+02  0.00000E+00  9.000E+00
      25     1     1     2     0     0  2.141058283E+02 -2.167673751E+02 -4.346071968E+02  5.452869118E+02  1.250000000E+02  0.00000E+00  9.000E+00
      21     1     1     2   501   511 -1.995712367E+01  4.553727334E+01 -9.951130353E+00  5.070458602E+01  2.064765462E-07  0.00000E+00  9.000E+00
#rwgt            1           1   2.9039776566629986E-002           2      128582           0
</event>
<event>
      5   9999  3.19816E-02  3.33591E+01 -1.00000E+00  1.49906E-01
      21    -1     0     0   502   501  0.000000000E+00  0.000000000E+00  2.091439841E+02  2.091439841E+02  0.000000000E+00  0.00000E+00  9.000E+00
      21    -1     0     0   512   502  0.000000000E+00  0.000000000E+00 -6.397174680E+02  6.397174680E+02  0.000000000E+00  0.00000E+00  9.000E+00
      25     1     1     2     0     0  7.217880320E+01  8.372684699E+01 -5.545208117E+02  5.790840139E+02  1.250000000E+02  0.00000E+00  9.000E+00
      25     1     1     2     0     0 -9.728458890E+01 -6.176028288E+01  1.505669537E+02  2.270991663E+02  1.250000000E+02  0.00000E+00  9.000E+00
      21     1     1     2   512   501  2.510578570E+01 -2.196656411E+01 -2.661962582E+01  4.267827191E+01  0.000000000E+00  0.00000E+00  9.000E+00
#rwgt            1           1   2.6635583841534180E-002           2      128650           0
</event>
<event>
      5   9999  3.19816E-02  1.62427E+01 -1.00000E+00  1.74188E-01
      21    -1     0     0   511   501  0.000000000E+00  0.000000000E+00  4.623008123E+02  4.623008123E+02  0.000000000E+00  0.00000E+00  9.000E+00
      21    -1     0     0   501   502  0.000000000E+00  0.000000000E+00 -1.084133063E+03  1.084133063E+03  0.000000000E+00  0.00000E+00  9.000E+00
      25     1     1     2     0     0  4.605306483E+01  3.132213308E+02 -7.892720391E+02  8.595369908E+02  1.250000000E+02  0.00000E+00  9.000E+00
      25     1     1     2     0     0 -3.227055482E+01 -3.218159107E+02 -1.436938457E+02  3.753395668E+02  1.250000000E+02  0.00000E+00  9.000E+00
      21     1     1     2   511   502 -1.378251001E+01  8.594579949E+00  3.111336337E+02  3.115573180E+02  3.814697266E-06  0.00000E+00  9.000E+00
#rwgt            1           1   2.9883080509084708E-002           2      128818           0
</event>
<event>
      5   9999  3.19816E-02  1.23404E+02 -1.00000E+00  1.19855E-01
      21    -1     0     0   502   501  0.000000000E+00  0.000000000E+00  8.814959654E+02  8.814959654E+02  0.000000000E+00  0.00000E+00  9.000E+00
      21    -1     0     0   501   512  0.000000000E+00  0.000000000E+00 -6.654285630E+02  6.654285630E+02  0.000000000E+00  0.00000E+00  9.000E+00
      25     1     1     2     0     0 -1.512982749E+02  2.659759898E+02  7.055512570E+02  7.791418173E+02  1.250000000E+02  0.00000E+00  9.000E+00
      25     1     1     2     0     0  2.704307522E+02 -2.981647805E+02 -2.293348955E+02  4.798484369E+02  1.250000000E+02  0.00000E+00  9.000E+00
      21     1     1     2   502   512 -1.191324773E+02  3.218879072E+01 -2.601489591E+02  2.879342742E+02  3.814697266E-06  0.00000E+00  9.000E+00
#rwgt            1           1   3.0882794540748874E-002           2      129037           0
</event>
<event>
      5   9999  3.19816E-02  5.00630E+02 -1.00000E+00  9.88365E-02
       2    -1     0     0   502     0  0.000000000E+00  0.000000000E+00  4.813078551E+03  4.813078551E+03  0.000000000E+00  0.00000E+00  9.000E+00
      21    -1     0     0   501   502  0.000000000E+00  0.000000000E+00 -7.846081899E+01  7.846081899E+01  0.000000000E+00  0.00000E+00  9.000E+00
      25     1     1     2     0     0 -1.433072361E+02  2.352089889E+02  1.528490326E+03  1.558129618E+03  1.250000000E+02  0.00000E+00  9.000E+00
      25     1     1     2     0     0 -1.372683098E+02  1.794081394E+02  3.566517380E+02  4.402900539E+02  1.250000000E+02  0.00000E+00  9.000E+00
       2     1     1     2   501     0  2.805755459E+02 -4.146171284E+02  2.849475669E+03  2.893119698E+03  0.000000000E+00  0.00000E+00  9.000E+00
#rwgt            1           1   3.4439185328316163E-002           2      129125           0
</event>
<event>
      5   9999  3.19816E-02  2.47615E+02 -1.00000E+00  1.08373E-01
      21    -1     0     0   502   501  0.000000000E+00  0.000000000E+00  9.975070969E+02  9.975070969E+02  0.000000000E+00  0.00000E+00  9.000E+00
      21    -1     0     0   501   511  0.000000000E+00  0.000000000E+00 -2.663645746E+03  2.663645746E+03  0.000000000E+00  0.00000E+00  9.000E+00
      25     1     1     2     0     0 -8.942622192E+02  6.652030272E+02  3.186315785E+02  1.165912118E+03  1.250000000E+02  0.00000E+00  9.000E+00
      25     1     1     2     0     0  6.473515339E+02 -6.465383677E+02 -6.295901179E+02  1.117624528E+03  1.250000000E+02  0.00000E+00  9.000E+00
      21     1     1     2   502   511  2.469106853E+02 -1.866465949E+01 -1.355180110E+03  1.377616197E+03  1.525878906E-05  0.00000E+00  9.000E+00
#rwgt            1           1   2.7812653844548372E-002           2      129177           0
</event>
<event>
      5   9999  3.19816E-02  1.04443E+02 -1.00000E+00  1.22985E-01
      21    -1     0     0   502   501  0.000000000E+00  0.000000000E+00  5.924889966E+02  5.924889966E+02  0.000000000E+00  0.00000E+00  9.000E+00
      21    -1     0     0   512   502  0.000000000E+00  0.000000000E+00 -4.495706117E+02  4.495706117E+02  0.000000000E+00  0.00000E+00  9.000E+00
      25     1     1     2     0     0  4.123719420E+02 -2.669083907E+02  1.419523496E+02  5.263707601E+02  1.250000000E+02  0.00000E+00  9.000E+00
      25     1     1     2     0     0 -3.433943548E+02  1.884842606E+02  4.008193720E+00  4.112019760E+02  1.250000000E+02  0.00000E+00  9.000E+00
      21     1     1     2   512   501 -6.897758716E+01  7.842413013E+01 -3.042158400E+00  1.044868721E+02  2.128728798E-06  0.00000E+00  9.000E+00
#rwgt            2          11   5.1453458413151104E-003           2      129296           0
</event>
<event>
      5   9999  3.19816E-02  7.96555E+01 -1.00000E+00  1.28440E-01
      21    -1     0     0   511   501  0.000000000E+00  0.000000000E+00  3.428694067E+02  3.428694067E+02  0.000000000E+00  0.00000E+00  9.000E+00
      21    -1     0     0   501   502  0.000000000E+00  0.000000000E+00 -9.799972066E+02  9.799972066E+02  0.000000000E+00  0.00000E+00  9.000E+00
      25     1     1     2     0     0 -7.401338797E+01 -1.023194820E+02 -9.318143085E+02  9.486043240E+02  1.250000000E+02  0.00000E+00  9.000E+00
      25     1     1     2     0     0 -1.523953187E+00  7.703873877E+01  1.553635882E+02  2.137758972E+02  1.250000000E+02  0.00000E+00  9.000E+00
      21     1     1     2   511   502  7.553734116E+01  2.528074327E+01  1.393229204E+02  1.604863921E+02  0.000000000E+00  0.00000E+00  9.000E+00
#rwgt            1           1   2.6969103705415245E-002           2      129316           0
</event>
<event>
      5   9999  3.19816E-02  3.47439E+02 -1.00000E+00  1.03561E-01
       4    -1     0     0   502     0  0.000000000E+00  0.000000000E+00  2.190319077E+02  2.190319077E+02  0.000000000E+00  0.00000E+00  9.000E+00
      21    -1     0     0   501   502  0.000000000E+00  0.000000000E+00 -1.100241839E+03  1.100241839E+03  0.000000000E+00  0.00000E+00  9.000E+00
      25     1     1     2     0     0 -1.177602865E+02  9.284689445E+01 -2.899537856E+02  3.495514678E+02  1.250000000E+02  0.00000E+00  9.000E+00
      25     1     1     2     0     0 -1.120066253E+02 -3.534637746E+02 -1.781524508E+02  4.299365299E+02  1.250000000E+02  0.00000E+00  9.000E+00
       4     1     1     2   501     0  2.297669118E+02  2.606168801E+02 -4.131036948E+02  5.397857488E+02  7.629394531E-06  0.00000E+00  9.000E+00
#rwgt            2          20   1.7495888602746907E-005           2      129660           0
</event>
<event>
      5   9999  3.19816E-02  1.26606E+01 -1.00000E+00  1.84614E-01
      21    -1     0     0   502   501  0.000000000E+00  0.000000000E+00  2.941215786E+03  2.941215786E+03  0.000000000E+00  0.00000E+00  9.000E+00
      21    -1     0     0   511   502  0.000000000E+00  0.000000000E+00 -7.801442175E+02  7.801442175E+02  0.000000000E+00  0.00000E+00  9.000E+00
      25     1     1     2     0     0 -9.668654782E+01  3.684276727E+02  4.511901560E+01  4.034203318E+02  1.250000000E+02  0.00000E+00  9.000E+00
      25     1     1     2     0     0  1.056092441E+02 -3.594456186E+02  2.702524980E+03  2.731230626E+03  1.250000000E+02  0.00000E+00  9.000E+00
      21     1     1     2   511   501 -8.922696302E+00 -8.982054059E+00 -5.865724271E+02  5.867090455E+02  1.321449896E-05  0.00000E+00  9.000E+00
#rwgt            1           1   5.5896590789095445E-002           2      129709           0
</event>
<event>
      5   9999  3.19816E-02  4.13996E+01 -1.00000E+00  1.43920E-01
      21    -1     0     0   512   501  0.000000000E+00  0.000000000E+00  1.525890964E+03  1.525890964E+03  0.000000000E+00  0.00000E+00  9.000E+00
      21    -1     0     0   501   502  0.000000000E+00  0.000000000E+00 -7.942632529E+02  7.942632529E+02  0.000000000E+00  0.00000E+00  9.000E+00
      25     1     1     2     0     0  5.441664949E+02  6.053385884E+02  1.024652960E+03  1.314568624E+03  1.250000000E+02  0.00000E+00  9.000E+00
      25     1     1     2     0     0 -5.719806996E+02 -6.360027858E+02 -3.521292713E+02  9.334246022E+02  1.250000000E+02  0.00000E+00  9.000E+00
      21     1     1     2   512   502  2.781420467E+01  3.066419742E+01  5.910402254E+01  7.216098992E+01  1.507891493E-06  0.00000E+00  9.000E+00
#rwgt            1           1   2.8434351425449093E-002           2      129956           0
</event>
<event>
      5   9999  3.19816E-02  3.13185E+01 -1.00000E+00  1.51754E-01
      21    -1     0     0   502   501  0.000000000E+00  0.000000000E+00  2.652595869E+02  2.652595869E+02  0.000000000E+00  0.00000E+00  9.000E+00
      21    -1     0     0   511   502  0.000000000E+00  0.000000000E+00 -7.933509796E+02  7.933509796E+02  0.000000000E+00  0.00000E+00  9.000E+00
      25     1     1     2     0     0 -1.433977456E+02  5.875298842E+01 -4.849296046E+02  5.242104048E+02  1.250000000E+02  0.00000E+00  9.000E+00
      25     1     1     2     0     0  1.148550929E+02 -7.164345610E+01  2.099628284E+02  2.793454250E+02  1.250000000E+02  0.00000E+00  9.000E+00
      21     1     1     2   511   501  2.854265265E+01  1.289046769E+01 -2.531246166E+02  2.550547367E+02  2.697398305E-06  0.00000E+00  9.000E+00
#rwgt            1           1   2.5281952467559574E-002           2      130100           0
</event>
<event>
      5   9999  3.19816E-02  2.91067E+01 -1.00000E+00  1.53957E-01
      21    -1     0     0   512   501  0.000000000E+00  0.000000000E+00  1.175065574E+03  1.175065574E+03  0.000000000E+00  0.00000E+00  9.000E+00
      21    -1     0     0   501   502  0.000000000E+00  0.000000000E+00 -5.165523943E+01  5.165523943E+01  0.000000000E+00  0.00000E+00  9.000E+00
      25     1     1     2     0     0 -7.918480549E+01 -6.583768674E+01  1.828575369E+02  2.442677081E+02  1.250000000E+02  0.00000E+00  9.000E+00
      25     1     1     2     0     0  5.276866910E+01  5.361534680E+01  2.370376773E+02  2.783361247E+02  1.250000000E+02  0.00000E+00  9.000E+00
      21     1     1     2   512   502  2.641613639E+01  1.222233994E+01  7.035151204E+02  7.041169806E+02  0.000000000E+00  0.00000E+00  9.000E+00
#rwgt            1           1   7.7426000191917518E-002           2      130238           0
</event>
<event>
      5   9999  3.19816E-02  1.44941E+01 -1.00000E+00  1.78799E-01
      21    -1     0     0   502   501  0.000000000E+00  0.000000000E+00  1.319016415E+02  1.319016415E+02  0.000000000E+00  0.00000E+00  9.000E+00
      21    -1     0     0   511   502  0.000000000E+00  0.000000000E+00 -4.409729548E+02  4.409729548E+02  0.000000000E+00  0.00000E+00  9.000E+00
      25     1     1     2     0     0 -2.200024204E+01  1.482268769E+02 -2.535731438E+02  3.199680561E+02  1.250000000E+02  0.00000E+00  9.000E+00
      25     1     1     2     0     0  2.797389205E+01 -1.614326797E+02 -1.129424975E+01  2.063870364E+02  1.250000000E+02  0.00000E+00  9.000E+00
      21     1     1     2   511   501 -5.973650014E+00  1.320580274E+01 -4.420391966E+01  4.651950380E+01  6.743495762E-07  0.00000E+00  9.000E+00
#rwgt            1           1   2.3713439364144287E-002           2      130347           0
</event>
<event>
      5   9999  3.19816E-02  8.64050E+01 -1.00000E+00  1.26751E-01
      21    -1     0     0   502   501  0.000000000E+00  0.000000000E+00  5.256670578E+02  5.256670578E+02  0.000000000E+00  0.00000E+00  9.000E+00
      -2    -1     0     0     0   502  0.000000000E+00  0.000000000E+00 -1.786190465E+02  1.786190465E+02  0.000000000E+00  0.00000E+00  9.000E+00
      25     1     1     2     0     0  1.993732137E+01 -1.766606756E+02  2.031066170E+02  2.974622480E+02  1.250000000E+02  0.00000E+00  9.000E+00
      25     1     1     2     0     0 -1.037843165E+02  1.557918899E+02  2.022303262E+02  3.025961040E+02  1.250000000E+02  0.00000E+00  9.000E+00
      -2     1     1     2     0   501  8.384699510E+01  2.086878566E+01 -5.828893187E+01  1.042277524E+02  1.784161275E-06  0.00000E+00  9.000E+00
#rwgt            1           1   2.5861630993762229E-002           2      130508           0
</event>
<event>
      5   9999  3.19816E-02  7.02147E+01 -1.00000E+00  1.31153E-01
      21    -1     0     0   502   501  0.000000000E+00  0.000000000E+00  7.824179998E+02  7.824179998E+02  0.000000000E+00  0.00000E+00  9.000E+00
      21    -1     0     0   511   502  0.000000000E+00  0.000000000E+00 -2.055241614E+02  2.055241614E+02  0.000000000E+00  0.00000E+00  9.000E+00
      25     1     1     2     0     0  3.842366656E+01  2.275360077E+02 -1.327822114E+01  2.627742836E+02  1.250000000E+02  0.00000E+00  9.000E+00
      25     1     1     2     0     0 -1.073406018E+02 -2.140989628E+02  5.963421759E+02  6.546826418E+02  1.250000000E+02  0.00000E+00  9.000E+00
      21     1     1     2   511   501  6.891693522E+01 -1.343704496E+01 -6.170116397E+00  7.048523585E+01  1.294944345E-06  0.00000E+00  9.000E+00
#rwgt            1           1   2.9778737405903109E-002           2      130549           0
</event>
<event>
      5   9999  3.19816E-02  3.50539E+00 -1.00000E+00  2.77752E-01
      21    -1     0     0   502   501  0.000000000E+00  0.000000000E+00  8.788693582E+01  8.788693582E+01  0.000000000E+00  0.00000E+00  9.000E+00
      21    -1     0     0   501   512  0.000000000E+00  0.000000000E+00 -1.245939076E+03  1.245939076E+03  0.000000000E+00  0.00000E+00  9.000E+00
      25     1     1     2     0     0 -1.276211536E+02  2.426526104E+02 -7.491529674E+02  8.074791741E+02  1.250000000E+02  0.00000E+00  9.000E+00
      25     1     1     2     0     0  1.243054386E+02 -2.415151735E+02 -3.221635610E+02  4.395404203E+02  1.250000000E+02  0.00000E+00  9.000E+00
      21     1     1     2   502   512  3.315715040E+00 -1.137436893E+00 -8.673561228E+01  8.680641777E+01  9.536743164E-07  0.00000E+00  9.000E+00
#rwgt            1           1   2.8083694237538540E-002           2      130676           0
</event>
<event>
      5   9999  3.19816E-02  2.12958E+02 -1.00000E+00  1.10664E-01
      21    -1     0     0   502   511  0.000000000E+00  0.000000000E+00  2.258853394E+02  2.258853394E+02  0.000000000E+00  0.00000E+00  9.000E+00
      21    -1     0     0   501   502  0.000000000E+00  0.000000000E+00 -5.447917631E+02  5.447917631E+02  0.000000000E+00  0.00000E+00  9.000E+00
      25     1     1     2     0     0  1.204718100E+02 -1.500018326E+01 -5.432108033E+00  1.743357976E+02  1.250000000E+02  0.00000E+00  9.000E+00
      25     1     1     2     0     0  7.441467822E+01 -7.084992048E+01 -3.450019593E+02  3.810624719E+02  1.250000000E+02  0.00000E+00  9.000E+00
      21     1     1     2   501   511 -1.948864883E+02  8.585010374E+01  3.152764365E+01  2.152788330E+02  3.405298437E-06  0.00000E+00  9.000E+00
#rwgt            2          11   4.0101059912675497E-003           2      131170           0
</event>
<event>
      5   9999  3.19816E-02  4.00981E+00 -1.00000E+00  2.63220E-01
      21    -1     0     0   502   501  0.000000000E+00  0.000000000E+00  1.121113105E+02  1.121113105E+02  0.000000000E+00  0.00000E+00  9.000E+00
      21    -1     0     0   501   512  0.000000000E+00  0.000000000E+00 -5.678975355E+02  5.678975355E+02  0.000000000E+00  0.00000E+00  9.000E+00
      25     1     1     2     0     0 -1.932651363E+02  1.781824905E+01 -3.593766409E+02  4.271363634E+02  1.250000000E+02  0.00000E+00  9.000E+00
      25     1     1     2     0     0  1.905499250E+02 -1.486762152E+01 -9.033244969E+01  2.455916765E+02  1.250000000E+02  0.00000E+00  9.000E+00
      21     1     1     2   502   512  2.715211294E+00 -2.950627533E+00 -6.077134356E+00  7.280806081E+00  8.429369702E-08  0.00000E+00  9.000E+00
#rwgt            1           1   2.7143052950668201E-002           2      131190           0
</event>
<event>
      5   9999  3.19816E-02  9.45391E+01 -1.00000E+00  1.24935E-01
      21    -1     0     0   502   501  0.000000000E+00  0.000000000E+00  2.064550213E+02  2.064550213E+02  0.000000000E+00  0.00000E+00  9.000E+00
       2    -1     0     0   501     0  0.000000000E+00  0.000000000E+00 -2.018880223E+03  2.018880223E+03  0.000000000E+00  0.00000E+00  9.000E+00
      25     1     1     2     0     0 -3.088879735E+02 -1.025823760E+02 -2.055448207E+02  4.047327481E+02  1.250000000E+02  0.00000E+00  9.000E+00
      25     1     1     2     0     0  4.001025364E+02  7.773186852E+01 -3.271354239E+02  5.373703273E+02  1.250000000E+02  0.00000E+00  9.000E+00
       2     1     1     2   502     0 -9.121456291E+01  2.485050747E+01 -1.279744957E+03  1.283232169E+03  1.525878906E-05  0.00000E+00  9.000E+00
#rwgt            1           1   2.8917752768963658E-002           2      131513           0
</event>
<event>
      5   9999  3.19816E-02  6.76467E+00 -1.00000E+00  2.17674E-01
      21    -1     0     0   502   501  0.000000000E+00  0.000000000E+00  3.346790485E+02  3.346790485E+02  0.000000000E+00  0.00000E+00  9.000E+00
      21    -1     0     0   511   502  0.000000000E+00  0.000000000E+00 -1.997359229E+03  1.997359229E+03  0.000000000E+00  0.00000E+00  9.000E+00
      25     1     1     2     0     0 -7.314437092E+02 -1.444589937E+02 -4.126739896E+02  8.612799326E+02  1.250000000E+02  0.00000E+00  9.000E+00
      25     1     1     2     0     0  7.380685550E+02  1.430906983E+02 -1.208799811E+03  1.429000393E+03  1.250000000E+02  0.00000E+00  9.000E+00
      21     1     1     2   511   501 -6.624845856E+00  1.368295346E+00 -4.120637972E+01  4.175795187E+01  8.259061849E-07  0.00000E+00  9.000E+00
#rwgt            1           1   3.3694284772807441E-002           2      131584           0
</event>
<event>
      5   9999  3.19816E-02  1.01426E+02 -1.00000E+00  1.23552E-01
      21    -1     0     0   502   512  0.000000000E+00  0.000000000E+00  2.587277197E+02  2.587277197E+02  0.000000000E+00  0.00000E+00  9.000E+00
      21    -1     0     0   501   502  0.000000000E+00  0.000000000E+00 -6.931423738E+02  6.931423738E+02  0.000000000E+00  0.00000E+00  9.000E+00
      25     1     1     2     0     0 -7.268420030E+01 -1.235384958E+01 -5.405477155E+02  5.596895955E+02  1.250000000E+02  0.00000E+00  9.000E+00
      25     1     1     2     0     0  1.190061314E+02  1.025843313E+02 -4.915320145E+01  2.067052045E+02  1.250000000E+02  0.00000E+00  9.000E+00
      21     1     1     2   501   512 -4.632193110E+01 -9.023048172E+01  1.552862628E+02  1.854752936E+02  3.303624740E-06  0.00000E+00  9.000E+00
#rwgt            1           1   2.8125582902718348E-002           2      131992           0
</event>
<event>
      5   9999  3.19816E-02  2.89710E+02 -1.00000E+00  1.06087E-01
      21    -1     0     0   502   501  0.000000000E+00  0.000000000E+00  6.377170713E+02  6.377170713E+02  0.000000000E+00  0.00000E+00  9.000E+00
      21    -1     0     0   511   502  0.000000000E+00  0.000000000E+00 -9.816257685E+02  9.816257685E+02  0.000000000E+00  0.00000E+00  9.000E+00
      25     1     1     2     0     0 -7.678355102E+01  5.667333468E+01 -2.067046269E+02  2.597294426E+02  1.250000000E+02  0.00000E+00  9.000E+00
      25     1     1     2     0     0  1.008749136E+02 -3.453803229E+02  5.181424436E+02  6.430862364E+02  1.250000000E+02  0.00000E+00  9.000E+00
      21     1     1     2   511   501 -2.409136257E+01  2.887069882E+02 -6.553465139E+02  7.165271607E+02  1.321449896E-05  0.00000E+00  9.000E+00
#rwgt            2          11   3.0986768279482146E-003           2      132042           0
</event>
<event>
      5   9999  3.19816E-02  1.50547E+02 -1.00000E+00  1.16331E-01
      21    -1     0     0   502   501  0.000000000E+00  0.000000000E+00  1.200119994E+03  1.200119994E+03  0.000000000E+00  0.00000E+00  9.000E+00
      21    -1     0     0   501   512  0.000000000E+00  0.000000000E+00 -1.615912775E+02  1.615912775E+02  0.000000000E+00  0.00000E+00  9.000E+00
      25     1     1     2     0     0  2.519047673E+02 -3.675510714E+00  8.535002962E+02  8.986419069E+02  1.250000000E+02  0.00000E+00  9.000E+00
      25     1     1     2     0     0 -1.174549373E+02 -6.405557511E+01  2.408180942E+02  3.025179887E+02  1.250000000E+02  0.00000E+00  9.000E+00
      21     1     1     2   502   512 -1.344498299E+02  6.773108583E+01 -5.578967356E+01  1.605513763E+02  1.348699152E-06  0.00000E+00  9.000E+00
#rwgt            1           1   2.5372250525074164E-002           2      132062           0
</event>
<event>
      5   9999  3.19816E-02  8.37665E+01 -1.00000E+00  1.27390E-01
      21    -1     0     0   502   501  0.000000000E+00  0.000000000E+00  4.767559294E+02  4.767559294E+02  0.000000000E+00  0.00000E+00  9.000E+00
      21    -1     0     0   511   502  0.000000000E+00  0.000000000E+00 -4.855111034E+02  4.855111034E+02  0.000000000E+00  0.00000E+00  9.000E+00
      25     1     1     2     0     0 -9.987397134E+01 -2.524815891E+02  1.751664775E+02  3.464535435E+02  1.250000000E+02  0.00000E+00  9.000E+00
      25     1     1     2     0     0  9.990674190E+01  3.362480776E+02  4.211271525E+01  3.747567311E+02  1.250000000E+02  0.00000E+00  9.000E+00
      21     1     1     2   511   501 -3.277055347E-02 -8.376648851E+01 -2.260343668E+02  2.410567581E+02  2.697398305E-06  0.00000E+00  9.000E+00
#rwgt            1           1   3.0024300733422105E-002           2      132116           0
</event>
<event>
      5   9999  3.19816E-02  2.66767E+01 -1.00000E+00  1.56668E-01
      21    -1     0     0   502   501  0.000000000E+00  0.000000000E+00  1.015214317E+03  1.015214317E+03  0.000000000E+00  0.00000E+00  9.000E+00
      21    -1     0     0   501   512  0.000000000E+00  0.000000000E+00 -6.251081589E+02  6.251081589E+02  0.000000000E+00  0.00000E+00  9.000E+00
      25     1     1     2     0     0 -5.692311442E+02 -9.126215959E+01 -2.987955748E+02  6.612538641E+02  1.250000000E+02  0.00000E+00  9.000E+00
      25     1     1     2     0     0  5.563961924E+02  6.787609735E+01  7.307683951E+02  9.294252712E+02  1.250000000E+02  0.00000E+00  9.000E+00
      21     1     1     2   502   512  1.283495182E+01  2.338606225E+01 -4.186666196E+01  4.964334073E+01  0.000000000E+00  0.00000E+00  9.000E+00
#rwgt            1           1   3.1758651739239349E-002           2      132222           0
</event>
<event>
      5   9999  3.19816E-02  9.79738E+01 -1.00000E+00  1.24229E-01
      21    -1     0     0   502   501  0.000000000E+00  0.000000000E+00  7.687600612E+02  7.687600612E+02  0.000000000E+00  0.00000E+00  9.000E+00
      21    -1     0     0   501   511  0.000000000E+00  0.000000000E+00 -6.663322163E+02  6.663322163E+02  0.000000000E+00  0.00000E+00  9.000E+00
      25     1     1     2     0     0  8.116130881E+01 -6.486357635E+02  2.694869843E+02  7.180276780E+02  1.250000000E+02  0.00000E+00  9.000E+00
      25     1     1     2     0     0 -1.240946676E+02  5.605699419E+02 -9.448540584E+01  5.951391755E+02  1.250000000E+02  0.00000E+00  9.000E+00
      21     1     1     2   502   511  4.293335881E+01  8.806582158E+01 -7.257373344E+01  1.219254240E+02  1.348699152E-06  0.00000E+00  9.000E+00
#rwgt            1           1   2.3064070286841560E-002           2      132434           0
</event>
<event>
      5   9999  3.19816E-02  9.75062E+00 -1.00000E+00  1.97034E-01
       1    -1     0     0   502     0  0.000000000E+00  0.000000000E+00  1.350861737E+03  1.350861737E+03  0.000000000E+00  0.00000E+00  9.000E+00
      21    -1     0     0   501   502  0.000000000E+00  0.000000000E+00 -2.782566045E+02  2.782566045E+02  0.000000000E+00  0.00000E+00  9.000E+00
      25     1     1     2     0     0 -7.899338323E+01 -1.837726414E+02 -5.802992139E+01  2.429090573E+02  1.250000000E+02  0.00000E+00  9.000E+00
      25     1     1     2     0     0  6.957497962E+01  1.812491023E+02 -2.344162587E+01  2.320914146E+02  1.250000000E+02  0.00000E+00  9.000E+00
       1     1     1     2   501     0  9.418403612E+00  2.523539060E+00  1.154076680E+03  1.154117870E+03  2.157918644E-05  0.00000E+00  9.000E+00
#rwgt            1           1   3.2113249897594197E-002           2      132551           0
</event>
<event>
      5   9999  3.19816E-02  6.20556E+01 -1.00000E+00  1.33926E-01
      21    -1     0     0   511   501  0.000000000E+00  0.000000000E+00  3.087006116E+02  3.087006116E+02  0.000000000E+00  0.00000E+00  9.000E+00
      21    -1     0     0   501   502  0.000000000E+00  0.000000000E+00 -3.806119876E+02  3.806119876E+02  0.000000000E+00  0.00000E+00  9.000E+00
      25     1     1     2     0     0 -2.317613791E+02  3.319657409E+01 -1.988334827E+01  2.661497641E+02  1.250000000E+02  0.00000E+00  9.000E+00
      25     1     1     2     0     0  2.797258426E+02  6.177315330E+00 -1.218198366E+02  3.297723136E+02  1.250000000E+02  0.00000E+00  9.000E+00
      21     1     1     2   511   502 -4.796446346E+01 -3.937388942E+01  6.979180895E+01  9.339052157E+01  1.348699152E-06  0.00000E+00  9.000E+00
#rwgt            1           1   2.8185780886125930E-002           2      132758           0
</event>
<event>
      5   9999  3.19816E-02  7.57417E+01 -1.00000E+00  1.29510E-01
      21    -1     0     0   502   501  0.000000000E+00  0.000000000E+00  2.473599145E+02  2.473599145E+02  0.000000000E+00  0.00000E+00  9.000E+00
      21    -1     0     0   512   502  0.000000000E+00  0.000000000E+00 -3.621800272E+02  3.621800272E+02  0.000000000E+00  0.00000E+00  9.000E+00
      25     1     1     2     0     0 -9.893767364E-01 -1.657181875E+02  1.519586444E+02  2.572545940E+02  1.250000000E+02  0.00000E+00  9.000E+00
      25     1     1     2     0     0 -4.259335058E+00  9.015854831E+01 -1.728263940E+02  2.316045514E+02  1.250000000E+02  0.00000E+00  9.000E+00
      21     1     1     2   512   501  5.248711794E+00  7.555963920E+01 -9.395236309E+01  1.206807962E+02  2.336015456E-06  0.00000E+00  9.000E+00
#rwgt            1           1   3.0873312306357540E-002           2      132806           0
</event>
<event>
      5   9999  3.19816E-02  5.30828E+01 -1.00000E+00  1.37609E-01
      21    -1     0     0   502   511  0.000000000E+00  0.000000000E+00  9.858938112E+02  9.858938112E+02  0.000000000E+00  0.00000E+00  9.000E+00
      21    -1     0     0   501   502  0.000000000E+00  0.000000000E+00 -1.136357702E+03  1.136357702E+03  0.000000000E+00  0.00000E+00  9.000E+00
      25     1     1     2     0     0 -8.988940767E+00  4.983251294E+02 -9.795892196E+02  1.106177551E+03  1.250000000E+02  0.00000E+00  9.000E+00
      25     1     1     2     0     0  5.906621696E+01 -5.159333521E+02  7.483473858E+02  9.194154945E+02  1.250000000E+02  0.00000E+00  9.000E+00
      21     1     1     2   501   511 -5.007727619E+01  1.760822272E+01  8.077794348E+01  9.665846705E+01  1.348699152E-06  0.00000E+00  9.000E+00
#rwgt            1           1   3.4764355522398767E-002           2      132864           0
</event>
<event>
      5   9999  3.19816E-02  5.62650E+01 -1.00000E+00  1.36212E-01
      21    -1     0     0   502   501  0.000000000E+00  0.000000000E+00  8.399988025E+02  8.399988025E+02  0.000000000E+00  0.00000E+00  9.000E+00
      21    -1     0     0   501   512  0.000000000E+00  0.000000000E+00 -1.732561254E+02  1.732561254E+02  0.000000000E+00  0.00000E+00  9.000E+00
      25     1     1     2     0     0  2.604035294E+02 -2.060002073E+02  2.518417781E+02  4.350808715E+02  1.250000000E+02  0.00000E+00  9.000E+00
      25     1     1     2     0     0 -2.518252825E+02  1.503930073E+02  4.131609728E+02  5.218821888E+02  1.250000000E+02  0.00000E+00  9.000E+00
      21     1     1     2   502   512 -8.578246919E+00  5.560720002E+01  1.739926207E+00  5.629186760E+01  4.636153336E-07  0.00000E+00  9.000E+00
#rwgt            2          11   3.1693522229489864E-003           2      133009           0
</event>
<event>
      5   9999  3.19816E-02  3.55822E+01 -1.00000E+00  1.48064E-01
      21    -1     0     0   502   511  0.000000000E+00  0.000000000E+00  9.727786465E+02  9.727786465E+02  0.000000000E+00  0.00000E+00  9.000E+00
      21    -1     0     0   501   502  0.000000000E+00  0.000000000E+00 -5.170437299E+02  5.170437299E+02  0.000000000E+00  0.00000E+00  9.000E+00
      25     1     1     2     0     0 -5.381434258E+02 -1.387558450E+02 -1.928791818E+02  6.013974642E+02  1.250000000E+02  0.00000E+00  9.000E+00
      25     1     1     2     0     0  5.439737817E+02  1.036545248E+02  6.307834628E+02  8.486250719E+02  1.250000000E+02  0.00000E+00  9.000E+00
      21     1     1     2   501   511 -5.830355897E+00  3.510132016E+01  1.783063554E+01  3.979984034E+01  6.307962682E-07  0.00000E+00  9.000E+00
#rwgt            1           1   2.9238638958957071E-002           2      133029           0
</event>
<event>
      5   9999  3.19816E-02  1.74948E+01 -1.00000E+00  1.71312E-01
      21    -1     0     0   502   501  0.000000000E+00  0.000000000E+00  1.160909275E+03  1.160909275E+03  0.000000000E+00  0.00000E+00  9.000E+00
      21    -1     0     0   512   502  0.000000000E+00  0.000000000E+00 -4.808583533E+02  4.808583533E+02  0.000000000E+00  0.00000E+00  9.000E+00
      25     1     1     2     0     0  2.305261428E+02  6.690367344E+01  4.150374085E+02  4.954790152E+02  1.250000000E+02  0.00000E+00  9.000E+00
      25     1     1     2     0     0 -2.473975460E+02 -7.153208537E+01  6.764249660E+02  7.345053571E+02  1.250000000E+02  0.00000E+00  9.000E+00
      21     1     1     2   512   501  1.687140317E+01  4.628411926E+00 -4.114114528E+02  4.117832560E+02  5.394796609E-06  0.00000E+00  9.000E+00
#rwgt            1           1   3.0392230233968635E-002           2      133152           0
</event>
<event>
      5   9999  3.19816E-02  3.35029E+02 -1.00000E+00  1.04057E-01
      21    -1     0     0   511   501  0.000000000E+00  0.000000000E+00  7.528722400E+02  7.528722400E+02  0.000000000E+00  0.00000E+00  9.000E+00
      21    -1     0     0   501   502  0.000000000E+00  0.000000000E+00 -2.904626639E+03  2.904626639E+03  0.000000000E+00  0.00000E+00  9.000E+00
      25     1     1     2     0     0  2.804118173E+01  7.117620299E+01 -2.718688686E+03  2.722635769E+03  1.250000000E+02  0.00000E+00  9.000E+00
      25     1     1     2     0     0 -3.625891626E+02 -8.912405756E+01  3.971996151E+02  5.592910983E+02  1.250000000E+02  0.00000E+00  9.000E+00
      21     1     1     2   511   502  3.345479808E+02  1.794785458E+01  1.697346720E+02  3.755720115E+02  6.607249480E-06  0.00000E+00  9.000E+00
#rwgt            1           1   7.1145531974045634E-002           2      133355           0
</event>
<event>
      5   9999  3.19816E-02  8.66451E+01 -1.00000E+00  1.26694E-01
      21    -1     0     0   512   501  0.000000000E+00  0.000000000E+00  1.487508186E+03  1.487508186E+03  0.000000000E+00  0.00000E+00  9.000E+00
      21    -1     0     0   501   502  0.000000000E+00  0.000000000E+00 -2.041919642E+02  2.041919642E+02  0.000000000E+00  0.00000E+00  9.000E+00
      25     1     1     2     0     0 -2.573280617E+02  2.778117571E+02  3.673870252E+02  5.422133621E+02  1.250000000E+02  0.00000E+00  9.000E+00
      25     1     1     2     0     0  1.737022624E+02 -2.551378886E+02  1.279226425E+02  3.567310200E+02  1.250000000E+02  0.00000E+00  9.000E+00
      21     1     1     2   512   502  8.362579933E+01 -2.267386851E+01  7.880065540E+02  7.927557680E+02  0.000000000E+00  0.00000E+00  9.000E+00
#rwgt            1           1   3.1303280922524102E-002           2      133438           0
</event>
<event>
      5   9999  3.19816E-02  1.68980E+02 -1.00000E+00  1.14379E-01
      21    -1     0     0   502   511  0.000000000E+00  0.000000000E+00  9.718511721E+02  9.718511721E+02  0.000000000E+00  0.00000E+00  9.000E+00
      21    -1     0     0   501   502  0.000000000E+00  0.000000000E+00 -1.050538982E+03  1.050538982E+03  0.000000000E+00  0.00000E+00  9.000E+00
      25     1     1     2     0     0  2.400299865E+02  6.540803566E+02 -5.312706633E+02  8.850474705E+02  1.250000000E+02  0.00000E+00  9.000E+00
      25     1     1     2     0     0 -2.399664863E+02 -8.230598948E+02  3.239571708E+02  9.249782449E+02  1.250000000E+02  0.00000E+00  9.000E+00
      21     1     1     2   501   511 -6.350015461E-02  1.689795382E+02  1.286256829E+02  2.123644383E+02  2.697398305E-06  0.00000E+00  9.000E+00
#rwgt            1           1   2.9783708397174868E-002           2      133532           0
</event>
<event>
      5   9999  3.19816E-02  1.64173E+01 -1.00000E+00  1.73768E-01
      21    -1     0     0   502   501  0.000000000E+00  0.000000000E+00  1.247905175E+02  1.247905175E+02  0.000000000E+00  0.00000E+00  9.000E+00
      21    -1     0     0   512   502  0.000000000E+00  0.000000000E+00 -2.887593664E+02  2.887593664E+02  0.000000000E+00  0.00000E+00  9.000E+00
      25     1     1     2     0     0 -6.115706883E+01 -5.701871314E+01 -1.278730826E+02  1.974027507E+02  1.250000000E+02  0.00000E+00  9.000E+00
      25     1     1     2     0     0  5.442920589E+01  7.199419081E+01  2.203353165E+01  1.557439517E+02  1.250000000E+02  0.00000E+00  9.000E+00
      21     1     1     2   512   501  6.727862948E+00 -1.497547767E+01 -5.812929796E+01  6.040318165E+01  0.000000000E+00  0.00000E+00  9.000E+00
#rwgt            1           1   3.3006392494767549E-002           2      133600           0
</event>
<event>
      5   9999  3.19816E-02  4.04107E+02 -1.00000E+00  1.01552E-01
      -2    -1     0     0     0   501  0.000000000E+00  0.000000000E+00  8.594698810E+02  8.594698810E+02  0.000000000E+00  0.00000E+00  9.000E+00
      21    -1     0     0   501   502  0.000000000E+00  0.000000000E+00 -2.164571083E+03  2.164571083E+03  0.000000000E+00  0.00000E+00  9.000E+00
      25     1     1     2     0     0 -1.155695661E+02 -4.397310190E+02  1.270715407E+02  4.883562943E+02  1.250000000E+02  0.00000E+00  9.000E+00
      25     1     1     2     0     0  4.857175213E+02  6.018812730E+02 -1.816344811E+03  1.978109211E+03  1.250000000E+02  0.00000E+00  9.000E+00
      -2     1     1     2     0   502 -3.701479552E+02 -1.621502540E+02  3.841720687E+02  5.575754585E+02  5.394796609E-06  0.00000E+00  9.000E+00
#rwgt            2           4   1.1348225924627962E-004           2      133776           0
</event>
<event>
      5   9999  3.19816E-02  2.19470E+02 -1.00000E+00  1.10199E-01
       2    -1     0     0   502     0  0.000000000E+00  0.000000000E+00  2.412731893E+03  2.412731893E+03  0.000000000E+00  0.00000E+00  9.000E+00
      21    -1     0     0   501   502  0.000000000E+00  0.000000000E+00 -2.510099461E+02  2.510099461E+02  0.000000000E+00  0.00000E+00  9.000E+00
      25     1     1     2     0     0 -2.811063839E+02  2.506985035E+02  1.585232539E+03  1.634153524E+03  1.250000000E+02  0.00000E+00  9.000E+00
      25     1     1     2     0     0  7.259447514E+01 -3.191821872E+02 -6.074820104E+01  3.556157623E+02  1.250000000E+02  0.00000E+00  9.000E+00
       2     1     1     2   501     0  2.085119088E+02  6.848368372E+01  6.372376091E+02  6.739725525E+02  1.321449896E-05  0.00000E+00  9.000E+00
#rwgt            1           1   2.8618301284675619E-002           2      133795           0
</event>
<event>
      5   9999  3.19816E-02  2.54722E+01 -1.00000E+00  1.58145E-01
      21    -1     0     0   502   501  0.000000000E+00  0.000000000E+00  2.703714760E+01  2.703714760E+01  0.000000000E+00  0.00000E+00  9.000E+00
       2    -1     0     0   501     0  0.000000000E+00  0.000000000E+00 -2.665269569E+03  2.665269569E+03  0.000000000E+00  0.00000E+00  9.000E+00
      25     1     1     2     0     0 -1.133834653E+02  4.567581942E+01 -4.833019248E+02  5.139531508E+02  1.250000000E+02  0.00000E+00  9.000E+00
      25     1     1     2     0     0  1.386449182E+02 -4.240610208E+01 -7.786141090E+02  8.018014851E+02  1.250000000E+02  0.00000E+00  9.000E+00
       2     1     1     2   502     0 -2.526145288E+01 -3.269717344E+00 -1.376316387E+03  1.376552081E+03  3.051757812E-05  0.00000E+00  9.000E+00
#rwgt            2          13   3.3553364909074567E-004           2      133890           0
</event>
<event>
      5   9999  3.19816E-02  5.86390E+01 -1.00000E+00  1.35238E-01
      21    -1     0     0   502   511  0.000000000E+00  0.000000000E+00  1.428465799E+02  1.428465799E+02  0.000000000E+00  0.00000E+00  9.000E+00
      21    -1     0     0   501   502  0.000000000E+00  0.000000000E+00 -1.117851526E+03  1.117851526E+03  0.000000000E+00  0.00000E+00  9.000E+00
      25     1     1     2     0     0  7.804209962E+01  4.972890831E+01 -9.492428645E+02  9.618994487E+02  1.250000000E+02  0.00000E+00  9.000E+00
      25     1     1     2     0     0 -1.355196893E+02 -3.811607729E+01 -9.266600831E+01  2.098342456E+02  1.250000000E+02  0.00000E+00  9.000E+00
      21     1     1     2   501   511  5.747758972E+01 -1.161283102E+01  6.690392651E+01  8.896441169E+01  2.861022949E-06  0.00000E+00  9.000E+00
#rwgt            1           1   2.8782643238681436E-002           2      133924           0
</event>
<event>
      5   9999  3.69652E-02  2.58312E+01 -1.00000E+00  1.57694E-01
      21    -1     0     0   512   501  0.000000000E+00  0.000000000E+00  5.448135342E+02  5.448135342E+02  0.000000000E+00  0.00000E+00  9.000E+00
      21    -1     0     0   501   502  0.000000000E+00  0.000000000E+00 -2.299352199E+02  2.299352199E+02  0.000000000E+00  0.00000E+00  9.000E+00
      25     1     1     2     0     0  1.979534363E+02 -2.468160980E+02  6.709146801E+01  3.467419995E+02  1.250000000E+02  0.00000E+00  9.000E+00
      25     1     1     2     0     0 -1.891179219E+02  2.225429526E+02  2.051539410E+02  3.781588207E+02  1.250000000E+02  0.00000E+00  9.000E+00
      21     1     1     2   512   502 -8.835514396E+00  2.427314536E+01  4.263290532E+01  4.984793392E+01  4.768371582E-07  0.00000E+00  9.000E+00
#rwgt            1           1   3.6911346819145208E-002           2      134001           0
</event>
<event>
      5   9999  3.19816E-02  2.08933E+02 -1.00000E+00  1.10962E-01
      21    -1     0     0   502   501  0.000000000E+00  0.000000000E+00  2.446287706E+03  2.446287706E+03  0.000000000E+00  0.00000E+00  9.000E+00
      21    -1     0     0   511   502  0.000000000E+00  0.000000000E+00 -5.577858238E+01  5.577858238E+01  0.000000000E+00  0.00000E+00  9.000E+00
      25     1     1     2     0     0 -2.634390071E+01  2.449315236E+02  6.174132429E+02  6.763945334E+02  1.250000000E+02  0.00000E+00  9.000E+00
      25     1     1     2     0     0 -1.336235309E+02 -1.105305374E+02  1.111466622E+03  1.131837134E+03  1.250000000E+02  0.00000E+00  9.000E+00
      21     1     1     2   511   501  1.599674316E+02 -1.344009862E+02  6.616292591E+02  6.938346206E+02  7.629394531E-06  0.00000E+00  9.000E+00
#rwgt            2          11   8.6528243045901985E-003           2      134242           0
</event>
<event>
      5   9999  3.19816E-02  3.07532E+01 -1.00000E+00  1.52296E-01
      21    -1     0     0   502   501  0.000000000E+00  0.000000000E+00  3.425846754E+02  3.425846754E+02  0.000000000E+00  0.00000E+00  9.000E+00
      21    -1     0     0   501   512  0.000000000E+00  0.000000000E+00 -4.000603670E+02  4.000603670E+02  0.000000000E+00  0.00000E+00  9.000E+00
      25     1     1     2     0     0 -2.991765901E+01 -1.743100756E+02  4.105390654E+01  2.204302430E+02  1.250000000E+02  0.00000E+00  9.000E+00
      25     1     1     2     0     0  1.051778009E+01  1.504478669E+02  1.654769622E+02  2.564231062E+02  1.250000000E+02  0.00000E+00  9.000E+00
      21     1     1     2   502   512  1.939987892E+01  2.386220871E+01 -2.640065603E+02  2.657916933E+02  0.000000000E+00  0.00000E+00  9.000E+00
#rwgt            1           1   2.9850526418500743E-002           2      134292           0
</event>
<event>
      5   9999  3.19816E-02  1.54415E+02 -1.00000E+00  1.15897E-01
      21    -1     0     0   511   501  0.000000000E+00  0.000000000E+00  1.815140812E+02  1.815140812E+02  0.000000000E+00  0.00000E+00  9.000E+00
      21    -1     0     0   501   502  0.000000000E+00  0.000000000E+00 -9.008428355E+02  9.008428355E+02  0.000000000E+00  0.00000E+00  9.000E+00
      25     1     1     2     0     0 -1.591523434E+02 -4.988404685E+01 -2.522607155E+02  3.272282921E+02  1.250000000E+02  0.00000E+00  9.000E+00
      25     1     1     2     0     0  2.151184186E+01 -2.010883359E+01 -5.602477582E+02  5.747779354E+02  1.250000000E+02  0.00000E+00  9.000E+00
      21     1     1     2   511   502  1.376405015E+02  6.999288045E+01  9.317971950E+01  1.803506892E+02  3.568322551E-06  0.00000E+00  9.000E+00
#rwgt            1           1   2.4980948237843706E-002           2      134385           0
</event>
<event>
      5   9999  3.19816E-02  2.71226E+01 -1.00000E+00  1.56145E-01
      21    -1     0     0   502   501  0.000000000E+00  0.000000000E+00  3.888964837E+02  3.888964837E+02  0.000000000E+00  0.00000E+00  9.000E+00
      21    -1     0     0   512   502  0.000000000E+00  0.000000000E+00 -4.899120809E+02  4.899120809E+02  0.000000000E+00  0.00000E+00  9.000E+00
      25     1     1     2     0     0  1.119567076E+02  3.191369076E+02 -2.399397853E+02  4.331036490E+02  1.250000000E+02  0.00000E+00  9.000E+00
      25     1     1     2     0     0 -8.683400725E+01 -3.293587684E+02  1.731592664E+02  4.020279526E+02  1.250000000E+02  0.00000E+00  9.000E+00
      21     1     1     2   512   501 -2.512270038E+01  1.022186075E+01 -3.423507824E+01  4.367696297E+01  8.259061849E-07  0.00000E+00  9.000E+00
#rwgt            1           1   2.7929072385279988E-002           2      134430           0
</event>
<event>
      5   9999  3.19816E-02  1.56679E+01 -1.00000E+00  1.75620E-01
      21    -1     0     0   502   501  0.000000000E+00  0.000000000E+00  1.396071229E+02  1.396071229E+02  0.000000000E+00  0.00000E+00  9.000E+00
       2    -1     0     0   501     0  0.000000000E+00  0.000000000E+00 -1.664037187E+03  1.664037187E+03  0.000000000E+00  0.00000E+00  9.000E+00
      25     1     1     2     0     0 -1.338659736E+02  1.245819605E+02 -5.294763224E+02  5.739433245E+02  1.250000000E+02  0.00000E+00  9.000E+00
      25     1     1     2     0     0  1.346979600E+02 -1.089362080E+02  2.006142082E+01  2.145649050E+02  1.250000000E+02  0.00000E+00  9.000E+00
       2     1     1     2   502     0 -8.319864239E-01 -1.564575250E+01 -1.015015162E+03  1.015136080E+03  0.000000000E+00  0.00000E+00  9.000E+00
#rwgt            1           1   2.4998659475841786E-002           2      134603           0
</event>
<event>
      5   9999  3.19816E-02  8.37911E+01 -1.00000E+00  1.27384E-01
      -1    -1     0     0     0   501  0.000000000E+00  0.000000000E+00  2.908344801E+03  2.908344801E+03  0.000000000E+00  0.00000E+00  9.000E+00
      21    -1     0     0   501   502  0.000000000E+00  0.000000000E+00 -2.055904211E+01  2.055904211E+01  0.000000000E+00  0.00000E+00  9.000E+00
      25     1     1     2     0     0  7.299881879E+01 -1.565054536E+02  8.728914873E+02  8.985473460E+02  1.250000000E+02  0.00000E+00  9.000E+00
      25     1     1     2     0     0 -4.583735943E+00  1.081284838E+02  1.418889599E+03  1.428490628E+03  1.250000000E+02  0.00000E+00  9.000E+00
      -1     1     1     2     0   502 -6.841508285E+01  4.837696977E+01  5.960046733E+02  6.018658699E+02  7.629394531E-06  0.00000E+00  9.000E+00
#rwgt            1           1   5.1356651585300943E-002           2      134752           0
</event>
<event>
      5   9999  3.19816E-02  5.37217E+01 -1.00000E+00  1.37320E-01
      21    -1     0     0   511   501  0.000000000E+00  0.000000000E+00  5.968151216E+02  5.968151216E+02  0.000000000E+00  0.00000E+00  9.000E+00
      21    -1     0     0   501   502  0.000000000E+00  0.000000000E+00 -5.106709479E+02  5.106709479E+02  0.000000000E+00  0.00000E+00  9.000E+00
      25     1     1     2     0     0 -4.745869398E+02 -6.730760537E+01 -9.668208692E+00  4.954609485E+02  1.250000000E+02  0.00000E+00  9.000E+00
      25     1     1     2     0     0  5.022930209E+02  2.128154232E+01  1.913816953E+01  5.184037542E+02  1.250000000E+02  0.00000E+00  9.000E+00
      21     1     1     2   511   502 -2.770608104E+01  4.602606306E+01  7.667421285E+01  9.362136681E+01  1.348699152E-06  0.00000E+00  9.000E+00
#rwgt            1           1   3.2147989766685814E-002           2      134842           0
</event>
<event>
      5   9999  3.19816E-02  9.71791E+01 -1.00000E+00  1.24389E-01
      21    -1     0     0   502   501  0.000000000E+00  0.000000000E+00  6.286401461E+02  6.286401461E+02  0.000000000E+00  0.00000E+00  9.000E+00
       2    -1     0     0   501     0  0.000000000E+00  0.000000000E+00 -1.189949499E+03  1.189949499E+03  0.000000000E+00  0.00000E+00  9.000E+00
      25     1     1     2     0     0 -2.764623318E+01 -2.584355798E+01  2.241725564E+01  1.325131580E+02  1.250000000E+02  0.00000E+00  9.000E+00
      25     1     1     2     0     0 -8.428953972E+00 -6.439143472E+01  5.400435644E+02  5.581123144E+02  1.250000000E+02  0.00000E+00  9.000E+00
       2     1     1     2   502     0  3.607518715E+01  9.023499270E+01 -1.123770173E+03  1.127964173E+03  1.525878906E-05  0.00000E+00  9.000E+00
#rwgt            1           1   3.3658362886028810E-002           2      135007           0
</event>
<event>
      5   9999  3.19816E-02  6.84610E+01 -1.00000E+00  1.31712E-01
      21    -1     0     0   511   501  0.000000000E+00  0.000000000E+00  4.097270640E+02  4.097270640E+02  0.000000000E+00  0.00000E+00  9.000E+00
      21    -1     0     0   501   502  0.000000000E+00  0.000000000E+00 -2.328887919E+02  2.328887919E+02  0.000000000E+00  0.00000E+00  9.000E+00
      25     1     1     2     0     0 -1.468422382E+02 -1.745282394E+01 -1.322771751E+02  2.344983903E+02  1.250000000E+02  0.00000E+00  9.000E+00
      25     1     1     2     0     0  8.394062354E+01 -9.571103498E+00  8.369968003E+01  1.725348392E+02  1.250000000E+02  0.00000E+00  9.000E+00
      21     1     1     2   511   502  6.290161469E+01  2.702392744E+01  2.254157671E+02  2.355826264E+02  0.000000000E+00  0.00000E+00  9.000E+00
#rwgt            1           1   2.6094059190323267E-002           2      135057           0
</event>
<event>
      5   9999  3.19816E-02  4.66966E+01 -1.00000E+00  1.40791E-01
      21    -1     0     0   502   501  0.000000000E+00  0.000000000E+00  3.632282575E+02  3.632282575E+02  0.000000000E+00  0.00000E+00  9.000E+00
      21    -1     0     0   501   512  0.000000000E+00  0.000000000E+00 -4.225310349E+02  4.225310349E+02  0.000000000E+00  0.00000E+00  9.000E+00
      25     1     1     2     0     0  1.574576424E+02 -3.042774095E+02 -3.163074982E+01  3.660644143E+02  1.250000000E+02  0.00000E+00  9.000E+00
      25     1     1     2     0     0 -1.165541332E+02  3.268046827E+02 -7.621658475E+00  3.688756651E+02  1.250000000E+02  0.00000E+00  9.000E+00
      21     1     1     2   502   512 -4.090350922E+01 -2.252727317E+01 -2.005036914E+01  5.081921296E+01  4.768371582E-07  0.00000E+00  9.000E+00
#rwgt            1           1   2.7541104743426352E-002           2      135115           0
</event>
<event>
      5   9999  3.19816E-02  2.83981E+01 -1.00000E+00  1.54714E-01
       1    -1     0     0   502     0  0.000000000E+00  0.000000000E+00  1.840638234E+02  1.840638234E+02  0.000000000E+00  0.00000E+00  9.000E+00
      21    -1     0     0   501   502  0.000000000E+00  0.000000000E+00 -7.914655074E+02  7.914655074E+02  0.000000000E+00  0.00000E+00  9.000E+00
      25     1     1     2     0     0 -1.488763810E+02 -1.325707020E+02 -1.737009783E+02  2.924657206E+02  1.250000000E+02  0.00000E+00  9.000E+00
      25     1     1     2     0     0  1.659951477E+02  1.552290635E+02 -5.260111473E+02  5.864837409E+02  1.250000000E+02  0.00000E+00  9.000E+00
       1     1     1     2   501     0 -1.711876669E+01 -2.265836147E+01  9.231044171E+01  9.657986936E+01  2.336015456E-06  0.00000E+00  9.000E+00
#rwgt            1           1   3.0274950280366631E-002           2      135209           0
</event>
<event>
      5   9999  3.19816E-02  1.03898E+02 -1.00000E+00  1.23085E-01
      21    -1     0     0   502   511  0.000000000E+00  0.000000000E+00  1.834285395E+03  1.834285395E+03  0.000000000E+00  0.00000E+00  9.000E+00
      21    -1     0     0   501   502  0.000000000E+00  0.000000000E+00 -6.011944640E+01  6.011944640E+01  0.000000000E+00  0.00000E+00  9.000E+00
      25     1     1     2     0     0 -1.761540509E+02 -1.900011171E+02  6.064481742E+02  6.712190865E+02  1.250000000E+02  0.00000E+00  9.000E+00
      25     1     1     2     0     0  9.393732153E+01  1.264771669E+02  3.923741101E+02  4.409117104E+02  1.250000000E+02  0.00000E+00  9.000E+00
      21     1     1     2   501   511  8.221672932E+01  6.352395028E+01  7.753436647E+02  7.822740449E+02  1.868812365E-05  0.00000E+00  9.000E+00
#rwgt            1           1   3.0482047965329946E-002           2      135327           0
</event>
<event>
      5   9999  3.19816E-02  2.06223E+01 -1.00000E+00  1.65278E-01
      21    -1     0     0   502   501  0.000000000E+00  0.000000000E+00  6.868623949E+01  6.868623949E+01  0.000000000E+00  0.00000E+00  9.000E+00
      21    -1     0     0   501   512  0.000000000E+00  0.000000000E+00 -9.716469642E+02  9.716469642E+02  0.000000000E+00  0.00000E+00  9.000E+00
      25     1     1     2     0     0  1.404288072E+02 -4.645182022E+00 -5.579621860E+02  5.888027077E+02  1.250000000E+02  0.00000E+00  9.000E+00
      25     1     1     2     0     0 -1.610511209E+02  4.612742004E+00 -1.443890965E+02  2.498638671E+02  1.250000000E+02  0.00000E+00  9.000E+00
      21     1     1     2   502   512  2.062231371E+01  3.244001728E-02 -2.006094422E+02  2.016666289E+02  2.697398305E-06  0.00000E+00  9.000E+00
#rwgt            1           1   3.3394511698161780E-002           2      135375           0
</event>
<event>
      5   9999  3.19816E-02  2.16110E+01 -1.00000E+00  1.63640E-01
      21    -1     0     0   502   511  0.000000000E+00  0.000000000E+00  1.398324307E+03  1.398324307E+03  0.000000000E+00  0.00000E+00  9.000E+00
      21    -1     0     0   501   502  0.000000000E+00  0.000000000E+00 -5.887758428E+01  5.887758428E+01  0.000000000E+00  0.00000E+00  9.000E+00
      25     1     1     2     0     0  2.034574631E+02 -1.177242953E+02  6.202306233E+02  6.749555356E+02  1.250000000E+02  0.00000E+00  9.000E+00
      25     1     1     2     0     0 -2.208394318E+02  1.305656652E+02  6.543255305E+02  7.138517685E+02  1.250000000E+02  0.00000E+00  9.000E+00
      21     1     1     2   501   511  1.738196865E+01 -1.284136986E+01  6.489056903E+01  6.839458723E+01  0.000000000E+00  0.00000E+00  9.000E+00
#rwgt            1           1   3.4098202910990943E-002           2      135499           0
</event>
<event>
      5   9999  3.19816E-02  2.20904E+02 -1.00000E+00  1.10099E-01
      21    -1     0     0   502   501  0.000000000E+00  0.000000000E+00  1.574408602E+03  1.574408602E+03  0.000000000E+00  0.00000E+00  9.000E+00
       2    -1     0     0   501     0  0.000000000E+00  0.000000000E+00 -9.928763820E+02  9.928763820E+02  0.000000000E+00  0.00000E+00  9.000E+00
      25     1     1     2     0     0  8.576392570E+01 -3.676749696E+02  1.421865542E+03  1.476437250E+03  1.250000000E+02  0.00000E+00  9.000E+00
      25     1     1     2     0     0  1.229156139E+02  4.401422124E+02 -5.981983240E+02  7.630856113E+02  1.250000000E+02  0.00000E+00  9.000E+00
       2     1     1     2   502     0 -2.086795396E+02 -7.246724277E+01 -2.421349981E+02  3.277621223E+02  7.136645101E-06  0.00000E+00  9.000E+00
#rwgt            2          13   8.0168592705775999E-004           2      135782           0
</event>
<event>
      5   9999  3.19816E-02  1.21049E+02 -1.00000E+00  1.20208E-01
      21    -1     0     0   502   501  0.000000000E+00  0.000000000E+00  2.330396000E+02  2.330396000E+02  0.000000000E+00  0.00000E+00  9.000E+00
      21    -1     0     0   511   502  0.000000000E+00  0.000000000E+00 -1.999610160E+03  1.999610160E+03  0.000000000E+00  0.00000E+00  9.000E+00
      25     1     1     2     0     0 -4.299475521E+02 -1.802338602E+02 -7.965380887E+02  9.313630166E+02  1.250000000E+02  0.00000E+00  9.000E+00
      25     1     1     2     0     0  3.549797907E+02  2.752742825E+02 -1.764796196E+02  4.985545492E+02  1.250000000E+02  0.00000E+00  9.000E+00
      21     1     1     2   511   501  7.496776136E+01 -9.504042221E+01 -7.935528513E+02  8.027321938E+02  0.000000000E+00  0.00000E+00  9.000E+00
#rwgt            1           1   2.5916365374058583E-002           2      135816           0
</event>
<event>
      5   9999  3.19816E-02  1.20680E+01 -1.00000E+00  1.86770E-01
      21    -1     0     0   502   512  0.000000000E+00  0.000000000E+00  1.645265935E+03  1.645265935E+03  0.000000000E+00  0.00000E+00  9.000E+00
      21    -1     0     0   501   502  0.000000000E+00  0.000000000E+00 -4.148408638E+02  4.148408638E+02  0.000000000E+00  0.00000E+00  9.000E+00
      25     1     1     2     0     0  5.743223161E+02  3.991324994E+02  5.120977781E+02  8.757979271E+02  1.250000000E+02  0.00000E+00  9.000E+00
      25     1     1     2     0     0 -5.629085253E+02 -3.952129715E+02  2.916467079E+02  7.574576575E+02  1.250000000E+02  0.00000E+00  9.000E+00
      21     1     1     2   501   512 -1.141379077E+01 -3.919527851E+00  4.266805848E+02  4.268512139E+02  5.394796609E-06  0.00000E+00  9.000E+00
#rwgt            1           1   2.9940478402462261E-002           2      135915           0
</event>
<event>
      5   9999  3.19816E-02  3.57513E+02 -1.00000E+00  1.03175E-01
      21    -1     0     0   502   501  0.000000000E+00  0.000000000E+00  1.425856870E+03  1.425856870E+03  0.000000000E+00  0.00000E+00  9.000E+00
       2    -1     0     0   501     0  0.000000000E+00  0.000000000E+00 -1.669623708E+03  1.669623708E+03  0.000000000E+00  0.00000E+00  9.000E+00
      25     1     1     2     0     0 -8.389723461E+01 -2.140032909E+02  1.249651807E+02  2.899611196E+02  1.250000000E+02  0.00000E+00  9.000E+00
      25     1     1     2     0     0  3.152875734E+02  4.865357319E+02  1.123836507E+03  1.270730800E+03  1.250000000E+02  0.00000E+00  9.000E+00
       2     1     1     2   502     0 -2.313903388E+02 -2.725324410E+02 -1.492568526E+03  1.534788658E+03  2.157918644E-05  0.00000E+00  9.000E+00
#rwgt            2          13   6.8033498983505868E-003           2      136225           0
</event>
<event>
      5   9999  3.19816E-02  1.94989E+02 -1.00000E+00  1.12051E-01
       2    -1     0     0   502     0  0.000000000E+00  0.000000000E+00  1.443641362E+03  1.443641362E+03  0.000000000E+00  0.00000E+00  9.000E+00
      21    -1     0     0   501   502  0.000000000E+00  0.000000000E+00 -5.050848217E+02  5.050848217E+02  0.000000000E+00  0.00000E+00  9.000E+00
      25     1     1     2     0     0  6.901535463E+01  1.984675449E+02  7.362963459E+01  2.553405739E+02  1.250000000E+02  0.00000E+00  9.000E+00
      25     1     1     2     0     0 -2.554291951E+02 -2.556580592E+02 -3.162453392E+02  4.962269959E+02  1.250000000E+02  0.00000E+00  9.000E+00
       2     1     1     2   501     0  1.864138404E+02  5.719051423E+01  1.181172245E+03  1.197158614E+03  0.000000000E+00  0.00000E+00  9.000E+00
#rwgt            2          18   3.2735893711218576E-003           2      136244           0
</event>
<event>
      5   9999  3.19816E-02  2.41686E+01 -1.00000E+00  1.59859E-01
      21    -1     0     0   502   511  0.000000000E+00  0.000000000E+00  5.999741720E+01  5.999741720E+01  0.000000000E+00  0.00000E+00  9.000E+00
      21    -1     0     0   501   502  0.000000000E+00  0.000000000E+00 -7.980999766E+02  7.980999766E+02  0.000000000E+00  0.00000E+00  9.000E+00
      25     1     1     2     0     0  2.617697062E+01  1.559931498E+02 -2.748971440E+02  3.408995987E+02  1.250000000E+02  0.00000E+00  9.000E+00
      25     1     1     2     0     0 -2.177074720E+00 -1.588439093E+02 -4.373515050E+02  4.818064612E+02  1.250000000E+02  0.00000E+00  9.000E+00
      21     1     1     2   501   511 -2.399989590E+01  2.850759467E+00 -2.585391034E+01  3.539133386E+01  5.840038640E-07  0.00000E+00  9.000E+00
#rwgt            1           1   3.3820705617172334E-002           2      136308           0
</event>
<event>
      5   9999  3.19816E-02  5.29411E+01 -1.00000E+00  1.37674E-01
      21    -1     0     0   502   501  0.000000000E+00  0.000000000E+00  2.477785210E+02  2.477785210E+02  0.000000000E+00  0.00000E+00  9.000E+00
      21    -1     0     0   501   512  0.000000000E+00  0.000000000E+00 -5.838413347E+02  5.838413347E+02  0.000000000E+00  0.00000E+00  9.000E+00
      25     1     1     2     0     0 -1.495025347E+02 -6.746900920E+01  1.534015141E+02  2.570215937E+02  1.250000000E+02  0.00000E+00  9.000E+00
      25     1     1     2     0     0  1.851101359E+02  1.066462821E+02 -3.897803752E+02  4.617282023E+02  1.250000000E+02  0.00000E+00  9.000E+00
      21     1     1     2   502   512 -3.560760118E+01 -3.917727294E+01 -9.968395258E+01  1.128700597E+02  2.336015456E-06  0.00000E+00  9.000E+00
#rwgt            2          11   2.2383052630840124E-003           2      136508           0
</event>
<event>
      5   9999  3.19816E-02  1.25785E+02 -1.00000E+00  1.19507E-01
      21    -1     0     0   502   501  0.000000000E+00  0.000000000E+00  6.297973611E+02  6.297973611E+02  0.000000000E+00  0.00000E+00  9.000E+00
      21    -1     0     0   501   511  0.000000000E+00  0.000000000E+00 -1.190290022E+02  1.190290022E+02  0.000000000E+00  0.00000E+00  9.000E+00
      25     1     1     2     0     0  8.715757170E+01  3.241997388E+01  2.658383827E+02  3.081274780E+02  1.250000000E+02  0.00000E+00  9.000E+00
      25     1     1     2     0     0 -1.403608883E+02 -1.463989735E+02  1.834855457E+02  3.007088024E+02  1.250000000E+02  0.00000E+00  9.000E+00
      21     1     1     2   502   511  5.320331655E+01  1.139789996E+02  6.144443063E+01  1.399900828E+02  2.023048729E-06  0.00000E+00  9.000E+00
#rwgt            1           1   2.8767733064591561E-002           2      136558           0
</event>
<event>
      5   9999  3.19816E-02  7.95624E+01 -1.00000E+00  1.28465E-01
      21    -1     0     0   502   512  0.000000000E+00  0.000000000E+00  1.695033884E+03  1.695033884E+03  0.000000000E+00  0.00000E+00  9.000E+00
      21    -1     0     0   501   502  0.000000000E+00  0.000000000E+00 -1.563913900E+02  1.563913900E+02  0.000000000E+00  0.00000E+00  9.000E+00
      25     1     1     2     0     0  3.948606619E+02  1.006905117E+02  4.256507637E+02  6.023762064E+02  1.250000000E+02  0.00000E+00  9.000E+00
      25     1     1     2     0     0 -3.295377963E+02 -1.461118316E+02  4.901231343E+02  6.211195644E+02  1.250000000E+02  0.00000E+00  9.000E+00
      21     1     1     2   501   512 -6.532286561E+01  4.542131983E+01  6.228685963E+02  6.279295035E+02  1.078959322E-05  0.00000E+00  9.000E+00
#rwgt            1           1   2.8583085385382317E-002           2      136616           0
</event>
<event>
      5   9999  3.19816E-02  4.57547E+02 -1.00000E+00  9.99592E-02
       2    -1     0     0   502     0  0.000000000E+00  0.000000000E+00  1.574539527E+03  1.574539527E+03  0.000000000E+00  0.00000E+00  9.000E+00
      21    -1     0     0   501   502  0.000000000E+00  0.000000000E+00 -3.480931468E+02  3.480931468E+02  0.000000000E+00  0.00000E+00  9.000E+00
      25     1     1     2     0     0 -5.658914117E+02  1.052546209E+02  1.082955418E+02  5.988860905E+02  1.250000000E+02  0.00000E+00  9.000E+00
      25     1     1     2     0     0  1.374426458E+02  5.531101187E+01  6.095207086E+02  6.396016598E+02  1.250000000E+02  0.00000E+00  9.000E+00
       2     1     1     2   501     0  4.284487659E+02 -1.605656327E+02  5.086301301E+02  6.841449237E+02  7.629394531E-06  0.00000E+00  9.000E+00
#rwgt            2          18   8.9231608280785301E-004           2      136719           0
</event>
<event>
      5   9999  3.19816E-02  1.86615E+01 -1.00000E+00  1.68890E-01
      21    -1     0     0   502   511  0.000000000E+00  0.000000000E+00  3.778226776E+02  3.778226776E+02  0.000000000E+00  0.00000E+00  9.000E+00
      21    -1     0     0   501   502  0.000000000E+00  0.000000000E+00 -3.937646869E+02  3.937646869E+02  0.000000000E+00  0.00000E+00  9.000E+00
      25     1     1     2     0     0  2.495849201E+02  1.470707700E+01 -2.541439402E+02  3.777870733E+02  1.250000000E+02  0.00000E+00  9.000E+00
      25     1     1     2     0     0 -2.614818174E+02 -3.295183189E-01  2.026401356E+02  3.536394689E+02  1.250000000E+02  0.00000E+00  9.000E+00
      21     1     1     2   501   511  1.189689737E+01 -1.437755868E+01  3.556179535E+01  4.016082232E+01  0.000000000E+00  0.00000E+00  9.000E+00
#rwgt            1           1   2.9068786207023540E-002           2      136753           0
</event>
<event>
      5   9999  3.19816E-02  5.35811E+01 -1.00000E+00  1.37383E-01
      21    -1     0     0   502   501  0.000000000E+00  0.000000000E+00  7.851347561E+01  7.851347561E+01  0.000000000E+00  0.00000E+00  9.000E+00
      21    -1     0     0   512   502  0.000000000E+00  0.000000000E+00 -1.150459581E+03  1.150459581E+03  0.000000000E+00  0.00000E+00  9.000E+00
      25     1     1     2     0     0 -5.953113973E+01  1.830951595E+02 -5.936169821E+02  6.364541738E+02  1.250000000E+02  0.00000E+00  9.000E+00
      25     1     1     2     0     0  6.384895253E+01 -2.365019932E+02 -3.030642272E+02  4.092466338E+02  1.250000000E+02  0.00000E+00  9.000E+00
      21     1     1     2   512   501 -4.317812800E+00  5.340683372E+01 -1.752648959E+02  1.832722487E+02  2.697398305E-06  0.00000E+00  9.000E+00
#rwgt            1           1   2.7116729756532908E-002           2      136909           0
</event>
<event>
      5   9999  3.19816E-02  2.55335E+02 -1.00000E+00  1.07918E-01
      21    -1     0     0   502   511  0.000000000E+00  0.000000000E+00  1.022309317E+03  1.022309317E+03  0.000000000E+00  0.00000E+00  9.000E+00
      21    -1     0     0   501   502  0.000000000E+00  0.000000000E+00 -3.489208663E+02  3.489208663E+02  0.000000000E+00  0.00000E+00  9.000E+00
      25     1     1     2     0     0  2.191625833E+02 -2.106433283E+02  1.777458349E+02  3.736595128E+02  1.250000000E+02  0.00000E+00  9.000E+00
      25     1     1     2     0     0 -4.706020369E+02  2.550756810E+02  1.536165610E+02  5.707476921E+02  1.250000000E+02  0.00000E+00  9.000E+00
      21     1     1     2   501   511  2.514394536E+02 -4.443235266E+01  3.420260551E+02  4.268229787E+02  6.607249480E-06  0.00000E+00  9.000E+00
#rwgt            2          11   3.1145656488590686E-003           2      137058           0
</event>
<event>
      5   9999  3.19816E-02  7.58161E+01 -1.00000E+00  1.29489E-01
      -4    -1     0     0     0   501  0.000000000E+00  0.000000000E+00  7.102923741E+02  7.102923741E+02  0.000000000E+00  0.00000E+00  9.000E+00
      21    -1     0     0   501   502  0.000000000E+00  0.000000000E+00 -1.560028336E+02  1.560028336E+02  0.000000000E+00  0.00000E+00  9.000E+00
      25     1     1     2     0     0 -2.205136891E+01 -1.418234456E+02 -2.958171083E+01  1.926142004E+02  1.250000000E+02  0.00000E+00  9.000E+00
      25     1     1     2     0     0  9.245489327E+01  1.699555889E+02  5.375787506E+02  5.848493161E+02  1.250000000E+02  0.00000E+00  9.000E+00
      -4     1     1     2     0   502 -7.040352437E+01 -2.813214336E+01  4.629250070E+01  8.883169116E+01  9.536743164E-07  0.00000E+00  9.000E+00
#rwgt            1           1   2.9033593951521833E-002           2      137078           0
</event>
<event>
      5   9999  3.19816E-02  6.14869E+01 -1.00000E+00  1.34138E-01
      21    -1     0     0   502   501  0.000000000E+00  0.000000000E+00  1.016958034E+03  1.016958034E+03  0.000000000E+00  0.00000E+00  9.000E+00
      21    -1     0     0   501   511  0.000000000E+00  0.000000000E+00 -2.447492023E+02  2.447492023E+02  0.000000000E+00  0.00000E+00  9.000E+00
      25     1     1     2     0     0  2.533260767E+02 -3.323918727E+02  3.106382742E+02  5.355180628E+02  1.250000000E+02  0.00000E+00  9.000E+00
      25     1     1     2     0     0 -2.836310988E+02  3.858918358E+02  4.359680358E+02  6.595848977E+02  1.250000000E+02  0.00000E+00  9.000E+00
      21     1     1     2   502   511  3.030502206E+01 -5.349996305E+01  2.560252131E+01  6.660427543E+01  1.261592536E-06  0.00000E+00  9.000E+00
#rwgt            1           1   2.9268316592878124E-002           2      137138           0
</event>
<event>
      5   9999  3.19816E-02  1.23160E+02 -1.00000E+00  1.19891E-01
      21    -1     0     0   502   501  0.000000000E+00  0.000000000E+00  8.096584050E+02  8.096584050E+02  0.000000000E+00  0.00000E+00  9.000E+00
       1    -1     0     0   501     0  0.000000000E+00  0.000000000E+00 -1.966820435E+03  1.966820435E+03  0.000000000E+00  0.00000E+00  9.000E+00
      25     1     1     2     0     0  7.180575518E+02 -5.814778613E+02 -9.234948953E+02  1.312322739E+03  1.250000000E+02  0.00000E+00  9.000E+00
      25     1     1     2     0     0 -8.411673047E+02  5.779764784E+02  1.699432136E+02  1.042173181E+03  1.250000000E+02  0.00000E+00  9.000E+00
       1     1     1     2   502     0  1.231097529E+02  3.501382955E+00 -4.036103485E+02  4.219829195E+02  0.000000000E+00  0.00000E+00  9.000E+00
#rwgt            2          12   4.1948146883756781E-004           2      137218           0
</event>
<event>
      5   9999  3.19816E-02  5.67512E+02 -1.00000E+00  9.73141E-02
      21    -1     0     0   502   501  0.000000000E+00  0.000000000E+00  1.554418635E+03  1.554418635E+03  0.000000000E+00  0.00000E+00  9.000E+00
      21    -1     0     0   501   511  0.000000000E+00  0.000000000E+00 -2.065515276E+03  2.065515276E+03  0.000000000E+00  0.00000E+00  9.000E+00
      25     1     1     2     0     0 -2.018804012E+02  7.543648193E+02 -1.387390118E+03  1.596965346E+03  1.250000000E+02  0.00000E+00  9.000E+00
      25     1     1     2     0     0  6.543067746E+02 -4.117564969E+02  1.151248629E+03  1.392357416E+03  1.250000000E+02  0.00000E+00  9.000E+00
      21     1     1     2   502   511 -4.524263734E+02 -3.426083224E+02 -2.749551515E+02  6.306111491E+02  9.344061824E-06  0.00000E+00  9.000E+00
#rwgt            2          11   6.8182248448672069E-003           2      137267           0
</event>
<event>
      5   9999  3.19816E-02  1.03605E+02 -1.00000E+00  1.23140E-01
      21    -1     0     0   502   501  0.000000000E+00  0.000000000E+00  4.216917188E+02  4.216917188E+02  0.000000000E+00  0.00000E+00  9.000E+00
      21    -1     0     0   512   502  0.000000000E+00  0.000000000E+00 -7.870641070E+02  7.870641070E+02  0.000000000E+00  0.00000E+00  9.000E+00
      25     1     1     2     0     0 -1.631127557E+02  3.198747060E+02  1.453182251E+02  4.070233226E+02  1.250000000E+02  0.00000E+00  9.000E+00
      25     1     1     2     0     0  6.981462605E+01 -2.748246030E+02 -3.151203856E+01  3.114813847E+02  1.250000000E+02  0.00000E+00  9.000E+00
      21     1     1     2   512   501  9.329812964E+01 -4.505010297E+01 -4.791785747E+02  4.902511186E+02  0.000000000E+00  0.00000E+00  9.000E+00
#rwgt            2          11   2.3942200677464481E-003           2      137287           0
</event>
<event>
      5   9999  3.19816E-02  2.48074E+01 -1.00000E+00  1.59003E-01
      21    -1     0     0   502   501  0.000000000E+00  0.000000000E+00  8.420521846E+02  8.420521846E+02  0.000000000E+00  0.00000E+00  9.000E+00
      21    -1     0     0   501   511  0.000000000E+00  0.000000000E+00 -1.492888052E+02  1.492888052E+02  0.000000000E+00  0.00000E+00  9.000E+00
      25     1     1     2     0     0 -2.960808134E+02 -2.552544752E+01  3.207474697E+02  4.547739393E+02  1.250000000E+02  0.00000E+00  9.000E+00
      25     1     1     2     0     0  3.206026734E+02  2.927819281E+01  3.769932590E+02  5.112652972E+02  1.250000000E+02  0.00000E+00  9.000E+00
      21     1     1     2   502   511 -2.452185996E+01 -3.752745286E+00 -4.977349297E+00  2.530175328E+01  4.878850443E-07  0.00000E+00  9.000E+00
#rwgt            1           1   3.0884128529780671E-002           2      137322           0
</event>
<event>
      5   9999  3.19816E-02  4.89839E+01 -1.00000E+00  1.39586E-01
      21    -1     0     0   512   501  0.000000000E+00  0.000000000E+00  5.063519973E+02  5.063519973E+02  0.000000000E+00  0.00000E+00  9.000E+00
      21    -1     0     0   501   502  0.000000000E+00  0.000000000E+00 -1.212823160E+02  1.212823160E+02  0.000000000E+00  0.00000E+00  9.000E+00
      25     1     1     2     0     0  2.470373497E+01  9.626338316E+01 -2.337977067E+00  1.597102990E+02  1.250000000E+02  0.00000E+00  9.000E+00
      25     1     1     2     0     0 -5.033810259E+01 -1.380042183E+02  2.156828509E+02  2.893495827E+02  1.250000000E+02  0.00000E+00  9.000E+00
      21     1     1     2   512   502  2.563436762E+01  4.174083513E+01  1.717248075E+02  1.785744316E+02  1.907348633E-06  0.00000E+00  9.000E+00
#rwgt            1           1   2.5121939660894932E-002           2      137473           0
</event>
<event>
      5   9999  3.19816E-02  6.40362E+01 -1.00000E+00  1.33210E-01
      21    -1     0     0   511   501  0.000000000E+00  0.000000000E+00  4.843379671E+02  4.843379671E+02  0.000000000E+00  0.00000E+00  9.000E+00
      21    -1     0     0   501   502  0.000000000E+00  0.000000000E+00 -6.193163363E+02  6.193163363E+02  0.000000000E+00  0.00000E+00  9.000E+00
      25     1     1     2     0     0 -1.687891079E+02  2.939047632E+02  1.307944806E+02  3.841900168E+02  1.250000000E+02  0.00000E+00  9.000E+00
      25     1     1     2     0     0  1.160750185E+02 -3.302622151E+02 -4.149671481E+02  5.571079560E+02  1.250000000E+02  0.00000E+00  9.000E+00
      21     1     1     2   511   502  5.271408938E+01  3.635745181E+01  1.491942982E+02  1.623563307E+02  2.697398305E-06  0.00000E+00  9.000E+00
#rwgt            1           1   2.8280647849565337E-002           2      137528           0
</event>
<event>
      5   9999  3.19816E-02  7.36592E+01 -1.00000E+00  1.30110E-01
       1    -1     0     0   502     0  0.000000000E+00  0.000000000E+00  5.018949821E+02  5.018949821E+02  0.000000000E+00  0.00000E+00  9.000E+00
      21    -1     0     0   501   502  0.000000000E+00  0.000000000E+00 -1.230747628E+03  1.230747628E+03  0.000000000E+00  0.00000E+00  9.000E+00
      25     1     1     2     0     0 -1.085312536E+01 -2.173633819E+02 -1.166785091E+03  1.193472697E+03  1.250000000E+02  0.00000E+00  9.000E+00
      25     1     1     2     0     0  7.208217479E+01  1.764160226E+02  2.552309141E+02  3.421787142E+02  1.250000000E+02  0.00000E+00  9.000E+00
       1     1     1     2   501     0 -6.122904943E+01  4.094735937E+01  1.827015313E+02  1.969911985E+02  2.697398305E-06  0.00000E+00  9.000E+00
#rwgt            1           1   2.6112775681389915E-002           2      137654           0
</event>
<event>
      5   9999  3.19816E-02  2.37976E+02 -1.00000E+00  1.08967E-01
      21    -1     0     0   502   501  0.000000000E+00  0.000000000E+00  3.660668141E+02  3.660668141E+02  0.000000000E+00  0.00000E+00  9.000E+00
      21    -1     0     0   511   502  0.000000000E+00  0.000000000E+00 -5.582293709E+02  5.582293709E+02  0.000000000E+00  0.00000E+00  9.000E+00
      25     1     1     2     0     0 -1.430238321E+02  7.933655470E+01  1.017042882E+02  2.296058964E+02  1.250000000E+02  0.00000E+00  9.000E+00
      25     1     1     2     0     0  1.850496140E+02 -3.135726240E+02 -1.323477102E+02  4.070774700E+02  1.250000000E+02  0.00000E+00  9.000E+00
      21     1     1     2   511   501 -4.202578191E+01  2.342360693E+02 -1.615191347E+02  2.876128185E+02  4.264961200E-06  0.00000E+00  9.000E+00
#rwgt            2          11   3.4286486092888952E-003           2      137746           0
</event>
<event>
      5   9999  3.19816E-02  1.84371E+02 -1.00000E+00  1.12950E-01
      21    -1     0     0   502   501  0.000000000E+00  0.000000000E+00  3.288494356E+02  3.288494356E+02  0.000000000E+00  0.00000E+00  9.000E+00
      21    -1     0     0   501   512  0.000000000E+00  0.000000000E+00 -3.884951184E+02  3.884951184E+02  0.000000000E+00  0.00000E+00  9.000E+00
      25     1     1     2     0     0 -9.770188479E+01 -4.337547387E+01  1.666429702E+02  2.341409181E+02  1.250000000E+02  0.00000E+00  9.000E+00
      25     1     1     2     0     0 -8.367345252E+01  7.647792000E+01  2.598842287E+01  1.707352249E+02  1.250000000E+02  0.00000E+00  9.000E+00
      21     1     1     2   502   512  1.813753373E+02 -3.310244613E+01 -2.522770758E+02  3.124684111E+02  3.814697266E-06  0.00000E+00  9.000E+00
#rwgt            1           1   6.9606610132099025E-002           2      137781           0
</event>
<event>
      5   9999  3.19816E-02  1.16564E+02 -1.00000E+00  1.20906E-01
      21    -1     0     0   502   501  0.000000000E+00  0.000000000E+00  1.007308970E+03  1.007308970E+03  0.000000000E+00  0.00000E+00  9.000E+00
      21    -1     0     0   501   511  0.000000000E+00  0.000000000E+00 -8.769056472E+02  8.769056472E+02  0.000000000E+00  0.00000E+00  9.000E+00
      25     1     1     2     0     0 -4.628835327E+02 -4.726229789E+02  7.087569001E+02  9.775453894E+02  1.250000000E+02  0.00000E+00  9.000E+00
      25     1     1     2     0     0  4.403731945E+02  3.582534444E+02 -4.701138591E+02  7.476002417E+02  1.250000000E+02  0.00000E+00  9.000E+00
      21     1     1     2   502   511  2.251033812E+01  1.143695345E+02 -1.082397182E+02  1.590689861E+02  1.907348633E-06  0.00000E+00  9.000E+00
#rwgt            1           1   3.9741373974727261E-002           2      137821           0
</event>
<event>
      5   9999  3.19816E-02  1.80850E+02 -1.00000E+00  1.13263E-01
      21    -1     0     0   502   501  0.000000000E+00  0.000000000E+00  7.901297016E+02  7.901297016E+02  0.000000000E+00  0.00000E+00  9.000E+00
       3    -1     0     0   501     0  0.000000000E+00  0.000000000E+00 -5.354461501E+02  5.354461501E+02  0.000000000E+00  0.00000E+00  9.000E+00
      25     1     1     2     0     0  5.197758700E+01 -8.696960228E+01  6.835596129E+02  7.022422130E+02  1.250000000E+02  0.00000E+00  9.000E+00
      25     1     1     2     0     0  6.996228346E+01  2.205258209E+02 -1.934194892E+02  3.264390565E+02  1.250000000E+02  0.00000E+00  9.000E+00
       3     1     1     2   502     0 -1.219398705E+02 -1.335562186E+02 -2.354565723E+02  2.968945822E+02  4.672030912E-06  0.00000E+00  9.000E+00
#rwgt            1           1   2.7073020711809868E-002           2      137960           0
</event>
<event>
      5   9999  3.19816E-02  9.86300E+01 -1.00000E+00  1.24098E-01
      21    -1     0     0   502   501  0.000000000E+00  0.000000000E+00  1.726571867E+03  1.726571867E+03  0.000000000E+00  0.00000E+00  9.000E+00
      21    -1     0     0   501   511  0.000000000E+00  0.000000000E+00 -5.188110128E+01  5.188110128E+01  0.000000000E+00  0.00000E+00  9.000E+00
      25     1     1     2     0     0 -1.309599358E+02  9.226567384E+01  1.052707093E+03  1.072138370E+03  1.250000000E+02  0.00000E+00  9.000E+00
      25     1     1     2     0     0  7.358083520E+01 -1.724873155E+02  5.069457967E+02  5.547837905E+02  1.250000000E+02  0.00000E+00  9.000E+00
      21     1     1     2   502   511  5.737910056E+01  8.022164168E+01  1.150378754E+02  1.515308079E+02  1.348699152E-06  0.00000E+00  9.000E+00
#rwgt            1           1   3.6718721426540167E-002           2      138006           0
</event>
<event>
      5   9999  3.19816E-02  3.42304E+01 -1.00000E+00  1.49164E-01
      21    -1     0     0   502   501  0.000000000E+00  0.000000000E+00  7.959724533E+01  7.959724533E+01  0.000000000E+00  0.00000E+00  9.000E+00
      21    -1     0     0   512   502  0.000000000E+00  0.000000000E+00 -2.652849558E+03  2.652849558E+03  0.000000000E+00  0.00000E+00  9.000E+00
      25     1     1     2     0     0 -1.807879727E+02 -1.350251103E+02 -1.698571893E+02  3.088568216E+02  1.250000000E+02  0.00000E+00  9.000E+00
      25     1     1     2     0     0  2.055500030E+02  1.113911572E+02 -1.821823889E+03  1.841012242E+03  1.250000000E+02  0.00000E+00  9.000E+00
      21     1     1     2   512   501 -2.476203032E+01  2.363395316E+01 -5.815712339E+02  5.825777390E+02  0.000000000E+00  0.00000E+00  9.000E+00
#rwgt            1           1   2.6789502100584225E-002           2      138077           0
</event>
<event>
      5   9999  3.19816E-02  2.65825E+02 -1.00000E+00  1.07327E-01
      21    -1     0     0   502   501  0.000000000E+00  0.000000000E+00  2.242771754E+02  2.242771754E+02  0.000000000E+00  0.00000E+00  9.000E+00
      21    -1     0     0   501   511  0.000000000E+00  0.000000000E+00 -8.055748706E+02  8.055748706E+02  0.000000000E+00  0.00000E+00  9.000E+00
      25     1     1     2     0     0 -4.163628656E+01 -1.367384076E+02 -1.985077709E+02  2.747022162E+02  1.250000000E+02  0.00000E+00  9.000E+00
      25     1     1     2     0     0  2.285094390E+02 -5.231583152E+01  2.663539058E+01  2.669980411E+02  1.250000000E+02  0.00000E+00  9.000E+00
      21     1     1     2   502   511 -1.868731524E+02  1.890542391E+02 -4.094253149E+02  4.881517888E+02  5.394796609E-06  0.00000E+00  9.000E+00
#rwgt            1           1   2.7089736192447384E-002           2      138285           0
</event>
<event>
      5   9999  3.19816E-02  1.53008E+02 -1.00000E+00  1.16053E-01
      21    -1     0     0   502   501  0.000000000E+00  0.000000000E+00  1.606995422E+03  1.606995422E+03  0.000000000E+00  0.00000E+00  9.000E+00
       1    -1     0     0   501     0  0.000000000E+00  0.000000000E+00 -4.035924895E+02  4.035924895E+02  0.000000000E+00  0.00000E+00  9.000E+00
      25     1     1     2     0     0 -1.761121089E+02 -3.495144242E+02  5.726932640E+02  7.048250721E+02  1.250000000E+02  0.00000E+00  9.000E+00
      25     1     1     2     0     0  2.378379279E+02  2.095098655E+02  9.185928032E+02  9.797443553E+02  1.250000000E+02  0.00000E+00  9.000E+00
       1     1     1     2   502     0 -6.172581900E+01  1.400045587E+02 -2.878831343E+02  3.260184845E+02  7.629394531E-06  0.00000E+00  9.000E+00
#rwgt            2          12   6.9212635704567302E-004           2      138330           0
</event>
<event>
      5   9999  3.19816E-02  2.69794E+01 -1.00000E+00  1.56311E-01
      21    -1     0     0   511   501  0.000000000E+00  0.000000000E+00  2.796322975E+02  2.796322975E+02  0.000000000E+00  0.00000E+00  9.000E+00
      21    -1     0     0   501   502  0.000000000E+00  0.000000000E+00 -8.000893808E+02  8.000893808E+02  0.000000000E+00  0.00000E+00  9.000E+00
      25     1     1     2     0     0 -7.554414906E+01  2.825017244E+02 -6.525587868E+02  7.259284489E+02  1.250000000E+02  0.00000E+00  9.000E+00
      25     1     1     2     0     0  5.234135501E+01 -2.687350798E+02  1.249909135E+02  3.258924501E+02  1.250000000E+02  0.00000E+00  9.000E+00
      21     1     1     2   511   502  2.320279405E+01 -1.376664461E+01  7.110789958E+00  2.790077937E+01  1.460009660E-07  0.00000E+00  9.000E+00
#rwgt            1           1   2.9364271916962285E-002           2      138349           0
</event>
<event>
      5   9999  3.19816E-02  2.60190E+02 -1.00000E+00  1.07641E-01
      -1    -1     0     0     0   501  0.000000000E+00  0.000000000E+00  2.713680319E+02  2.713680319E+02  0.000000000E+00  0.00000E+00  9.000E+00
      21    -1     0     0   501   502  0.000000000E+00  0.000000000E+00 -9.958145622E+02  9.958145622E+02  0.000000000E+00  0.00000E+00  9.000E+00
      25     1     1     2     0     0  3.744439593E+02 -9.389141367E+01 -4.792853652E+02  6.279835488E+02  1.250000000E+02  0.00000E+00  9.000E+00
      25     1     1     2     0     0 -1.147007944E+02  7.865549186E+01 -3.180882021E+02  3.689824697E+02  1.250000000E+02  0.00000E+00  9.000E+00
      -1     1     1     2     0   502 -2.597431649E+02  1.523592181E+01  7.292703707E+01  2.702165757E+02  6.325959759E-06  0.00000E+00  9.000E+00
#rwgt            1           1   2.9711215147264072E-002           2      138527           0
</event>
<event>
      5   9999  3.19816E-02  7.59480E+01 -1.00000E+00  1.29452E-01
      21    -1     0     0   502   511  0.000000000E+00  0.000000000E+00  4.320711931E+02  4.320711931E+02  0.000000000E+00  0.00000E+00  9.000E+00
      21    -1     0     0   501   502  0.000000000E+00  0.000000000E+00 -1.575567527E+03  1.575567527E+03  0.000000000E+00  0.00000E+00  9.000E+00
      25     1     1     2     0     0  1.770499014E+02  5.558271356E+02 -1.161530273E+03  1.305782542E+03  1.250000000E+02  0.00000E+00  9.000E+00
      25     1     1     2     0     0 -1.164754512E+02 -6.016401975E+02  1.029089016E+01  6.255144766E+02  1.250000000E+02  0.00000E+00  9.000E+00
      21     1     1     2   501   511 -6.057445019E+01  4.581306190E+01  7.743048496E+00  7.634170195E+01  1.353957259E-06  0.00000E+00  9.000E+00
#rwgt            2          11   9.0848511515045447E-003           2      138581           0
</event>
<event>
      5   9999  3.19816E-02  6.39843E+01 -1.00000E+00  1.33228E-01
      21    -1     0     0   502   512  0.000000000E+00  0.000000000E+00  8.475614051E+01  8.475614051E+01  0.000000000E+00  0.00000E+00  9.000E+00
      21    -1     0     0   501   502  0.000000000E+00  0.000000000E+00 -2.134665279E+03  2.134665279E+03  0.000000000E+00  0.00000E+00  9.000E+00
      25     1     1     2     0     0 -2.159706971E+02  2.061402213E+02 -1.639313609E+03  1.670961173E+03  1.250000000E+02  0.00000E+00  9.000E+00
      25     1     1     2     0     0  1.541174418E+02 -2.225158680E+02 -3.559424961E+02  4.643119187E+02  1.250000000E+02  0.00000E+00  9.000E+00
      21     1     1     2   501   512  6.185325535E+01  1.637564665E+01 -5.465303314E+01  8.414832756E+01  9.536743164E-07  0.00000E+00  9.000E+00
#rwgt            1           1   2.5107579492132291E-002           2      138601           0
</event>
<event>
      5   9999  3.19816E-02  5.30784E+01 -1.00000E+00  1.37611E-01
       3    -1     0     0   502     0  0.000000000E+00  0.000000000E+00  5.451705031E+02  5.451705031E+02  0.000000000E+00  0.00000E+00  9.000E+00
      21    -1     0     0   501   502  0.000000000E+00  0.000000000E+00 -2.354228225E+02  2.354228225E+02  0.000000000E+00  0.00000E+00  9.000E+00
      25     1     1     2     0     0 -1.532771089E+02  1.796439235E+02  7.611957459E+01  2.778218872E+02  1.250000000E+02  0.00000E+00  9.000E+00
      25     1     1     2     0     0  1.178493340E+02 -2.191684461E+02  1.618616485E+01  2.789449143E+02  1.250000000E+02  0.00000E+00  9.000E+00
       3     1     1     2   501     0  3.542777488E+01  3.952452260E+01  2.174419411E+02  2.238265241E+02  2.697398305E-06  0.00000E+00  9.000E+00
#rwgt            1           1   2.5670810459916663E-002           2      138695           0
</event>
<event>
      5   9999  3.19816E-02  8.44143E+01 -1.00000E+00  1.27231E-01
      21    -1     0     0   511   501  0.000000000E+00  0.000000000E+00  1.754065079E+02  1.754065079E+02  0.000000000E+00  0.00000E+00  9.000E+00
      21    -1     0     0   501   502  0.000000000E+00  0.000000000E+00 -3.396548685E+03  3.396548685E+03  0.000000000E+00  0.00000E+00  9.000E+00
      25     1     1     2     0     0 -3.958674770E+02  7.374302822E+01 -8.716374838E+02  9.682592612E+02  1.250000000E+02  0.00000E+00  9.000E+00
      25     1     1     2     0     0  3.265971699E+02 -2.549987502E+01 -2.448567733E+03  2.473545007E+03  1.250000000E+02  0.00000E+00  9.000E+00
      21     1     1     2   511   502  6.927030718E+01 -4.824315320E+01  9.906304037E+01  1.301509249E+02  4.046097457E-06  0.00000E+00  9.000E+00
#rwgt            1           1   2.7148503359568702E-002           2      138805           0
</event>
<event>
      5   9999  3.19816E-02  1.26364E+02 -1.00000E+00  1.19423E-01
      21    -1     0     0   502   512  0.000000000E+00  0.000000000E+00  3.915999863E+02  3.915999863E+02  0.000000000E+00  0.00000E+00  9.000E+00
      21    -1     0     0   501   502  0.000000000E+00  0.000000000E+00 -8.010003473E+02  8.010003473E+02  0.000000000E+00  0.00000E+00  9.000E+00
      25     1     1     2     0     0  5.048592545E+00  3.324640693E+02 -1.106235088E+02  3.720489301E+02  1.250000000E+02  0.00000E+00  9.000E+00
      25     1     1     2     0     0 -7.895425442E+01 -4.349618902E+02 -4.364546078E+02  6.336743997E+02  1.250000000E+02  0.00000E+00  9.000E+00
      21     1     1     2   501   512  7.390566188E+01  1.024978209E+02  1.376777556E+02  1.868770038E+02  4.264961200E-06  0.00000E+00  9.000E+00
#rwgt            1           1   2.9474443622849303E-002           2      138898           0
</event>
<event>
      5   9999  3.19816E-02  3.26860E+01 -1.00000E+00  1.50497E-01
      21    -1     0     0   502   501  0.000000000E+00  0.000000000E+00  2.516069047E+03  2.516069047E+03  0.000000000E+00  0.00000E+00  9.000E+00
      21    -1     0     0   501   511  0.000000000E+00  0.000000000E+00 -7.106683609E+02  7.106683609E+02  0.000000000E+00  0.00000E+00  9.000E+00
      25     1     1     2     0     0  4.033830905E+02  2.421019634E+02  5.566740707E+02  7.394878629E+02  1.250000000E+02  0.00000E+00  9.000E+00
      25     1     1     2     0     0 -4.033331179E+02 -2.747879113E+02  1.833554933E+03  1.901508531E+03  1.250000000E+02  0.00000E+00  9.000E+00
      21     1     1     2   502   511 -4.997264883E-02  3.268594787E+01 -5.848283180E+02  5.857410138E+02  1.321449896E-05  0.00000E+00  9.000E+00
#rwgt            1           1   2.2502954774599612E-002           2      138958           0
</event>
<event>
      5   9999  3.19816E-02  5.90476E+01 -1.00000E+00  1.35076E-01
      21    -1     0     0   502   501  0.000000000E+00  0.000000000E+00  1.771641997E+02  1.771641997E+02  0.000000000E+00  0.00000E+00  9.000E+00
      21    -1     0     0   501   512  0.000000000E+00  0.000000000E+00 -6.934522060E+02  6.934522060E+02  0.000000000E+00  0.00000E+00  9.000E+00
      25     1     1     2     0     0 -6.142838007E+01 -3.040783788E+01  1.198148513E+02  1.862221283E+02  1.250000000E+02  0.00000E+00  9.000E+00
      25     1     1     2     0     0  1.185217100E+02  1.534235529E+01 -5.704784148E+02  5.961152618E+02  1.250000000E+02  0.00000E+00  9.000E+00
      21     1     1     2   502   512 -5.709332994E+01  1.506548259E+01 -6.562444279E+01  8.827901552E+01  1.348699152E-06  0.00000E+00  9.000E+00
#rwgt            1           1   2.8672168289229510E-002           2      139071           0
</event>
<event>
      5   9999  3.19816E-02  1.46318E+02 -1.00000E+00  1.16823E-01
      21    -1     0     0   502   501  0.000000000E+00  0.000000000E+00  2.857984098E+02  2.857984098E+02  0.000000000E+00  0.00000E+00  9.000E+00
       2    -1     0     0   501     0  0.000000000E+00  0.000000000E+00 -3.466247195E+03  3.466247195E+03  0.000000000E+00  0.00000E+00  9.000E+00
      25     1     1     2     0     0  2.154898515E+02  3.467185003E+02 -3.471910470E+02  5.502873955E+02  1.250000000E+02  0.00000E+00  9.000E+00
      25     1     1     2     0     0 -2.275268735E+02 -4.925408783E+02 -2.431916317E+02  6.075624781E+02  1.250000000E+02  0.00000E+00  9.000E+00
       2     1     1     2   502     0  1.203702207E+01  1.458223780E+02 -2.590066106E+03  2.594195731E+03  3.051757812E-05  0.00000E+00  9.000E+00
#rwgt            1           1   2.7601142341669369E-002           2      139183           0
</event>
<event>
      5   9999  3.19816E-02  1.61959E+02 -1.00000E+00  1.15088E-01
      21    -1     0     0   502   501  0.000000000E+00  0.000000000E+00  1.170504518E+03  1.170504518E+03  0.000000000E+00  0.00000E+00  9.000E+00
      21    -1     0     0   501   511  0.000000000E+00  0.000000000E+00 -2.085885755E+02  2.085885755E+02  0.000000000E+00  0.00000E+00  9.000E+00
      25     1     1     2     0     0 -3.099762718E+02 -1.156899630E+02  1.968759730E+02  4.047895816E+02  1.250000000E+02  0.00000E+00  9.000E+00
      25     1     1     2     0     0  1.562188178E+02  1.665749229E+02  7.694352650E+02  8.122851414E+02  1.250000000E+02  0.00000E+00  9.000E+00
      21     1     1     2   502   511  1.537574540E+02 -5.088495992E+01 -4.395295246E+00  1.620183706E+02  2.904159478E-06  0.00000E+00  9.000E+00
#rwgt            1           1   2.8344796296533848E-002           2      139249           0
</event>
<event>
      5   9999  3.19816E-02  1.69078E+01 -1.00000E+00  1.72621E-01
      -1    -1     0     0     0   501  0.000000000E+00  0.000000000E+00  5.387382078E+02  5.387382078E+02  0.000000000E+00  0.00000E+00  9.000E+00
      21    -1     0     0   501   502  0.000000000E+00  0.000000000E+00 -1.231905677E+02  1.231905677E+02  0.000000000E+00  0.00000E+00  9.000E+00
      25     1     1     2     0     0 -1.248422390E+02 -2.651952435E+01 -6.626775487E-01  1.786457639E+02  1.250000000E+02  0.00000E+00  9.000E+00
      25     1     1     2     0     0  1.345559606E+02  4.035852716E+01  2.335468850E+02  2.998387312E+02  1.250000000E+02  0.00000E+00  9.000E+00
      -1     1     1     2     0   502 -9.713721568E+00 -1.383900281E+01  1.826634326E+02  1.834442804E+02  0.000000000E+00  0.00000E+00  9.000E+00
#rwgt            1           1   2.5521633119310643E-002           2      139286           0
</event>
<event>
      5   9999  3.19816E-02  5.76974E+01 -1.00000E+00  1.35618E-01
      21    -1     0     0   502   501  0.000000000E+00  0.000000000E+00  2.290312162E+02  2.290312162E+02  0.000000000E+00  0.00000E+00  9.000E+00
      21    -1     0     0   511   502  0.000000000E+00  0.000000000E+00 -9.097321914E+02  9.097321914E+02  0.000000000E+00  0.00000E+00  9.000E+00
      25     1     1     2     0     0  5.608095714E+01 -1.012980519E+02  4.156701995E+01  1.753829702E+02  1.250000000E+02  0.00000E+00  9.000E+00
      25     1     1     2     0     0 -8.638655857E+01  5.220053437E+01  6.550058375E+01  1.735017572E+02  1.250000000E+02  0.00000E+00  9.000E+00
      21     1     1     2   511   501  3.030560143E+01  4.909751754E+01 -7.877685788E+02  7.898786802E+02  1.078959322E-05  0.00000E+00  9.000E+00
#rwgt            1           1   2.3909078640758252E-002           2      139407           0
</event>
<event>
      5   9999  3.19816E-02  7.63029E+01 -1.00000E+00  1.29352E-01
      21    -1     0     0   502   501  0.000000000E+00  0.000000000E+00  2.330987656E+02  2.330987656E+02  0.000000000E+00  0.00000E+00  9.000E+00
      21    -1     0     0   501   512  0.000000000E+00  0.000000000E+00 -4.892071067E+02  4.892071067E+02  0.000000000E+00  0.00000E+00  9.000E+00
      25     1     1     2     0     0 -1.143993310E+02  6.488556062E+01  9.862611299E+01  2.065174401E+02  1.250000000E+02  0.00000E+00  9.000E+00
      25     1     1     2     0     0  1.825622918E+02 -3.059346212E+01 -9.091200156E+01  2.411533586E+02  1.250000000E+02  0.00000E+00  9.000E+00
      21     1     1     2   502   512 -6.816296078E+01 -3.429209850E+01 -2.638224525E+02  2.746350736E+02  3.814697266E-06  0.00000E+00  9.000E+00
#rwgt            1           1   2.7058325957201586E-002           2      139495           0
</event>
<event>
      5   9999  3.19816E-02  4.32252E+01 -1.00000E+00  1.42782E-01
      21    -1     0     0   502   501  0.000000000E+00  0.000000000E+00  1.417333312E+02  1.417333312E+02  0.000000000E+00  0.00000E+00  9.000E+00
      21    -1     0     0   501   511  0.000000000E+00  0.000000000E+00 -3.516072053E+02  3.516072053E+02  0.000000000E+00  0.00000E+00  9.000E+00
      25     1     1     2     0     0 -6.000980862E+01 -1.494940333E+02 -3.728614131E+01  2.072797613E+02  1.250000000E+02  0.00000E+00  9.000E+00
      25     1     1     2     0     0  2.057228434E+01  1.317993649E+02 -1.233023449E+02  2.205056909E+02  1.250000000E+02  0.00000E+00  9.000E+00
      21     1     1     2   502   511  3.943752428E+01  1.769466837E+01 -4.928538793E+01  6.555508426E+01  9.536743164E-07  0.00000E+00  9.000E+00
#rwgt            1           1   2.5660435737720370E-002           2      139565           0
</event>
<event>
      5   9999  3.19816E-02  1.55581E+02 -1.00000E+00  1.15768E-01
      21    -1     0     0   502   512  0.000000000E+00  0.000000000E+00  6.940045323E+02  6.940045323E+02  0.000000000E+00  0.00000E+00  9.000E+00
      21    -1     0     0   501   502  0.000000000E+00  0.000000000E+00 -1.643569370E+02  1.643569370E+02  0.000000000E+00  0.00000E+00  9.000E+00
      25     1     1     2     0     0  2.182691029E+02 -9.618695946E+01  1.397362100E+02  3.033884322E+02  1.250000000E+02  0.00000E+00  9.000E+00
      25     1     1     2     0     0 -1.911233555E+02 -5.700741052E+01  1.955457650E+02  3.060083791E+02  1.250000000E+02  0.00000E+00  9.000E+00
      21     1     1     2   501   512 -2.714574735E+01  1.531943700E+02  1.943656202E+02  2.489646580E+02  2.697398305E-06  0.00000E+00  9.000E+00
#rwgt            1           1   2.6229207643861201E-002           2      139656           0
</event>
<event>
      5   9999  3.19816E-02  1.16871E+02 -1.00000E+00  1.20857E-01
      21    -1     0     0   511   501  0.000000000E+00  0.000000000E+00  1.245876654E+02  1.245876654E+02  0.000000000E+00  0.00000E+00  9.000E+00
      21    -1     0     0   501   502  0.000000000E+00  0.000000000E+00 -9.431214538E+02  9.431214538E+02  0.000000000E+00  0.00000E+00  9.000E+00
      25     1     1     2     0     0 -8.215384126E+01  6.104893319E+01 -3.272869889E+02  3.649904094E+02  1.250000000E+02  0.00000E+00  9.000E+00
      25     1     1     2     0     0  1.856031942E+02 -6.670297441E+00 -5.334023733E+02  5.784774242E+02  1.250000000E+02  0.00000E+00  9.000E+00
      21     1     1     2   511   502 -1.034493529E+02 -5.437863575E+01  4.215557379E+01  1.242412856E+02  1.966049969E-06  0.00000E+00  9.000E+00
#rwgt            1           1   3.6227817970654712E-002           2      139696           0
</event>
<event>
      5   9999  3.19816E-02  1.19931E+01 -1.00000E+00  1.87054E-01
      21    -1     0     0   502   512  0.000000000E+00  0.000000000E+00  1.798298961E+02  1.798298961E+02  0.000000000E+00  0.00000E+00  9.000E+00
      21    -1     0     0   501   502  0.000000000E+00  0.000000000E+00 -6.264259464E+02  6.264259464E+02  0.000000000E+00  0.00000E+00  9.000E+00
      25     1     1     2     0     0  2.871316732E+02  6.159296641E+01 -1.866721194E+02  3.697428450E+02  1.250000000E+02  0.00000E+00  9.000E+00
      25     1     1     2     0     0 -2.761328051E+02 -5.681169697E+01 -2.777510429E+02  4.150271519E+02  1.250000000E+02  0.00000E+00  9.000E+00
      21     1     1     2   501   512 -1.099886812E+01 -4.781269438E+00  1.782711209E+01  2.148584564E+01  3.371747881E-07  0.00000E+00  9.000E+00
#rwgt            1           1   2.7455518111012472E-002           2      139767           0
</event>
<event>
      5   9999  3.19816E-02  4.79496E+01 -1.00000E+00  1.40121E-01
      21    -1     0     0   502   511  0.000000000E+00  0.000000000E+00  3.210137968E+02  3.210137968E+02  0.000000000E+00  0.00000E+00  9.000E+00
      21    -1     0     0   501   502  0.000000000E+00  0.000000000E+00 -2.153105303E+02  2.153105303E+02  0.000000000E+00  0.00000E+00  9.000E+00
      25     1     1     2     0     0 -5.513316533E+01  5.169891376E+01  2.216575847E+02  2.654609735E+02  1.250000000E+02  0.00000E+00  9.000E+00
      25     1     1     2     0     0  9.696714065E+01 -7.513133167E+01 -1.330659125E+02  2.199519958E+02  1.250000000E+02  0.00000E+00  9.000E+00
      21     1     1     2   501   511 -4.183397531E+01  2.343241791E+01  1.711159434E+01  5.091135787E+01  6.743495762E-07  0.00000E+00  9.000E+00
#rwgt            1           1   3.1144627819100493E-002           2      140035           0
</event>
<event>
      5   9999  3.19816E-02  1.04634E+02 -1.00000E+00  1.22950E-01
      21    -1     0     0   502   512  0.000000000E+00  0.000000000E+00  5.747540080E+02  5.747540080E+02  0.000000000E+00  0.00000E+00  9.000E+00
      21    -1     0     0   501   502  0.000000000E+00  0.000000000E+00 -3.082887317E+02  3.082887317E+02  0.000000000E+00  0.00000E+00  9.000E+00
      25     1     1     2     0     0  1.139382462E+02 -2.143923128E+02  1.889328428E+02  3.320641606E+02  1.250000000E+02  0.00000E+00  9.000E+00
      25     1     1     2     0     0 -2.154763528E+02  1.891293239E+02 -1.138615959E+02  3.328504511E+02  1.250000000E+02  0.00000E+00  9.000E+00
      21     1     1     2   501   512  1.015381067E+02  2.526298888E+01  1.913940294E+02  2.181281280E+02  0.000000000E+00  0.00000E+00  9.000E+00
#rwgt            1           1   3.0870447930602705E-002           2      140096           0
</event>
<event>
      5   9999  3.19816E-02  4.79878E+01 -1.00000E+00  1.40101E-01
      21    -1     0     0   511   501  0.000000000E+00  0.000000000E+00  4.569043187E+02  4.569043187E+02  0.000000000E+00  0.00000E+00  9.000E+00
      21    -1     0     0   501   502  0.000000000E+00  0.000000000E+00 -2.735005577E+03  2.735005577E+03  0.000000000E+00  0.00000E+00  9.000E+00
      25     1     1     2     0     0 -1.733009259E+02  4.447235010E+02  3.095504764E+01  4.943636498E+02  1.250000000E+02  0.00000E+00  9.000E+00
      25     1     1     2     0     0  1.964773671E+02 -4.867435123E+02 -2.470697931E+03  2.528931764E+03  1.250000000E+02  0.00000E+00  9.000E+00
      21     1     1     2   511   502 -2.317644117E+01  4.202001130E+01  1.616416245E+02  1.686144820E+02  6.325959759E-06  0.00000E+00  9.000E+00
#rwgt            1           1   3.5119176155837678E-002           2      140206           0
</event>
<event>
      5   9999  3.19816E-02  1.76677E+01 -1.00000E+00  1.70938E-01
      21    -1     0     0   502   501  0.000000000E+00  0.000000000E+00  1.157532958E+02  1.157532958E+02  0.000000000E+00  0.00000E+00  9.000E+00
      21    -1     0     0   512   502  0.000000000E+00  0.000000000E+00 -5.437940645E+02  5.437940645E+02  0.000000000E+00  0.00000E+00  9.000E+00
      25     1     1     2     0     0 -4.769526093E+01 -2.022352538E+02 -1.357493416E+02  2.778971385E+02  1.250000000E+02  0.00000E+00  9.000E+00
      25     1     1     2     0     0  4.643997205E+01  1.846122443E+02 -2.713002889E+02  3.542134928E+02  1.250000000E+02  0.00000E+00  9.000E+00
      21     1     1     2   512   501  1.255288878E+00  1.762300957E+01 -2.099113812E+01  2.743672896E+01  2.384185791E-07  0.00000E+00  9.000E+00
#rwgt            1           1   2.7506417969403368E-002           2      140370           0
</event>
<event>
      5   9999  3.19816E-02  5.32348E+01 -1.00000E+00  1.37540E-01
      21    -1     0     0   502   511  0.000000000E+00  0.000000000E+00  7.969784384E+01  7.969784384E+01  0.000000000E+00  0.00000E+00  9.000E+00
      21    -1     0     0   501   502  0.000000000E+00  0.000000000E+00 -1.027606325E+03  1.027606325E+03  0.000000000E+00  0.00000E+00  9.000E+00
      25     1     1     2     0     0 -2.007973269E+02 -9.731454765E+01 -4.945182040E+02  5.567431560E+02  1.250000000E+02  0.00000E+00  9.000E+00
      25     1     1     2     0     0  1.495028881E+02  1.115563592E+02 -4.425156593E+02  4.962268066E+02  1.250000000E+02  0.00000E+00  9.000E+00
      21     1     1     2   501   511  5.129443874E+01 -1.424181152E+01 -1.087461766E+01  5.433420608E+01  1.052827938E-06  0.00000E+00  9.000E+00
#rwgt            1           1   2.8704270090645353E-002           2      140592           0
</event>
<event>
      5   9999  3.19816E-02  2.12234E+01 -1.00000E+00  1.64269E-01
      21    -1     0     0   512   501  0.000000000E+00  0.000000000E+00  3.265356964E+02  3.265356964E+02  0.000000000E+00  0.00000E+00  9.000E+00
      21    -1     0     0   501   502  0.000000000E+00  0.000000000E+00 -4.881537661E+02  4.881537661E+02  0.000000000E+00  0.00000E+00  9.000E+00
      25     1     1     2     0     0  1.335594404E+02 -1.972795650E+02  5.200645715E+01  2.740201132E+02  1.250000000E+02  0.00000E+00  9.000E+00
      25     1     1     2     0     0 -1.521317264E+02  1.870080588E+02 -3.271549267E+02  4.251722266E+02  1.250000000E+02  0.00000E+00  9.000E+00
      21     1     1     2   512   502  1.857228605E+01  1.027150619E+01  1.135303998E+02  1.154971226E+02  1.348699152E-06  0.00000E+00  9.000E+00
#rwgt            1           1   2.6035968170750812E-002           2      140642           0
</event>
<event>
      5   9999  3.19816E-02  4.30212E+01 -1.00000E+00  1.42906E-01
      21    -1     0     0   511   501  0.000000000E+00  0.000000000E+00  1.004767424E+03  1.004767424E+03  0.000000000E+00  0.00000E+00  9.000E+00
      21    -1     0     0   501   502  0.000000000E+00  0.000000000E+00 -2.725688248E+02  2.725688248E+02  0.000000000E+00  0.00000E+00  9.000E+00
      25     1     1     2     0     0 -1.146082672E+02  3.027068261E+02  1.681194760E+02  3.855588616E+02  1.250000000E+02  0.00000E+00  9.000E+00
      25     1     1     2     0     0  1.420857749E+02 -3.358098289E+02  6.506916189E+01  3.909163650E+02  1.250000000E+02  0.00000E+00  9.000E+00
      21     1     1     2   511   502 -2.747750766E+01  3.310300276E+01  4.990099612E+02  5.008610222E+02  0.000000000E+00  0.00000E+00  9.000E+00
#rwgt            1           1   2.8226928674840661E-002           2      140824           0
</event>
<event>
      5   9999  3.19816E-02  1.11303E+01 -1.00000E+00  1.90530E-01
      21    -1     0     0   512   501  0.000000000E+00  0.000000000E+00  2.509953679E+02  2.509953679E+02  0.000000000E+00  0.00000E+00  9.000E+00
      21    -1     0     0   501   502  0.000000000E+00  0.000000000E+00 -3.432173224E+02  3.432173224E+02  0.000000000E+00  0.00000E+00  9.000E+00
      25     1     1     2     0     0 -1.527999106E+02 -2.047189438E+02 -5.441937993E+01  2.895585045E+02  1.250000000E+02  0.00000E+00  9.000E+00
      25     1     1     2     0     0  1.501619197E+02  2.155321039E+02 -3.877652943E+01  2.934813609E+02  1.250000000E+02  0.00000E+00  9.000E+00
      21     1     1     2   512   502  2.637990972E+00 -1.081316015E+01  9.739547675E-01  1.117282492E+01  1.858169424E-07  0.00000E+00  9.000E+00
#rwgt            1           1   3.0590779601667152E-002           2      140944           0
</event>
<event>
      5   9999  3.19816E-02  1.45883E+01 -1.00000E+00  1.78530E-01
      21    -1     0     0   502   511  0.000000000E+00  0.000000000E+00  1.027621484E+02  1.027621484E+02  0.000000000E+00  0.00000E+00  9.000E+00
      21    -1     0     0   501   502  0.000000000E+00  0.000000000E+00 -1.862684841E+03  1.862684841E+03  0.000000000E+00  0.00000E+00  9.000E+00
      25     1     1     2     0     0 -9.629534217E+01 -6.448862711E+01 -1.638829232E+03  1.647670424E+03  1.250000000E+02  0.00000E+00  9.000E+00
      25     1     1     2     0     0  9.216890771E+01  5.049611992E+01 -1.881570558E+02  2.491446233E+02  1.250000000E+02  0.00000E+00  9.000E+00
      21     1     1     2   501   511  4.126434469E+00  1.399250720E+01  6.706359478E+01  6.863194201E+01  2.132480600E-06  0.00000E+00  9.000E+00
#rwgt            1           1   8.4672785053371225E-002           2      141152           0
</event>
<event>
      5   9999  3.19816E-02  5.94153E+01 -1.00000E+00  1.34931E-01
      21    -1     0     0   502   501  0.000000000E+00  0.000000000E+00  3.908118420E+02  3.908118420E+02  0.000000000E+00  0.00000E+00  9.000E+00
      21    -1     0     0   501   512  0.000000000E+00  0.000000000E+00 -2.308454921E+02  2.308454921E+02  0.000000000E+00  0.00000E+00  9.000E+00
      25     1     1     2     0     0 -8.182090149E+01 -1.226763806E+02 -7.746343441E-01  1.933125820E+02  1.250000000E+02  0.00000E+00  9.000E+00
      25     1     1     2     0     0  5.020511370E+01  7.237107018E+01  2.663758784E+02  3.071469255E+02  1.250000000E+02  0.00000E+00  9.000E+00
      21     1     1     2   502   512  3.161578778E+01  5.030531046E+01 -1.056348942E+02  1.211978266E+02  0.000000000E+00  0.00000E+00  9.000E+00
#rwgt            1           1   3.0486857515114964E-002           2      141328           0
</event>
<event>
      5   9999  3.19816E-02  2.62086E+01 -1.00000E+00  1.57230E-01
      21    -1     0     0   502   511  0.000000000E+00  0.000000000E+00  3.626837183E+02  3.626837183E+02  0.000000000E+00  0.00000E+00  9.000E+00
      21    -1     0     0   501   502  0.000000000E+00  0.000000000E+00 -1.258418268E+02  1.258418268E+02  0.000000000E+00  0.00000E+00  9.000E+00
      25     1     1     2     0     0  6.655888533E+01  1.240703542E+02  1.669245709E+01  1.890163382E+02  1.250000000E+02  0.00000E+00  9.000E+00
      25     1     1     2     0     0 -5.395362183E+01 -1.010921400E+02  1.568252945E+02  2.309757283E+02  1.250000000E+02  0.00000E+00  9.000E+00
      21     1     1     2   501   511 -1.260526349E+01 -2.297821412E+01  6.332413989E+01  6.853347857E+01  6.743495762E-07  0.00000E+00  9.000E+00
#rwgt            1           1   3.2455017255903829E-002           2      141372           0
</event>
<event>
      5   9999  3.19816E-02  2.02868E+02 -1.00000E+00  1.11423E-01
      21    -1     0     0   502   512  0.000000000E+00  0.000000000E+00  2.664800104E+02  2.664800104E+02  0.000000000E+00  0.00000E+00  9.000E+00
      21    -1     0     0   501   502  0.000000000E+00  0.000000000E+00 -6.040929937E+02  6.040929937E+02  0.000000000E+00  0.00000E+00  9.000E+00
      25     1     1     2     0     0  2.410206837E+02  3.832648865E+01 -7.642763036E+01  2.846507903E+02  1.250000000E+02  0.00000E+00  9.000E+00
      25     1     1     2     0     0 -4.677241487E+01  2.018062259E+01 -3.419047867E+02  3.675850915E+02  1.250000000E+02  0.00000E+00  9.000E+00
      21     1     1     2   501   512 -1.942482688E+02 -5.850711124E+01  8.071943380E+01  2.183371224E+02  9.536743164E-07  0.00000E+00  9.000E+00
#rwgt            2          11   3.4788836991084759E-003           2      141468           0
</event>
<event>
      5   9999  3.19816E-02  2.28226E+02 -1.00000E+00  1.09600E-01
      -1    -1     0     0     0   501  0.000000000E+00  0.000000000E+00  5.121179953E+02  5.121179953E+02  0.000000000E+00  0.00000E+00  9.000E+00
      21    -1     0     0   501   502  0.000000000E+00  0.000000000E+00 -4.968157532E+02  4.968157532E+02  0.000000000E+00  0.00000E+00  9.000E+00
      25     1     1     2     0     0  1.815734901E+02 -3.266357219E+02 -2.585348544E+02  4.713014938E+02  1.250000000E+02  0.00000E+00  9.000E+00
      25     1     1     2     0     0  2.875459923E+00  1.922273063E+02  1.771518332E+02  2.897712504E+02  1.250000000E+02  0.00000E+00  9.000E+00
      -1     1     1     2     0   502 -1.844489500E+02  1.344084156E+02  9.668526321E+01  2.478610043E+02  1.348699152E-06  0.00000E+00  9.000E+00
#rwgt            2           5   7.2979412436501801E-005           2      141503           0
</event>
<event>
      5   9999  3.19816E-02  4.19687E+01 -1.00000E+00  1.43558E-01
      21    -1     0     0   502   501  0.000000000E+00  0.000000000E+00  3.190655531E+02  3.190655531E+02  0.000000000E+00  0.00000E+00  9.000E+00
      21    -1     0     0   501   511  0.000000000E+00  0.000000000E+00 -6.653240672E+02  6.653240672E+02  0.000000000E+00  0.00000E+00  9.000E+00
      25     1     1     2     0     0 -3.357721234E+02 -2.104575446E+02 -1.461742240E+02  4.404851878E+02  1.250000000E+02  0.00000E+00  9.000E+00
      25     1     1     2     0     0  3.675325889E+02  1.830231556E+02 -1.077915756E+02  4.425174608E+02  1.250000000E+02  0.00000E+00  9.000E+00
      21     1     1     2   502   511 -3.176046547E+01  2.743438902E+01 -9.229271453E+01  1.013869717E+02  0.000000000E+00  0.00000E+00  9.000E+00
#rwgt            1           1   2.5865660971007957E-002           2      141552           0
</event>
<event>
      5   9999  3.19816E-02  1.14250E+02 -1.00000E+00  1.21280E-01
      21    -1     0     0   502   501  0.000000000E+00  0.000000000E+00  5.607379474E+02  5.607379474E+02  0.000000000E+00  0.00000E+00  9.000E+00
       1    -1     0     0   501     0  0.000000000E+00  0.000000000E+00 -3.258414230E+03  3.258414230E+03  0.000000000E+00  0.00000E+00  9.000E+00
      25     1     1     2     0     0 -3.013201500E+02  1.597256197E+01  3.380863766E+02  4.700812202E+02  1.250000000E+02  0.00000E+00  9.000E+00
      25     1     1     2     0     0  2.080573567E+02  5.002083130E+01  5.692454027E+01  2.542741641E+02  1.250000000E+02  0.00000E+00  9.000E+00
       1     1     1     2   502     0  9.326279335E+01 -6.599339327E+01 -3.092687200E+03  3.094796794E+03  4.315837288E-05  0.00000E+00  9.000E+00
#rwgt            1           1   2.5531356288992394E-002           2      141690           0
</event>
<event>
      5   9999  3.19816E-02  3.45454E+01 -1.00000E+00  1.48903E-01
      21    -1     0     0   511   501  0.000000000E+00  0.000000000E+00  3.244568515E+02  3.244568515E+02  0.000000000E+00  0.00000E+00  9.000E+00
      21    -1     0     0   501   502  0.000000000E+00  0.000000000E+00 -7.625934030E+02  7.625934030E+02  0.000000000E+00  0.00000E+00  9.000E+00
      25     1     1     2     0     0 -2.285124080E+02 -2.887612168E+02 -1.321004238E+02  4.107024263E+02  1.250000000E+02  0.00000E+00  9.000E+00
      25     1     1     2     0     0  2.058556086E+02  2.626833923E+02 -4.237405265E+02  5.536787246E+02  1.250000000E+02  0.00000E+00  9.000E+00
      21     1     1     2   511   502  2.265679941E+01  2.607782446E+01  1.177043988E+02  1.226691037E+02  1.348699152E-06  0.00000E+00  9.000E+00
#rwgt            1           1   2.8732178109579655E-002           2      141772           0
</event>
<event>
      5   9999  3.19816E-02  1.97239E+01 -1.00000E+00  1.66869E-01
      21    -1     0     0   502   512  0.000000000E+00  0.000000000E+00  1.119715024E+03  1.119715024E+03  0.000000000E+00  0.00000E+00  9.000E+00
      21    -1     0     0   501   502  0.000000000E+00  0.000000000E+00 -4.711440872E+01  4.711440872E+01  0.000000000E+00  0.00000E+00  9.000E+00
      25     1     1     2     0     0  9.744292868E+01  8.122677997E+01  8.035396242E+02  8.230393926E+02  1.250000000E+02  0.00000E+00  9.000E+00
      25     1     1     2     0     0 -7.800900915E+01 -8.459668752E+01  1.614219834E+02  2.343588313E+02  1.250000000E+02  0.00000E+00  9.000E+00
      21     1     1     2   501   512 -1.943391954E+01  3.369907549E+00  1.076390078E+02  1.094312090E+02  1.907348633E-06  0.00000E+00  9.000E+00
#rwgt            1           1   2.9498338780475315E-002           2      141903           0
</event>
<event>
      5   9999  3.19816E-02  5.02842E+01 -1.00000E+00  1.38935E-01
       2    -1     0     0   502     0  0.000000000E+00  0.000000000E+00  1.659396559E+03  1.659396559E+03  0.000000000E+00  0.00000E+00  9.000E+00
      21    -1     0     0   501   502  0.000000000E+00  0.000000000E+00 -2.547349263E+02  2.547349263E+02  0.000000000E+00  0.00000E+00  9.000E+00
      25     1     1     2     0     0  2.747336105E+02 -1.792042965E+02  3.924315976E+02  5.265171369E+02  1.250000000E+02  0.00000E+00  9.000E+00
      25     1     1     2     0     0 -2.272839311E+02  1.625602361E+02 -6.189443131E+01  3.123135225E+02  1.250000000E+02  0.00000E+00  9.000E+00
       2     1     1     2   501     0 -4.744967945E+01  1.664406033E+01  1.074124467E+03  1.075300826E+03  1.525878906E-05  0.00000E+00  9.000E+00
#rwgt            2          18   1.5275652796283127E-003           2      142113           0
</event>
<event>
      5   9999  3.19816E-02  6.36085E+01 -1.00000E+00  1.33362E-01
      21    -1     0     0   502   511  0.000000000E+00  0.000000000E+00  2.646996779E+03  2.646996779E+03  0.000000000E+00  0.00000E+00  9.000E+00
      21    -1     0     0   501   502  0.000000000E+00  0.000000000E+00 -7.617533676E+02  7.617533676E+02  0.000000000E+00  0.00000E+00  9.000E+00
      25     1     1     2     0     0  7.431728925E+02 -1.076486886E+03  3.371757135E+02  1.356629067E+03  1.250000000E+02  0.00000E+00  9.000E+00
      25     1     1     2     0     0 -7.688433465E+02  1.018288404E+03  1.453139462E+03  1.937852074E+03  1.250000000E+02  0.00000E+00  9.000E+00
      21     1     1     2   501   511  2.567045394E+01  5.819848278E+01  9.492823552E+01  1.142690050E+02  0.000000000E+00  0.00000E+00  9.000E+00
#rwgt            1           1   4.4986791977369732E-002           2      142132           0
</event>
<event>
      5   9999  3.19816E-02  1.69190E+01 -1.00000E+00  1.72596E-01
      21    -1     0     0   502   501  0.000000000E+00  0.000000000E+00  5.997173373E+02  5.997173373E+02  0.000000000E+00  0.00000E+00  9.000E+00
      21    -1     0     0   512   502  0.000000000E+00  0.000000000E+00 -5.131579451E+02  5.131579451E+02  0.000000000E+00  0.00000E+00  9.000E+00
      25     1     1     2     0     0  3.532162087E+02 -1.641041032E+02 -6.917993095E+01  4.148526360E+02  1.250000000E+02  0.00000E+00  9.000E+00
      25     1     1     2     0     0 -3.535718949E+02  1.471888054E+02  3.313322971E+02  5.216164495E+02  1.250000000E+02  0.00000E+00  9.000E+00
      21     1     1     2   512   501  3.556861583E-01  1.691529780E+01 -1.755929739E+02  1.764061969E+02  3.303624740E-06  0.00000E+00  9.000E+00
#rwgt            1           1   3.1239432371226512E-002           2      142228           0
</event>
<event>
      5   9999  3.19816E-02  1.55333E+01 -1.00000E+00  1.75966E-01
      21    -1     0     0   502   501  0.000000000E+00  0.000000000E+00  5.054287605E+02  5.054287605E+02  0.000000000E+00  0.00000E+00  9.000E+00
      21    -1     0     0   511   502  0.000000000E+00  0.000000000E+00 -8.396668281E+01  8.396668281E+01  0.000000000E+00  0.00000E+00  9.000E+00
      25     1     1     2     0     0 -3.858531878E+01 -2.587969215E+00  2.677930793E+01  1.335576869E+02  1.250000000E+02  0.00000E+00  9.000E+00
      25     1     1     2     0     0  5.137746183E+01 -6.223721950E+00  4.113664175E+02  4.330423856E+02  1.250000000E+02  0.00000E+00  9.000E+00
      21     1     1     2   511   501 -1.279214305E+01  8.811691165E+00 -1.668364774E+01  2.279537073E+01  6.307962682E-07  0.00000E+00  9.000E+00
#rwgt            1           1   3.6362302485170098E-002           2      142369           0
</event>
<event>
      5   9999  3.19816E-02  1.23689E+02 -1.00000E+00  1.19813E-01
      21    -1     0     0   502   512  0.000000000E+00  0.000000000E+00  4.887287665E+02  4.887287665E+02  0.000000000E+00  0.00000E+00  9.000E+00
      21    -1     0     0   501   502  0.000000000E+00  0.000000000E+00 -8.681137042E+02  8.681137042E+02  0.000000000E+00  0.00000E+00  9.000E+00
      25     1     1     2     0     0  6.055787280E+01 -5.073194636E+02 -2.524907616E+02  5.834525506E+02  1.250000000E+02  0.00000E+00  9.000E+00
      25     1     1     2     0     0  5.283773568E+01  4.579188981E+02 -2.974855344E+02  5.626759163E+02  1.250000000E+02  0.00000E+00  9.000E+00
      21     1     1     2   501   512 -1.133956085E+02  4.940056550E+01  1.705913583E+02  2.107140039E+02  2.697398305E-06  0.00000E+00  9.000E+00
#rwgt            1           1   3.1431781076102290E-002           2      142481           0
</event>
<event>
      5   9999  3.19816E-02  2.28408E+01 -1.00000E+00  1.61746E-01
      21    -1     0     0   502   511  0.000000000E+00  0.000000000E+00  5.324767181E+01  5.324767181E+01  0.000000000E+00  0.00000E+00  9.000E+00
      21    -1     0     0   501   502  0.000000000E+00  0.000000000E+00 -7.012800213E+02  7.012800213E+02  0.000000000E+00  0.00000E+00  9.000E+00
      25     1     1     2     0     0 -1.316513065E+01  1.085438787E+02 -1.809523433E+02  2.456091302E+02  1.250000000E+02  0.00000E+00  9.000E+00
      25     1     1     2     0     0 -7.942044046E+00 -9.981527214E+01 -4.564350103E+02  4.837190127E+02  1.250000000E+02  0.00000E+00  9.000E+00
      21     1     1     2   501   511  2.110717469E+01 -8.728606538E+00 -1.064499586E+01  2.519955025E+01  1.192092896E-07  0.00000E+00  9.000E+00
#rwgt            1           1   2.7799949485673221E-002           2      142553           0
</event>
<event>
      5   9999  3.19816E-02  7.56121E+01 -1.00000E+00  1.29547E-01
      21    -1     0     0   502   501  0.000000000E+00  0.000000000E+00  3.004315357E+02  3.004315357E+02  0.000000000E+00  0.00000E+00  9.000E+00
      21    -1     0     0   512   502  0.000000000E+00  0.000000000E+00 -3.580173766E+02  3.580173766E+02  0.000000000E+00  0.00000E+00  9.000E+00
      25     1     1     2     0     0 -6.519401754E+01  2.061744431E+02 -1.821241227E+02  3.091154428E+02  1.250000000E+02  0.00000E+00  9.000E+00
      25     1     1     2     0     0  3.804129843E+01 -1.356059375E+02  1.760934488E+02  2.578177911E+02  1.250000000E+02  0.00000E+00  9.000E+00
      21     1     1     2   512   501  2.715271911E+01 -7.056850558E+01 -5.155516696E+01  9.151567830E+01  1.168007728E-06  0.00000E+00  9.000E+00
#rwgt            1           1   2.7828552456038866E-002           2      142635           0
</event>
<event>
      5   9999  3.19816E-02  6.87550E+01 -1.00000E+00  1.31617E-01
      21    -1     0     0   502   501  0.000000000E+00  0.000000000E+00  1.014072751E+03  1.014072751E+03  0.000000000E+00  0.00000E+00  9.000E+00
       2    -1     0     0   501     0  0.000000000E+00  0.000000000E+00 -1.740918135E+03  1.740918135E+03  0.000000000E+00  0.00000E+00  9.000E+00
      25     1     1     2     0     0  4.204311045E+01 -6.214799805E+02  8.206073828E+02  1.037798856E+03  1.250000000E+02  0.00000E+00  9.000E+00
      25     1     1     2     0     0  1.695613736E+01  6.567834793E+02 -1.322807721E+03  1.482260880E+03  1.250000000E+02  0.00000E+00  9.000E+00
       2     1     1     2   502     0 -5.899924781E+01 -3.530349879E+01 -2.246450461E+02  2.349311495E+02  0.000000000E+00  0.00000E+00  9.000E+00
#rwgt            1           1   5.9883859585584037E-002           2      142695           0
</event>
<event>
      5   9999  3.19816E-02  8.88820E+00 -1.00000E+00  2.01867E-01
      21    -1     0     0   502   511  0.000000000E+00  0.000000000E+00  3.828788546E+01  3.828788546E+01  0.000000000E+00  0.00000E+00  9.000E+00
      21    -1     0     0   501   502  0.000000000E+00  0.000000000E+00 -8.157577334E+02  8.157577334E+02  0.000000000E+00  0.00000E+00  9.000E+00
      25     1     1     2     0     0 -6.179414629E+01 -6.355458856E+01 -2.035008967E+02  2.547455931E+02  1.250000000E+02  0.00000E+00  9.000E+00
      25     1     1     2     0     0  6.965834644E+01  5.941279767E+01 -5.675934350E+02  5.883616858E+02  1.250000000E+02  0.00000E+00  9.000E+00
      21     1     1     2   501   511 -7.864200154E+00  4.141790890E+00 -6.375516201E+00  1.093834003E+01  8.429369702E-08  0.00000E+00  9.000E+00
#rwgt            1           1   3.0889415530923718E-002           2      142824           0
</event>
<event>
      5   9999  3.19816E-02  1.09830E+02 -1.00000E+00  1.22024E-01
      21    -1     0     0   512   501  0.000000000E+00  0.000000000E+00  1.484538320E+02  1.484538320E+02  0.000000000E+00  0.00000E+00  9.000E+00
      21    -1     0     0   501   502  0.000000000E+00  0.000000000E+00 -1.125079350E+03  1.125079350E+03  0.000000000E+00  0.00000E+00  9.000E+00
      25     1     1     2     0     0 -2.048580134E+02 -9.903550574E+01 -3.280317216E+02  4.183355679E+02  1.250000000E+02  0.00000E+00  9.000E+00
      25     1     1     2     0     0  1.881243015E+02 -9.512245708E+00 -6.987845672E+02  7.344427186E+02  1.250000000E+02  0.00000E+00  9.000E+00
      21     1     1     2   512   502  1.673371185E+01  1.085477515E+02  5.019077034E+01  1.207548959E+02  3.814697266E-06  0.00000E+00  9.000E+00
#rwgt            1           1   2.8399760728458397E-002           2      143026           0
</event>
<event>
      5   9999  3.19816E-02  6.04819E+01 -1.00000E+00  1.34518E-01
      21    -1     0     0   511   501  0.000000000E+00  0.000000000E+00  5.068027473E+02  5.068027473E+02  0.000000000E+00  0.00000E+00  9.000E+00
      21    -1     0     0   501   502  0.000000000E+00  0.000000000E+00 -2.468583674E+02  2.468583674E+02  0.000000000E+00  0.00000E+00  9.000E+00
      25     1     1     2     0     0 -2.081163949E+02 -1.427744734E+02 -3.076419788E+01  2.833168191E+02  1.250000000E+02  0.00000E+00  9.000E+00
      25     1     1     2     0     0  1.506352481E+02  1.239601749E+02  7.079983330E+01  2.422699307E+02  1.250000000E+02  0.00000E+00  9.000E+00
      21     1     1     2   511   502  5.748114680E+01  1.881429854E+01  2.199087444E+02  2.280743649E+02  2.697398305E-06  0.00000E+00  9.000E+00
#rwgt            1           1   2.7451352439122625E-002           2      143081           0
</event>
<event>
      5   9999  3.19816E-02  1.95625E+02 -1.00000E+00  1.11999E-01
      21    -1     0     0   502   512  0.000000000E+00  0.000000000E+00  3.677868891E+02  3.677868891E+02  0.000000000E+00  0.00000E+00  9.000E+00
      21    -1     0     0   501   502  0.000000000E+00  0.000000000E+00 -1.534667079E+03  1.534667079E+03  0.000000000E+00  0.00000E+00  9.000E+00
      25     1     1     2     0     0 -3.616755853E+02  2.480236444E+02 -9.287711849E+02  1.034681531E+03  1.250000000E+02  0.00000E+00  9.000E+00
      25     1     1     2     0     0  5.572345845E+02 -2.530932273E+02 -1.108907213E+02  6.344196686E+02  1.250000000E+02  0.00000E+00  9.000E+00
      21     1     1     2   501   512 -1.955589991E+02  5.069582864E+00 -1.272182843E+02  2.333527687E+02  1.348699152E-06  0.00000E+00  9.000E+00
#rwgt            1           1   2.7008972424973472E-002           2      143157           0
</event>
<event>
      5   9999  3.19816E-02  3.35912E+01 -1.00000E+00  1.49706E-01
       2    -1     0     0   502     0  0.000000000E+00  0.000000000E+00  3.757140942E+03  3.757140942E+03  0.000000000E+00  0.00000E+00  9.000E+00
      21    -1     0     0   501   502  0.000000000E+00  0.000000000E+00 -5.088908782E+01  5.088908782E+01  0.000000000E+00  0.00000E+00  9.000E+00
      25     1     1     2     0     0 -7.349884861E+01  7.784841643E+01  1.230599972E+02  2.055023591E+02  1.250000000E+02  0.00000E+00  9.000E+00
      25     1     1     2     0     0  8.757063175E+01 -1.083500621E+02  9.063392799E+02  9.254643385E+02  1.250000000E+02  0.00000E+00  9.000E+00
       2     1     1     2   501     0 -1.407178314E+01  3.050164570E+01  2.676852577E+03  2.677063333E+03  4.315837288E-05  0.00000E+00  9.000E+00
#rwgt            1           1   3.1374003693721626E-002           2      143264           0
</event>
<event>
      5   9999  3.19816E-02  9.81241E+01 -1.00000E+00  1.24199E-01
       2    -1     0     0   502     0  0.000000000E+00  0.000000000E+00  2.615075396E+03  2.615075396E+03  0.000000000E+00  0.00000E+00  9.000E+00
      21    -1     0     0   501   502  0.000000000E+00  0.000000000E+00 -4.833065530E+01  4.833065530E+01  0.000000000E+00  0.00000E+00  9.000E+00
      25     1     1     2     0     0 -2.101489485E+02  1.168565290E+02  9.568990525E+02  9.945344769E+02  1.250000000E+02  0.00000E+00  9.000E+00
      25     1     1     2     0     0  1.957900659E+02 -1.978873783E+01  4.683420963E+02  5.231583539E+02  1.250000000E+02  0.00000E+00  9.000E+00
       2     1     1     2   501     0  1.435888257E+01 -9.706779121E+01  1.141503592E+03  1.145713220E+03  1.525878906E-05  0.00000E+00  9.000E+00
#rwgt            1           1   2.5151961526936578E-002           2      143395           0
</event>
<event>
      5   9999  3.19816E-02  9.80294E+01 -1.00000E+00  1.24218E-01
      21    -1     0     0   502   511  0.000000000E+00  0.000000000E+00  4.710680311E+02  4.710680311E+02  0.000000000E+00  0.00000E+00  9.000E+00
      21    -1     0     0   501   502  0.000000000E+00  0.000000000E+00 -4.939019887E+02  4.939019887E+02  0.000000000E+00  0.00000E+00  9.000E+00
      25     1     1     2     0     0  1.694895546E+02 -2.113496867E+01 -4.329446520E+02  4.819123029E+02  1.250000000E+02  0.00000E+00  9.000E+00
      25     1     1     2     0     0 -8.181175547E+01 -2.270980412E+01  1.952749107E+02  2.469133234E+02  1.250000000E+02  0.00000E+00  9.000E+00
      21     1     1     2   501   511 -8.767779913E+01  4.384477279E+01  2.148357837E+02  2.361443934E+02  0.000000000E+00  0.00000E+00  9.000E+00
#rwgt            1           1   3.0673618485841797E-002           2      143509           0
</event>
<event>
      5   9999  3.19816E-02  2.36061E+01 -1.00000E+00  1.60640E-01
      21    -1     0     0   502   501  0.000000000E+00  0.000000000E+00  2.911668794E+02  2.911668794E+02  0.000000000E+00  0.00000E+00  9.000E+00
      21    -1     0     0   501   512  0.000000000E+00  0.000000000E+00 -8.575225419E+02  8.575225419E+02  0.000000000E+00  0.00000E+00  9.000E+00
      25     1     1     2     0     0 -4.340842041E+01 -4.624076495E+02 -2.333917665E+02  5.346043789E+02  1.250000000E+02  0.00000E+00  9.000E+00
      25     1     1     2     0     0  1.989389795E+01  4.603298941E+02 -2.737294315E+02  5.503200707E+02  1.250000000E+02  0.00000E+00  9.000E+00
      21     1     1     2   502   512  2.351452246E+01  2.077755374E+00 -5.923446454E+01  6.376497176E+01  9.536743164E-07  0.00000E+00  9.000E+00
#rwgt            1           1   2.8009603490814012E-002           2      143597           0
</event>
<event>
      5   9999  3.19816E-02  8.14532E+01 -1.00000E+00  1.27972E-01
       1    -1     0     0   502     0  0.000000000E+00  0.000000000E+00  7.941464026E+02  7.941464026E+02  0.000000000E+00  0.00000E+00  9.000E+00
      21    -1     0     0   501   502  0.000000000E+00  0.000000000E+00 -2.079333266E+02  2.079333266E+02  0.000000000E+00  0.00000E+00  9.000E+00
      25     1     1     2     0     0  2.778776125E+02  8.337406181E+01  1.169338750E+02  3.368467498E+02  1.250000000E+02  0.00000E+00  9.000E+00
      25     1     1     2     0     0 -3.546300052E+02 -5.610345292E+01  3.278104951E+02  5.019907954E+02  1.250000000E+02  0.00000E+00  9.000E+00
       1     1     1     2   501     0  7.675239261E+01 -2.727060889E+01  1.414687059E+02  1.632421839E+02  0.000000000E+00  0.00000E+00  9.000E+00
#rwgt            1           1   2.8277030043565257E-002           2      143756           0
</event>
<event>
      5   9999  3.19816E-02  9.78488E+01 -1.00000E+00  1.24254E-01
       2    -1     0     0   502     0  0.000000000E+00  0.000000000E+00  1.000628762E+03  1.000628762E+03  0.000000000E+00  0.00000E+00  9.000E+00
      21    -1     0     0   501   502  0.000000000E+00  0.000000000E+00 -1.143147626E+02  1.143147626E+02  0.000000000E+00  0.00000E+00  9.000E+00
      25     1     1     2     0     0 -1.661523215E+02 -1.561234662E+02  2.228972521E+02  3.424752774E+02  1.250000000E+02  0.00000E+00  9.000E+00
      25     1     1     2     0     0  1.191041955E+02  2.419188902E+02  4.794841290E+02  5.641281670E+02  1.250000000E+02  0.00000E+00  9.000E+00
       2     1     1     2   501     0  4.704812594E+01 -8.579542407E+01  1.839326187E+02  2.083400806E+02  3.814697266E-06  0.00000E+00  9.000E+00
#rwgt            1           1   2.6264595767502345E-002           2      143841           0
</event>
<event>
      5   9999  3.19816E-02  6.20830E+01 -1.00000E+00  1.33916E-01
      21    -1     0     0   502   511  0.000000000E+00  0.000000000E+00  4.356563530E+02  4.356563530E+02  0.000000000E+00  0.00000E+00  9.000E+00
      21    -1     0     0   501   502  0.000000000E+00  0.000000000E+00 -1.883124110E+03  1.883124110E+03  0.000000000E+00  0.00000E+00  9.000E+00
      25     1     1     2     0     0  3.993074062E+02 -3.039604418E+02 -1.625199366E+03  1.705501784E+03  1.250000000E+02  0.00000E+00  9.000E+00
      25     1     1     2     0     0 -3.430213501E+02  3.301555393E+02  2.189792813E+02  5.387422876E+02  1.250000000E+02  0.00000E+00  9.000E+00
      21     1     1     2   501   511 -5.628605606E+01 -2.619509747E+01 -4.124767273E+01  7.453639208E+01  8.259061849E-07  0.00000E+00  9.000E+00
#rwgt            1           1   3.5129019680612085E-002           2      143933           0
</event>
<event>
      5   9999  3.19816E-02  1.82945E+02 -1.00000E+00  1.13076E-01
       1    -1     0     0   502     0  0.000000000E+00  0.000000000E+00  3.314265614E+03  3.314265614E+03  0.000000000E+00  0.00000E+00  9.000E+00
      21    -1     0     0   501   502  0.000000000E+00  0.000000000E+00 -7.384817224E+01  7.384817224E+01  0.000000000E+00  0.00000E+00  9.000E+00
      25     1     1     2     0     0 -2.579459668E+02 -2.193998856E+02  8.746155382E+02  9.461763954E+02  1.250000000E+02  0.00000E+00  9.000E+00
      25     1     1     2     0     0  8.716390576E+01  1.538073608E+02  3.106509804E+02  3.786598504E+02  1.250000000E+02  0.00000E+00  9.000E+00
       1     1     1     2   501     0  1.707820610E+02  6.559252477E+01  2.055150923E+03  2.063277540E+03  3.051757812E-05  0.00000E+00  9.000E+00
#rwgt            1           1   2.9495806123098357E-002           2      144103           0
</event>
<event>
      5   9999  3.19816E-02  8.22300E+01 -1.00000E+00  1.27774E-01
      21    -1     0     0   511   501  0.000000000E+00  0.000000000E+00  4.799183871E+02  4.799183871E+02  0.000000000E+00  0.00000E+00  9.000E+00
      21    -1     0     0   501   502  0.000000000E+00  0.000000000E+00 -1.340131252E+02  1.340131252E+02  0.000000000E+00  0.00000E+00  9.000E+00
      25     1     1     2     0     0  8.585020398E+01 -1.583711254E+02  9.232776511E+01  2.379098298E+02  1.250000000E+02  0.00000E+00  9.000E+00
      25     1     1     2     0     0 -1.193514400E+02  8.327495865E+01  1.485596208E+02  2.426405694E+02  1.250000000E+02  0.00000E+00  9.000E+00
      21     1     1     2   511   502  3.350123605E+01  7.509616675E+01  1.050178759E+02  1.333811131E+02  0.000000000E+00  0.00000E+00  9.000E+00
#rwgt            2          11   2.4085659365190469E-003           2      144185           0
</event>
<event>
      5   9999  3.19816E-02  1.98824E+02 -1.00000E+00  1.11741E-01
      21    -1     0     0   502   501  0.000000000E+00  0.000000000E+00  1.081917324E+03  1.081917324E+03  0.000000000E+00  0.00000E+00  9.000E+00
      21    -1     0     0   512   502  0.000000000E+00  0.000000000E+00 -1.044205880E+03  1.044205880E+03  0.000000000E+00  0.00000E+00  9.000E+00
      25     1     1     2     0     0  3.703991858E+02  4.782369654E+02 -2.387683605E+01  6.181433937E+02  1.250000000E+02  0.00000E+00  9.000E+00
      25     1     1     2     0     0 -4.576315388E+02 -6.569030604E+02  5.508915391E+02  9.798238331E+02  1.250000000E+02  0.00000E+00  9.000E+00
      21     1     1     2   512   501  8.723235303E+01  1.786660950E+02 -4.893032589E+02  5.281559770E+02  1.078959322E-05  0.00000E+00  9.000E+00
#rwgt            1           1   2.1807934534112065E-002           2      144220           0
</event>
<event>
      5   9999  3.19816E-02  5.51892E+01 -1.00000E+00  1.36672E-01
      21    -1     0     0   502   501  0.000000000E+00  0.000000000E+00  1.913527641E+03  1.913527641E+03  0.000000000E+00  0.00000E+00  9.000E+00
      21    -1     0     0   511   502  0.000000000E+00  0.000000000E+00 -6.716888927E+01  6.716888927E+01  0.000000000E+00  0.00000E+00  9.000E+00
      25     1     1     2     0     0 -1.598855719E+02 -1.688679545E+02  7.284429385E+02  7.748121687E+02  1.250000000E+02  0.00000E+00  9.000E+00
      25     1     1     2     0     0  1.510774010E+02  1.143861654E+02  1.127276534E+03  1.149906935E+03  1.250000000E+02  0.00000E+00  9.000E+00
      21     1     1     2   511   501  8.808170832E+00  5.448178912E+01 -9.360720207E+00  5.597742672E+01  2.970680188E-06  0.00000E+00  9.000E+00
#rwgt            1           1   2.7755540232118976E-002           2      144359           0
</event>
<event>
      5   9999  3.19816E-02  8.73867E+02 -1.00000E+00  9.24192E-02
      21    -1     0     0   502   501  0.000000000E+00  0.000000000E+00  2.508435285E+03  2.508435285E+03  0.000000000E+00  0.00000E+00  9.000E+00
      21    -1     0     0   501   512  0.000000000E+00  0.000000000E+00 -5.410833099E+02  5.410833099E+02  0.000000000E+00  0.00000E+00  9.000E+00
      25     1     1     2     0     0 -4.871193230E+02  9.404312949E+02  1.334336487E+03  1.708149617E+03  1.250000000E+02  0.00000E+00  9.000E+00
      25     1     1     2     0     0 -2.619859683E+01 -2.332195461E+02  6.252340050E+00  2.659733349E+02  1.250000000E+02  0.00000E+00  9.000E+00
      21     1     1     2   502   512  5.133179198E+02 -7.072117488E+02  6.267631487E+02  1.075395643E+03  7.629394531E-06  0.00000E+00  9.000E+00
#rwgt            2          11   8.0430275895770052E-004           2      144413           0
</event>
<event>
      5   9999  3.19816E-02  1.64963E+02 -1.00000E+00  1.14780E-01
       1    -1     0     0   502     0  0.000000000E+00  0.000000000E+00  3.187768806E+02  3.187768806E+02  0.000000000E+00  0.00000E+00  9.000E+00
      21    -1     0     0   501   502  0.000000000E+00  0.000000000E+00 -4.497575821E+02  4.497575821E+02  0.000000000E+00  0.00000E+00  9.000E+00
      25     1     1     2     0     0 -1.351970810E+02  2.135382587E+02  5.508331557E+01  2.872908114E+02  1.250000000E+02  0.00000E+00  9.000E+00
      25     1     1     2     0     0  2.090303322E+02 -6.602089172E+01 -1.905707585E+02  3.162193099E+02  1.250000000E+02  0.00000E+00  9.000E+00
       1     1     1     2   501     0 -7.383325120E+01 -1.475173670E+02  4.506741475E+00  1.650243414E+02  3.317039985E-06  0.00000E+00  9.000E+00
#rwgt            1           1   2.6858820220047770E-002           2      144433           0
</event>
<event>
      5   9999  3.19816E-02  1.14957E+02 -1.00000E+00  1.21165E-01
      21    -1     0     0   502   501  0.000000000E+00  0.000000000E+00  6.742278755E+02  6.742278755E+02  0.000000000E+00  0.00000E+00  9.000E+00
      -4    -1     0     0     0   502  0.000000000E+00  0.000000000E+00 -2.008718112E+02  2.008718112E+02  0.000000000E+00  0.00000E+00  9.000E+00
      25     1     1     2     0     0  1.805785465E+02  7.956382628E+01  5.505066736E+02  5.980147253E+02  1.250000000E+02  0.00000E+00  9.000E+00
      25     1     1     2     0     0 -7.995521851E+01 -2.397554764E+01 -3.264010167E+01  1.538117034E+02  1.250000000E+02  0.00000E+00  9.000E+00
      -4     1     1     2     0   501 -1.006233280E+02 -5.558827864E+01 -4.451050763E+01  1.232732581E+02  2.078484985E-06  0.00000E+00  9.000E+00
#rwgt            2           7   2.7562858410603329E-005           2      144563           0
</event>
<event>
      5   9999  3.19816E-02  6.98358E+01 -1.00000E+00  1.31272E-01
      21    -1     0     0   502   511  0.000000000E+00  0.000000000E+00  1.366074742E+03  1.366074742E+03  0.000000000E+00  0.00000E+00  9.000E+00
      21    -1     0     0   501   502  0.000000000E+00  0.000000000E+00 -2.870844419E+02  2.870844419E+02  0.000000000E+00  0.00000E+00  9.000E+00
      25     1     1     2     0     0 -1.442503654E+02 -1.993328601E+02 -1.957265016E+02  3.383424603E+02  1.250000000E+02  0.00000E+00  9.000E+00
      25     1     1     2     0     0  7.982939111E+01  1.723704071E+02  7.033008334E+02  7.391490724E+02  1.250000000E+02  0.00000E+00  9.000E+00
      21     1     1     2   501   511  6.442097424E+01  2.696245300E+01  5.714159688E+02  5.756676517E+02  7.629394531E-06  0.00000E+00  9.000E+00
#rwgt            1           1   2.6212420619754508E-002           2      144582           0
</event>
<event>
      5   9999  3.19816E-02  2.87986E+02 -1.00000E+00  1.06172E-01
      21    -1     0     0   502   512  0.000000000E+00  0.000000000E+00  8.629329228E+02  8.629329228E+02  0.000000000E+00  0.00000E+00  9.000E+00
      21    -1     0     0   501   502  0.000000000E+00  0.000000000E+00 -2.494836817E+02  2.494836817E+02  0.000000000E+00  0.00000E+00  9.000E+00
      25     1     1     2     0     0  3.929114249E+02 -4.577421781E+01  2.278151160E+02  4.732857424E+02  1.250000000E+02  0.00000E+00  9.000E+00
      25     1     1     2     0     0 -1.063854782E+02  7.473380357E+01  3.217257016E+01  1.832023080E+02  1.250000000E+02  0.00000E+00  9.000E+00
      21     1     1     2   501   512 -2.865259467E+02 -2.895958576E+01  3.534615548E+02  4.559285541E+02  5.394796609E-06  0.00000E+00  9.000E+00
#rwgt            1           1   2.8477874178805328E-002           2      144674           0
</event>
<event>
      5   9999  3.19816E-02  7.14492E+01 -1.00000E+00  1.30772E-01
      21    -1     0     0   502   511  0.000000000E+00  0.000000000E+00  6.054052616E+02  6.054052616E+02  0.000000000E+00  0.00000E+00  9.000E+00
      21    -1     0     0   501   502  0.000000000E+00  0.000000000E+00 -1.985496816E+02  1.985496816E+02  0.000000000E+00  0.00000E+00  9.000E+00
      25     1     1     2     0     0 -1.441254656E+02 -9.793098112E+01 -2.139341559E+01  2.155117285E+02  1.250000000E+02  0.00000E+00  9.000E+00
      25     1     1     2     0     0  1.916594722E+02  1.512742284E+02  1.751514495E+02  3.254539533E+02  1.250000000E+02  0.00000E+00  9.000E+00
      21     1     1     2   501   511 -4.753400663E+01 -5.334324725E+01  2.530975461E+02  2.629892614E+02  0.000000000E+00  0.00000E+00  9.000E+00
#rwgt            1           1   2.9763074117133050E-002           2      144704           0
</event>
<event>
      5   9999  3.19816E-02  2.45066E+01 -1.00000E+00  1.59402E-01
      21    -1     0     0   502   501  0.000000000E+00  0.000000000E+00  4.808122488E+02  4.808122488E+02  0.000000000E+00  0.00000E+00  9.000E+00
      21    -1     0     0   501   512  0.000000000E+00  0.000000000E+00 -8.024494019E+02  8.024494019E+02  0.000000000E+00  0.00000E+00  9.000E+00
      25     1     1     2     0     0  1.278405015E+02 -3.246466408E+02 -3.834178264E+02  5.332662232E+02  1.250000000E+02  0.00000E+00  9.000E+00
      25     1     1     2     0     0 -1.038906887E+02  3.298407455E+02  3.219114875E+02  4.887127974E+02  1.250000000E+02  0.00000E+00  9.000E+00
      21     1     1     2   502   512 -2.394981284E+01 -5.194104677E+00 -2.601308142E+02  2.612826300E+02  0.000000000E+00  0.00000E+00  9.000E+00
#rwgt            1           1   3.2494441990509736E-002           2      144750           0
</event>
<event>
      5   9999  3.19816E-02  5.73755E+01 -1.00000E+00  1.35750E-01
      21    -1     0     0   502   501  0.000000000E+00  0.000000000E+00  4.820965437E+02  4.820965437E+02  0.000000000E+00  0.00000E+00  9.000E+00
      21    -1     0     0   511   502  0.000000000E+00  0.000000000E+00 -3.382192493E+02  3.382192493E+02  0.000000000E+00  0.00000E+00  9.000E+00
      25     1     1     2     0     0 -7.120936425E+01 -4.811539447E+01  4.394247000E+02  4.648708763E+02  1.250000000E+02  0.00000E+00  9.000E+00
      25     1     1     2     0     0  6.112189340E+01 -8.366346399E+00 -1.953765433E+02  2.400059901E+02  1.250000000E+02  0.00000E+00  9.000E+00
      21     1     1     2   511   501  1.008747085E+01  5.648174087E+01 -1.001708622E+02  1.154389265E+02  1.907348633E-06  0.00000E+00  9.000E+00
#rwgt            1           1   2.6610976074825699E-002           2      144916           0
</event>
<event>
      5   9999  3.19816E-02  6.85313E+01 -1.00000E+00  1.31689E-01
      21    -1     0     0   502   512  0.000000000E+00  0.000000000E+00  1.506123848E+02  1.506123848E+02  0.000000000E+00  0.00000E+00  9.000E+00
      21    -1     0     0   501   502  0.000000000E+00  0.000000000E+00 -7.198297686E+02  7.198297686E+02  0.000000000E+00  0.00000E+00  9.000E+00
      25     1     1     2     0     0 -1.175371272E+00 -2.129995713E+02 -4.578087866E+02  5.201769737E+02  1.250000000E+02  0.00000E+00  9.000E+00
      25     1     1     2     0     0 -6.701122731E+01  2.198645649E+02 -7.268140234E+01  2.715483709E+02  1.250000000E+02  0.00000E+00  9.000E+00
      21     1     1     2   501   512  6.818659859E+01 -6.864993660E+00 -3.872719478E+01  7.871680875E+01  1.261592536E-06  0.00000E+00  9.000E+00
#rwgt            1           1   2.9392805483407069E-002           2      144976           0
</event>
<event>
      5   9999  3.19816E-02  4.29334E+02 -1.00000E+00  1.00769E-01
      21    -1     0     0   502   501  0.000000000E+00  0.000000000E+00  1.180749669E+02  1.180749669E+02  0.000000000E+00  0.00000E+00  9.000E+00
       2    -1     0     0   501     0  0.000000000E+00  0.000000000E+00 -2.277368138E+03  2.277368138E+03  0.000000000E+00  0.00000E+00  9.000E+00
      25     1     1     2     0     0 -1.677423744E+02 -1.183829659E+02 -3.333984042E+02  4.110128060E+02  1.250000000E+02  0.00000E+00  9.000E+00
      25     1     1     2     0     0 -1.114603243E+01 -2.719076536E+02 -1.109784429E+03  1.149480093E+03  1.250000000E+02  0.00000E+00  9.000E+00
       2     1     1     2   502     0  1.788884068E+02  3.902906195E+02 -7.161103379E+02  8.349502056E+02  0.000000000E+00  0.00000E+00  9.000E+00
#rwgt            2          13   1.7477777038600393E-003           2      145101           0
</event>
<event>
      5   9999  3.19816E-02  4.16658E+01 -1.00000E+00  1.43750E-01
      21    -1     0     0   511   501  0.000000000E+00  0.000000000E+00  1.102790249E+03  1.102790249E+03  0.000000000E+00  0.00000E+00  9.000E+00
      21    -1     0     0   501   502  0.000000000E+00  0.000000000E+00 -5.247420636E+01  5.247420636E+01  0.000000000E+00  0.00000E+00  9.000E+00
      25     1     1     2     0     0  1.385304712E+02  5.609815977E+00  2.409160865E+02  3.047748713E+02  1.250000000E+02  0.00000E+00  9.000E+00
      25     1     1     2     0     0 -1.798463846E+02 -2.218489710E-01  6.978257798E+02  7.313894928E+02  1.250000000E+02  0.00000E+00  9.000E+00
      21     1     1     2   511   502  4.131591346E+01 -5.387967006E+00  1.115741766E+02  1.191000915E+02  0.000000000E+00  0.00000E+00  9.000E+00
#rwgt            1           1   2.8162665733932026E-002           2      145150           0
</event>
<event>
      5   9999  3.19816E-02  1.35832E+02 -1.00000E+00  1.18127E-01
      21    -1     0     0   502   501  0.000000000E+00  0.000000000E+00  9.287377250E+02  9.287377250E+02  0.000000000E+00  0.00000E+00  9.000E+00
       2    -1     0     0   501     0  0.000000000E+00  0.000000000E+00 -5.753372534E+02  5.753372534E+02  0.000000000E+00  0.00000E+00  9.000E+00
      25     1     1     2     0     0  4.349769225E+00 -6.447982519E+01  7.639483526E+02  7.768002664E+02  1.250000000E+02  0.00000E+00  9.000E+00
      25     1     1     2     0     0 -1.209232619E+02  1.342004861E+02  6.789156180E+01  2.299270969E+02  1.250000000E+02  0.00000E+00  9.000E+00
       2     1     1     2   502     0  1.165734927E+02 -6.972066089E+01 -4.784394429E+02  4.973476151E+02  0.000000000E+00  0.00000E+00  9.000E+00
#rwgt            1           1   2.6787512231559767E-002           2      145286           0
</event>
<event>
      5   9999  3.19816E-02  2.67651E+01 -1.00000E+00  1.56563E-01
      21    -1     0     0   502   501  0.000000000E+00  0.000000000E+00  1.881288701E+02  1.881288701E+02  0.000000000E+00  0.00000E+00  9.000E+00
       2    -1     0     0   501     0  0.000000000E+00  0.000000000E+00 -1.557715806E+03  1.557715806E+03  0.000000000E+00  0.00000E+00  9.000E+00
      25     1     1     2     0     0 -3.004169093E+02  3.542555155E+02 -3.584798230E+02  5.999000527E+02  1.250000000E+02  0.00000E+00  9.000E+00
      25     1     1     2     0     0  3.227993198E+02 -3.689319078E+02 -9.080241180E+02  1.039443578E+03  1.250000000E+02  0.00000E+00  9.000E+00
       2     1     1     2   502     0 -2.238241051E+01  1.467639230E+01 -1.030829954E+02  1.065010457E+02  1.348699152E-06  0.00000E+00  9.000E+00
#rwgt            1           1   2.8446106285137308E-002           2      145339           0
</event>
<event>
      5   9999  3.19816E-02  1.29454E+02 -1.00000E+00  1.18987E-01
      21    -1     0     0   502   501  0.000000000E+00  0.000000000E+00  4.580499102E+02  4.580499102E+02  0.000000000E+00  0.00000E+00  9.000E+00
      21    -1     0     0   501   511  0.000000000E+00  0.000000000E+00 -9.585144787E+02  9.585144787E+02  0.000000000E+00  0.00000E+00  9.000E+00
      25     1     1     2     0     0  3.659103302E+02 -7.604464863E+01  2.131965951E+02  4.480523926E+02  1.250000000E+02  0.00000E+00  9.000E+00
      25     1     1     2     0     0 -4.948241820E+02  6.422986716E+01 -6.343213760E+02  8.166792852E+02  1.250000000E+02  0.00000E+00  9.000E+00
      21     1     1     2   502   511  1.289138518E+02  1.181478147E+01 -7.933978758E+01  1.518327110E+02  3.438521648E-06  0.00000E+00  9.000E+00
#rwgt            2          11   6.7334929438915021E-003           2      145569           0
</event>
<event>
      5   9999  3.19816E-02  6.86566E+02 -1.00000E+00  9.50911E-02
      21    -1     0     0   502   501  0.000000000E+00  0.000000000E+00  1.214282097E+03  1.214282097E+03  0.000000000E+00  0.00000E+00  9.000E+00
       2    -1     0     0   501     0  0.000000000E+00  0.000000000E+00 -2.667412385E+03  2.667412385E+03  0.000000000E+00  0.00000E+00  9.000E+00
      25     1     1     2     0     0  6.848325911E+02  6.934177291E+02  6.445429966E+02  1.175110420E+03  1.250000000E+02  0.00000E+00  9.000E+00
      25     1     1     2     0     0 -7.722783726E+01 -1.013089290E+03 -1.240221455E+03  1.608131930E+03  1.250000000E+02  0.00000E+00  9.000E+00
       2     1     1     2   502     0 -6.076047539E+02  3.196715608E+02 -8.574518304E+02  1.098452132E+03  1.078959322E-05  0.00000E+00  9.000E+00
#rwgt            2          13   3.7874832456717966E-003           2      145589           0
</event>
<event>
      5   9999  3.19816E-02  1.02441E+02 -1.00000E+00  1.23359E-01
      21    -1     0     0   502   501  0.000000000E+00  0.000000000E+00  1.208059130E+03  1.208059130E+03  0.000000000E+00  0.00000E+00  9.000E+00
      21    -1     0     0   511   502  0.000000000E+00  0.000000000E+00 -2.563219760E+02  2.563219760E+02  0.000000000E+00  0.00000E+00  9.000E+00
      25     1     1     2     0     0 -3.962937487E+01  2.038727348E+02 -1.899268037E+01  2.431466662E+02  1.250000000E+02  0.00000E+00  9.000E+00
      25     1     1     2     0     0  1.369283443E+02 -2.359206335E+02  1.049792298E+03  1.091831849E+03  1.250000000E+02  0.00000E+00  9.000E+00
      21     1     1     2   511   501 -9.729896947E+01  3.204789866E+01 -7.906246404E+01  1.294025907E+02  9.536743164E-07  0.00000E+00  9.000E+00
#rwgt            1           1   2.8282925181125858E-002           2      145608           0
</event>
<event>
      5   9999  3.19816E-02  5.13602E+01 -1.00000E+00  1.38414E-01
      21    -1     0     0   512   501  0.000000000E+00  0.000000000E+00  6.897354683E+02  6.897354683E+02  0.000000000E+00  0.00000E+00  9.000E+00
      21    -1     0     0   501   502  0.000000000E+00  0.000000000E+00 -3.208922181E+02  3.208922181E+02  0.000000000E+00  0.00000E+00  9.000E+00
      25     1     1     2     0     0  3.395190882E+02  2.552615869E+02  3.428977812E+02  5.600317646E+02  1.250000000E+02  0.00000E+00  9.000E+00
      25     1     1     2     0     0 -2.971342463E+02 -2.262548550E+02  1.787263917E+00  3.938378017E+02  1.250000000E+02  0.00000E+00  9.000E+00
      21     1     1     2   512   502 -4.238484191E+01 -2.900673191E+01  2.415820513E+01  5.675812008E+01  3.371747881E-07  0.00000E+00  9.000E+00
#rwgt            1           1   2.7285733952245792E-002           2      145707           0
</event>
<event>
      5   9999  3.19816E-02  1.20203E+02 -1.00000E+00  1.20337E-01
      21    -1     0     0   502   501  0.000000000E+00  0.000000000E+00  6.342416791E+01  6.342416791E+01  0.000000000E+00  0.00000E+00  9.000E+00
      21    -1     0     0   501   511  0.000000000E+00  0.000000000E+00 -1.702112576E+03  1.702112576E+03  0.000000000E+00  0.00000E+00  9.000E+00
      25     1     1     2     0     0  1.431734157E+02  8.066922190E+01 -1.959294298E+02  2.846392309E+02  1.250000000E+02  0.00000E+00  9.000E+00
      25     1     1     2     0     0 -2.663739262E+01 -5.120739133E+01 -2.808083998E+02  3.127460711E+02  1.250000000E+02  0.00000E+00  9.000E+00
      21     1     1     2   502   511 -1.165360231E+02 -2.946183057E+01 -1.161950579E+03  1.168151442E+03  0.000000000E+00  0.00000E+00  9.000E+00
#rwgt            1           1   2.8403608304502784E-002           2      145828           0
</event>
<event>
      5   9999  3.19816E-02  5.39640E+01 -1.00000E+00  1.37211E-01
      21    -1     0     0   512   501  0.000000000E+00  0.000000000E+00  2.071246852E+02  2.071246852E+02  0.000000000E+00  0.00000E+00  9.000E+00
      21    -1     0     0   501   502  0.000000000E+00  0.000000000E+00 -6.786977749E+02  6.786977749E+02  0.000000000E+00  0.00000E+00  9.000E+00
      25     1     1     2     0     0 -2.984883281E+02 -1.024940693E+02 -2.376393818E+02  4.143643228E+02  1.250000000E+02  0.00000E+00  9.000E+00
      25     1     1     2     0     0  2.627708049E+02  6.204192338E+01 -2.738216096E+02  4.043525319E+02  1.250000000E+02  0.00000E+00  9.000E+00
      21     1     1     2   512   502  3.571752320E+01  4.045214592E+01  3.988790171E+01  6.710560540E+01  4.768371582E-07  0.00000E+00  9.000E+00
#rwgt            1           1   3.0318382670458020E-002           2      145888           0
</event>
<event>
      5   9999  3.19816E-02  9.92902E+01 -1.00000E+00  1.23967E-01
      21    -1     0     0   502   501  0.000000000E+00  0.000000000E+00  8.783460109E+02  8.783460109E+02  0.000000000E+00  0.00000E+00  9.000E+00
      21    -1     0     0   501   511  0.000000000E+00  0.000000000E+00 -1.266315445E+03  1.266315445E+03  0.000000000E+00  0.00000E+00  9.000E+00
      25     1     1     2     0     0  2.505444995E+02 -6.587213146E+02  2.830833724E+02  7.697061207E+02  1.250000000E+02  0.00000E+00  9.000E+00
      25     1     1     2     0     0 -2.190869856E+02  5.645461586E+02  7.451305388E+01  6.228070870E+02  1.250000000E+02  0.00000E+00  9.000E+00
      21     1     1     2   502   511 -3.145751390E+01  9.417515604E+01 -7.455658599E+02  7.521482478E+02  0.000000000E+00  0.00000E+00  9.000E+00
#rwgt            1           1   2.2942532185575640E-002           2      146000           0
</event>
<event>
      5   9999  3.19816E-02  4.67283E+01 -1.00000E+00  1.40773E-01
      21    -1     0     0   512   501  0.000000000E+00  0.000000000E+00  6.692928924E+02  6.692928924E+02  0.000000000E+00  0.00000E+00  9.000E+00
      21    -1     0     0   501   502  0.000000000E+00  0.000000000E+00 -2.112048517E+02  2.112048517E+02  0.000000000E+00  0.00000E+00  9.000E+00
      25     1     1     2     0     0  1.710192176E+02 -2.132773615E+02  7.813738521E+01  3.105885650E+02  1.250000000E+02  0.00000E+00  9.000E+00
      25     1     1     2     0     0 -1.279551770E+02  1.951383207E+02  9.515006391E+01  2.813005976E+02  1.250000000E+02  0.00000E+00  9.000E+00
      21     1     1     2   512   502 -4.306404062E+01  1.813904081E+01  2.848005915E+02  2.886085815E+02  0.000000000E+00  0.00000E+00  9.000E+00
#rwgt            1           1   3.0671256750159723E-002           2      146080           0
</event>
<event>
      5   9999  3.19816E-02  1.20329E+02 -1.00000E+00  1.20318E-01
      21    -1     0     0   502   501  0.000000000E+00  0.000000000E+00  3.153265500E+02  3.153265500E+02  0.000000000E+00  0.00000E+00  9.000E+00
      21    -1     0     0   501   511  0.000000000E+00  0.000000000E+00 -8.288989283E+02  8.288989283E+02  0.000000000E+00  0.00000E+00  9.000E+00
      25     1     1     2     0     0 -3.469826434E+01  7.559502168E-01  2.644476527E+02  2.945540732E+02  1.250000000E+02  0.00000E+00  9.000E+00
      25     1     1     2     0     0 -7.263023326E+01  5.364775839E+01 -6.714673687E+02  6.889460502E+02  1.250000000E+02  0.00000E+00  9.000E+00
      21     1     1     2   502   511  1.073284976E+02 -5.440370861E+01 -1.065526622E+02  1.607253550E+02  0.000000000E+00  0.00000E+00  9.000E+00
#rwgt            1           1   2.8738143969073204E-002           2      146200           0
</event>
<event>
      5   9999  3.19816E-02  1.39585E+02 -1.00000E+00  1.17646E-01
      21    -1     0     0   502   501  0.000000000E+00  0.000000000E+00  7.194258553E+02  7.194258553E+02  0.000000000E+00  0.00000E+00  9.000E+00
       2    -1     0     0   501     0  0.000000000E+00  0.000000000E+00 -8.047208336E+02  8.047208336E+02  0.000000000E+00  0.00000E+00  9.000E+00
      25     1     1     2     0     0  6.692158162E+01 -2.347166212E+02  2.060115262E+02  3.429812521E+02  1.250000000E+02  0.00000E+00  9.000E+00
      25     1     1     2     0     0  6.847500408E+01  2.007777953E+02  4.033823979E+02  4.725916930E+02  1.250000000E+02  0.00000E+00  9.000E+00
       2     1     1     2   502     0 -1.353965857E+02  3.393882591E+01 -6.946889025E+02  7.085737439E+02  0.000000000E+00  0.00000E+00  9.000E+00
#rwgt            1           1   2.6631565481334007E-002           2      146267           0
</event>
<event>
      5   9999  3.19816E-02  3.30673E+01 -1.00000E+00  1.50160E-01
       2    -1     0     0   502     0  0.000000000E+00  0.000000000E+00  2.053234042E+03  2.053234042E+03  0.000000000E+00  0.00000E+00  9.000E+00
      21    -1     0     0   501   502  0.000000000E+00  0.000000000E+00 -1.770822407E+02  1.770822407E+02  0.000000000E+00  0.00000E+00  9.000E+00
      25     1     1     2     0     0 -1.670268992E+02  4.633761738E+01  4.154261269E+02  4.671713034E+02  1.250000000E+02  0.00000E+00  9.000E+00
      25     1     1     2     0     0  1.344617812E+02 -5.207886640E+01 -9.075349975E+01  2.113134559E+02  1.250000000E+02  0.00000E+00  9.000E+00
       2     1     1     2   501     0  3.256511805E+01  5.741249021E+00  1.551479174E+03  1.551831523E+03  2.157918644E-05  0.00000E+00  9.000E+00
#rwgt            1           1   2.6453052604956600E-002           2      146310           0
</event>
<event>
      5   9999  3.19816E-02  7.76406E+01 -1.00000E+00  1.28982E-01
      21    -1     0     0   502   511  0.000000000E+00  0.000000000E+00  1.206814213E+02  1.206814213E+02  0.000000000E+00  0.00000E+00  9.000E+00
      21    -1     0     0   501   502  0.000000000E+00  0.000000000E+00 -1.081646308E+03  1.081646308E+03  0.000000000E+00  0.00000E+00  9.000E+00
      25     1     1     2     0     0  1.347114121E+02  4.971523773E+01 -6.778328608E+02  7.040604780E+02  1.250000000E+02  0.00000E+00  9.000E+00
      25     1     1     2     0     0 -2.118810095E+02 -5.825420545E+01 -3.236547465E+02  4.106878493E+02  1.250000000E+02  0.00000E+00  9.000E+00
      21     1     1     2   501   511  7.716959745E+01  8.538967726E+00  4.052272073E+01  8.757940189E+01  1.348699152E-06  0.00000E+00  9.000E+00
#rwgt            1           1   3.4757427637663339E-002           2      146430           0
</event>
<event>
      5   9999  3.19816E-02  9.83935E+01 -1.00000E+00  1.24145E-01
      21    -1     0     0   502   501  0.000000000E+00  0.000000000E+00  3.295370615E+02  3.295370615E+02  0.000000000E+00  0.00000E+00  9.000E+00
      21    -1     0     0   512   502  0.000000000E+00  0.000000000E+00 -5.296386459E+02  5.296386459E+02  0.000000000E+00  0.00000E+00  9.000E+00
      25     1     1     2     0     0 -3.370974939E+02  4.316955921E+01  3.469760785E+01  3.637681339E+02  1.250000000E+02  0.00000E+00  9.000E+00
      25     1     1     2     0     0  2.852753055E+02 -1.268101669E+02 -1.986964331E+02  3.905996555E+02  1.250000000E+02  0.00000E+00  9.000E+00
      21     1     1     2   512   501  5.182218841E+01  8.364060768E+01 -3.610275916E+01  1.048079180E+02  1.581489940E-06  0.00000E+00  9.000E+00
#rwgt            1           1   2.9101024195864442E-002           2      146483           0
</event>
<event>
      5   9999  3.19816E-02  4.21866E+02 -1.00000E+00  1.00995E-01
      21    -1     0     0   502   501  0.000000000E+00  0.000000000E+00  1.888298512E+02  1.888298512E+02  0.000000000E+00  0.00000E+00  9.000E+00
      21    -1     0     0   511   502  0.000000000E+00  0.000000000E+00 -1.662013319E+03  1.662013319E+03  0.000000000E+00  0.00000E+00  9.000E+00
      25     1     1     2     0     0  1.872831837E+02  2.974222253E+02 -3.210589899E+02  4.921776569E+02  1.250000000E+02  0.00000E+00  9.000E+00
      25     1     1     2     0     0 -2.249367137E+02  1.227600410E+02 -3.418209340E+02  4.451214483E+02  1.250000000E+02  0.00000E+00  9.000E+00
      21     1     1     2   511   501  3.765352996E+01 -4.201822663E+02 -8.103035439E+02  9.135440648E+02  1.078959322E-05  0.00000E+00  9.000E+00
#rwgt            2          11   1.6959245337004349E-003           2      146627           0
</event>
<event>
      5   9999  3.19816E-02  5.45533E+01 -1.00000E+00  1.36950E-01
      21    -1     0     0   502   501  0.000000000E+00  0.000000000E+00  3.854155862E+02  3.854155862E+02  0.000000000E+00  0.00000E+00  9.000E+00
       2    -1     0     0   501     0  0.000000000E+00  0.000000000E+00 -3.016321157E+03  3.016321157E+03  0.000000000E+00  0.00000E+00  9.000E+00
      25     1     1     2     0     0 -4.399865229E+02  4.088722431E+02 -2.633106291E+02  6.676242498E+02  1.250000000E+02  0.00000E+00  9.000E+00
      25     1     1     2     0     0  4.800675231E+02 -3.718644661E+02 -3.425199804E+02  7.083028624E+02  1.250000000E+02  0.00000E+00  9.000E+00
       2     1     1     2   502     0 -4.008100015E+01 -3.700777695E+01 -2.025074962E+03  2.025809631E+03  2.157918644E-05  0.00000E+00  9.000E+00
#rwgt            1           1   2.9835448136225892E-002           2      146647           0
</event>
<event>
      5   9999  3.19816E-02  6.05980E+01 -1.00000E+00  1.34474E-01
      21    -1     0     0   502   511  0.000000000E+00  0.000000000E+00  1.452788903E+03  1.452788903E+03  0.000000000E+00  0.00000E+00  9.000E+00
      21    -1     0     0   501   502  0.000000000E+00  0.000000000E+00 -3.120214073E+02  3.120214073E+02  0.000000000E+00  0.00000E+00  9.000E+00
      25     1     1     2     0     0  1.801690372E+02 -2.359479224E+02 -1.670342727E+02  3.628467339E+02  1.250000000E+02  0.00000E+00  9.000E+00
      25     1     1     2     0     0 -1.861702840E+02  2.962480257E+02  7.122346342E+02  8.033215057E+02  1.250000000E+02  0.00000E+00  9.000E+00
      21     1     1     2   501   511  6.001246779E+00 -6.030010331E+01  5.955671341E+02  5.986420705E+02  0.000000000E+00  0.00000E+00  9.000E+00
#rwgt            1           1   2.6862261367419198E-002           2      146776           0
</event>
<event>
      5   9999  3.19816E-02  5.11645E+01 -1.00000E+00  1.38507E-01
      -2    -1     0     0     0   501  0.000000000E+00  0.000000000E+00  1.299351720E+03  1.299351720E+03  0.000000000E+00  0.00000E+00  9.000E+00
      21    -1     0     0   501   502  0.000000000E+00  0.000000000E+00 -1.462928855E+02  1.462928855E+02  0.000000000E+00  0.00000E+00  9.000E+00
      25     1     1     2     0     0  5.397918454E+01  3.078885897E+02  8.843561647E+02  9.462663272E+02  1.250000000E+02  0.00000E+00  9.000E+00
      25     1     1     2     0     0 -9.815723457E+01 -3.336976280E+02  2.402719023E+02  4.408452525E+02  1.250000000E+02  0.00000E+00  9.000E+00
      -2     1     1     2     0   502  4.417805003E+01  2.580903833E+01  2.843076752E+01  5.853302577E+01  5.840038640E-07  0.00000E+00  9.000E+00
#rwgt            1           1   2.5640200407497878E-002           2      146877           0
</event>
<event>
      5   9999  3.19816E-02  1.01470E+02 -1.00000E+00  1.23544E-01
      21    -1     0     0   502   501  0.000000000E+00  0.000000000E+00  6.535297800E+02  6.535297800E+02  0.000000000E+00  0.00000E+00  9.000E+00
      21    -1     0     0   501   511  0.000000000E+00  0.000000000E+00 -4.161047552E+02  4.161047552E+02  0.000000000E+00  0.00000E+00  9.000E+00
      25     1     1     2     0     0  5.413683831E+01  1.604988135E+02  3.979673609E+02  4.502151561E+02  1.250000000E+02  0.00000E+00  9.000E+00
      25     1     1     2     0     0 -4.578544281E+01 -2.616246995E+02  1.229957639E+02  3.182715006E+02  1.250000000E+02  0.00000E+00  9.000E+00
      21     1     1     2   502   511 -8.351395494E+00  1.011258860E+02 -2.835380999E+02  3.011478785E+02  0.000000000E+00  0.00000E+00  9.000E+00
#rwgt            1           1   2.9382361636563797E-002           2      146971           0
</event>
<event>
      5   9999  3.19816E-02  8.78770E+01 -1.00000E+00  1.26406E-01
      21    -1     0     0   502   501  0.000000000E+00  0.000000000E+00  6.560855049E+01  6.560855049E+01  0.000000000E+00  0.00000E+00  9.000E+00
      21    -1     0     0   512   502  0.000000000E+00  0.000000000E+00 -6.082784507E+02  6.082784507E+02  0.000000000E+00  0.00000E+00  9.000E+00
      25     1     1     2     0     0 -7.912030626E+01 -5.964142309E+01 -2.910107212E+02  3.318574424E+02  1.250000000E+02  0.00000E+00  9.000E+00
      25     1     1     2     0     0  4.644492885E+01 -2.193488762E+01 -1.053295270E+02  1.713405380E+02  1.250000000E+02  0.00000E+00  9.000E+00
      21     1     1     2   512   501  3.267537741E+01  8.157631071E+01 -1.463296520E+02  1.706890208E+02  2.697398305E-06  0.00000E+00  9.000E+00
#rwgt            1           1   4.6002043742937287E-002           2      147033           0
</event>
<event>
      5   9999  3.19816E-02  1.92754E+01 -1.00000E+00  1.67702E-01
      21    -1     0     0   511   501  0.000000000E+00  0.000000000E+00  7.125681480E+02  7.125681480E+02  0.000000000E+00  0.00000E+00  9.000E+00
      21    -1     0     0   501   502  0.000000000E+00  0.000000000E+00 -3.970688054E+02  3.970688054E+02  0.000000000E+00  0.00000E+00  9.000E+00
      25     1     1     2     0     0 -4.555391431E+02 -7.584529098E+01 -7.513481227E+00  4.784870651E+02  1.250000000E+02  0.00000E+00  9.000E+00
      25     1     1     2     0     0  4.556000062E+02  5.656996072E+01  2.162266613E+02  5.226380154E+02  1.250000000E+02  0.00000E+00  9.000E+00
      21     1     1     2   511   502 -6.086317388E-02  1.927533026E+01  1.067861625E+02  1.085118729E+02  0.000000000E+00  0.00000E+00  9.000E+00
#rwgt            1           1   2.9806897573923130E-002           2      147087           0
</event>
<event>
      5   9999  3.19816E-02  4.22051E+01 -1.00000E+00  1.43409E-01
      21    -1     0     0   502   512  0.000000000E+00  0.000000000E+00  1.909951289E+02  1.909951289E+02  0.000000000E+00  0.00000E+00  9.000E+00
      21    -1     0     0   501   502  0.000000000E+00  0.000000000E+00 -2.664650058E+02  2.664650058E+02  0.000000000E+00  0.00000E+00  9.000E+00
      25     1     1     2     0     0 -3.023933828E+01 -5.090090804E+01 -1.858219765E+02  2.316465561E+02  1.250000000E+02  0.00000E+00  9.000E+00
      25     1     1     2     0     0  1.424432721E+01  8.995771281E+01  8.307733451E+01  1.755623378E+02  1.250000000E+02  0.00000E+00  9.000E+00
      21     1     1     2   501   512  1.599501107E+01 -3.905680477E+01  2.727476508E+01  5.025124067E+01  9.536743164E-07  0.00000E+00  9.000E+00
#rwgt            1           1   2.6523773644866060E-002           2      147295           0
</event>
<event>
      5   9999  3.19816E-02  9.57343E+00 -1.00000E+00  1.97971E-01
      21    -1     0     0   502   501  0.000000000E+00  0.000000000E+00  2.618359073E+02  2.618359073E+02  0.000000000E+00  0.00000E+00  9.000E+00
      21    -1     0     0   511   502  0.000000000E+00  0.000000000E+00 -1.207708168E+02  1.207708168E+02  0.000000000E+00  0.00000E+00  9.000E+00
      25     1     1     2     0     0 -5.836740857E+01  9.055579309E+01  5.045621962E+01  1.725628469E+02  1.250000000E+02  0.00000E+00  9.000E+00
      25     1     1     2     0     0  5.342221734E+01 -9.875309022E+01  1.008990097E+02  1.959890718E+02  1.250000000E+02  0.00000E+00  9.000E+00
      21     1     1     2   511   501  4.945191231E+00  8.197297128E+00 -1.029013880E+01  1.405480534E+01  1.685873940E-07  0.00000E+00  9.000E+00
#rwgt            1           1   2.8346598134861397E-002           2      147393           0
</event>
<event>
      5   9999  3.19816E-02  4.97302E+01 -1.00000E+00  1.39210E-01
      21    -1     0     0   512   501  0.000000000E+00  0.000000000E+00  9.475288548E+02  9.475288548E+02  0.000000000E+00  0.00000E+00  9.000E+00
      21    -1     0     0   501   502  0.000000000E+00  0.000000000E+00 -1.911515282E+02  1.911515282E+02  0.000000000E+00  0.00000E+00  9.000E+00
      25     1     1     2     0     0  4.753131006E+01 -2.025943925E+02 -2.517411937E+01  2.440541940E+02  1.250000000E+02  0.00000E+00  9.000E+00
      25     1     1     2     0     0 -8.334121429E+01  1.680872888E+02  1.733218156E+02  2.843669222E+02  1.250000000E+02  0.00000E+00  9.000E+00
      21     1     1     2   512   502  3.580990423E+01  3.450710364E+01  6.082296303E+02  6.102592668E+02  1.078959322E-05  0.00000E+00  9.000E+00
#rwgt            1           1   2.7110245126896419E-002           2      147605           0
</event>
<event>
      5   9999  3.19816E-02  1.08653E+02 -1.00000E+00  1.22228E-01
      21    -1     0     0   502   501  0.000000000E+00  0.000000000E+00  5.939718869E+02  5.939718869E+02  0.000000000E+00  0.00000E+00  9.000E+00
      21    -1     0     0   511   502  0.000000000E+00  0.000000000E+00 -4.703601076E+02  4.703601076E+02  0.000000000E+00  0.00000E+00  9.000E+00
      25     1     1     2     0     0 -2.970690629E+02 -1.042015229E+02  1.402082840E+02  3.665942558E+02  1.250000000E+02  0.00000E+00  9.000E+00
      25     1     1     2     0     0  2.718740900E+02 -1.490286572E+00  2.626137107E+02  3.981315145E+02  1.250000000E+02  0.00000E+00  9.000E+00
      21     1     1     2   511   501  2.519497285E+01  1.056918095E+02 -2.792102153E+02  2.996062242E+02  5.394796609E-06  0.00000E+00  9.000E+00
#rwgt            1           1   2.7772688038312468E-002           2      147697           0
</event>
<event>
      5   9999  3.19816E-02  2.15259E+02 -1.00000E+00  1.10498E-01
       2    -1     0     0   502     0  0.000000000E+00  0.000000000E+00  2.098835415E+03  2.098835415E+03  0.000000000E+00  0.00000E+00  9.000E+00
      21    -1     0     0   501   502  0.000000000E+00  0.000000000E+00 -2.759652749E+02  2.759652749E+02  0.000000000E+00  0.00000E+00  9.000E+00
      25     1     1     2     0     0 -3.059798563E+02  2.562753976E+02  5.883026018E+01  4.223585578E+02  1.250000000E+02  0.00000E+00  9.000E+00
      25     1     1     2     0     0  2.057518562E+02 -6.577356569E+01  9.104856498E+01  2.656592356E+02  1.250000000E+02  0.00000E+00  9.000E+00
       2     1     1     2   501     0  1.002280000E+02 -1.905018319E+02  1.672991315E+03  1.686782897E+03  3.051757812E-05  0.00000E+00  9.000E+00
#rwgt            1           1   2.6529041649502663E-002           2      147835           0
</event>
<event>
      5   9999  3.19816E-02  9.75138E+01 -1.00000E+00  1.24322E-01
       2    -1     0     0   502     0  0.000000000E+00  0.000000000E+00  5.477480009E+02  5.477480009E+02  0.000000000E+00  0.00000E+00  9.000E+00
      21    -1     0     0   501   502  0.000000000E+00  0.000000000E+00 -9.576854090E+02  9.576854090E+02  0.000000000E+00  0.00000E+00  9.000E+00
      25     1     1     2     0     0  3.008504847E+02 -1.566777808E+02 -1.588815401E+02  3.948762906E+02  1.250000000E+02  0.00000E+00  9.000E+00
      25     1     1     2     0     0 -3.290938412E+02  2.500118626E+02 -6.050844615E+02  7.433443975E+02  1.250000000E+02  0.00000E+00  9.000E+00
       2     1     1     2   501     0  2.824335646E+01 -9.333408182E+01  3.540285935E+02  3.672127218E+02  7.629394531E-06  0.00000E+00  9.000E+00
#rwgt            1           1   2.9318400136077904E-002           2      147896           0
</event>
<event>
      5   9999  3.19816E-02  1.97575E+01 -1.00000E+00  1.66807E-01
      21    -1     0     0   502   501  0.000000000E+00  0.000000000E+00  5.482748161E+01  5.482748161E+01  0.000000000E+00  0.00000E+00  9.000E+00
      21    -1     0     0   511   502  0.000000000E+00  0.000000000E+00 -8.939849684E+02  8.939849684E+02  0.000000000E+00  0.00000E+00  9.000E+00
      25     1     1     2     0     0 -1.220781270E+02  6.633855233E+01 -5.735418922E+02  6.032239839E+02  1.250000000E+02  0.00000E+00  9.000E+00
      25     1     1     2     0     0  1.310146236E+02 -8.395949126E+01 -2.274314605E+02  3.025955998E+02  1.250000000E+02  0.00000E+00  9.000E+00
      21     1     1     2   511   501 -8.936496607E+00  1.762093893E+01 -3.818413404E+01  4.299286630E+01  9.536743164E-07  0.00000E+00  9.000E+00
#rwgt            1           1   3.3654629827023906E-002           2      148010           0
</event>
<event>
      5   9999  3.19816E-02  2.70626E+02 -1.00000E+00  1.07067E-01
       2    -1     0     0   502     0  0.000000000E+00  0.000000000E+00  3.375466006E+03  3.375466006E+03  0.000000000E+00  0.00000E+00  9.000E+00
      21    -1     0     0   501   502  0.000000000E+00  0.000000000E+00 -3.578306536E+02  3.578306536E+02  0.000000000E+00  0.00000E+00  9.000E+00
      25     1     1     2     0     0  6.524940974E+02 -7.034489002E+01  4.327984379E+02  7.960128382E+02  1.250000000E+02  0.00000E+00  9.000E+00
      25     1     1     2     0     0 -4.346051940E+02  2.308531569E+02  2.139077000E+02  5.509594893E+02  1.250000000E+02  0.00000E+00  9.000E+00
       2     1     1     2   501     0 -2.178889034E+02 -1.605082668E+02  2.370929215E+03  2.386324333E+03  6.103515625E-05  0.00000E+00  9.000E+00
#rwgt            2          18   1.6016230137635657E-003           2      148149           0
</event>
<event>
      5   9999  3.19816E-02  5.36454E+01 -1.00000E+00  1.37354E-01
      21    -1     0     0   502   501  0.000000000E+00  0.000000000E+00  9.494433690E+01  9.494433690E+01  0.000000000E+00  0.00000E+00  9.000E+00
       2    -1     0     0   501     0  0.000000000E+00  0.000000000E+00 -8.596216076E+02  8.596216076E+02  0.000000000E+00  0.00000E+00  9.000E+00
      25     1     1     2     0     0 -8.211514749E+00  1.210006873E+02 -3.734829045E+01  1.781249284E+02  1.250000000E+02  0.00000E+00  9.000E+00
      25     1     1     2     0     0 -3.042609079E+01 -1.582157473E+02 -4.510795007E+02  4.950309947E+02  1.250000000E+02  0.00000E+00  9.000E+00
       2     1     1     2   502     0  3.863760554E+01  3.721505998E+01 -2.762494795E+02  2.814100215E+02  3.814697266E-06  0.00000E+00  9.000E+00
#rwgt            1           1   3.1802709512509554E-002           2      148183           0
</event>
<event>
      5   9999  3.19816E-02  1.57289E+02 -1.00000E+00  1.15583E-01
      21    -1     0     0   511   501  0.000000000E+00  0.000000000E+00  6.362063156E+02  6.362063156E+02  0.000000000E+00  0.00000E+00  9.000E+00
      21    -1     0     0   501   502  0.000000000E+00  0.000000000E+00 -6.499795093E+02  6.499795093E+02  0.000000000E+00  0.00000E+00  9.000E+00
      25     1     1     2     0     0  2.280455107E+02  8.663996064E+00 -5.803077836E+02  6.359732254E+02  1.250000000E+02  0.00000E+00  9.000E+00
      25     1     1     2     0     0 -7.377955755E+01 -3.935544824E+01  3.634836659E+02  3.933670675E+02  1.250000000E+02  0.00000E+00  9.000E+00
      21     1     1     2   511   502 -1.542659531E+02  3.069145217E+01  2.030509241E+02  2.568455320E+02  3.814697266E-06  0.00000E+00  9.000E+00
#rwgt            1           1   3.0102190582113438E-002           2      148256           0
</event>
<event>
      5   9999  3.19816E-02  1.45054E+02 -1.00000E+00  1.16974E-01
       1    -1     0     0   502     0  0.000000000E+00  0.000000000E+00  1.156815223E+03  1.156815223E+03  0.000000000E+00  0.00000E+00  9.000E+00
      21    -1     0     0   501   502  0.000000000E+00  0.000000000E+00 -1.749206985E+02  1.749206985E+02  0.000000000E+00  0.00000E+00  9.000E+00
      25     1     1     2     0     0  2.090395129E+02 -1.016906284E+02 -1.965181970E+00  2.639457592E+02  1.250000000E+02  0.00000E+00  9.000E+00
      25     1     1     2     0     0 -1.129036051E+02  2.103111734E+02  6.632597647E+02  7.159025975E+02  1.250000000E+02  0.00000E+00  9.000E+00
       1     1     1     2   501     0 -9.613590787E+01 -1.086205449E+02  3.205999415E+02  3.518875645E+02  0.000000000E+00  0.00000E+00  9.000E+00
#rwgt            1           1   2.8398345536682912E-002           2      148318           0
</event>
<event>
      5   9999  3.19816E-02  7.84281E+01 -1.00000E+00  1.28768E-01
      21    -1     0     0   502   511  0.000000000E+00  0.000000000E+00  3.997950884E+02  3.997950884E+02  0.000000000E+00  0.00000E+00  9.000E+00
      21    -1     0     0   501   502  0.000000000E+00  0.000000000E+00 -1.524752710E+02  1.524752710E+02  0.000000000E+00  0.00000E+00  9.000E+00
      25     1     1     2     0     0  9.674860267E+00 -7.213601610E+01 -6.451966827E+01  1.583824338E+02  1.250000000E+02  0.00000E+00  9.000E+00
      25     1     1     2     0     0  6.862370679E+01  7.664197033E+01  2.193703794E+02  2.726381633E+02  1.250000000E+02  0.00000E+00  9.000E+00
      21     1     1     2   501   511 -7.829856706E+01 -4.505954224E+00  9.246910628E+01  1.212497622E+02  1.348699152E-06  0.00000E+00  9.000E+00
#rwgt            1           1   2.7396681018232220E-002           2      148378           0
</event>
<event>
      5   9999  3.19816E-02  1.97968E+01 -1.00000E+00  1.66736E-01
      21    -1     0     0   502   512  0.000000000E+00  0.000000000E+00  1.050154796E+03  1.050154796E+03  0.000000000E+00  0.00000E+00  9.000E+00
      21    -1     0     0   501   502  0.000000000E+00  0.000000000E+00 -6.267388311E+02  6.267388311E+02  0.000000000E+00  0.00000E+00  9.000E+00
      25     1     1     2     0     0  4.426941651E+02 -4.518888997E+02 -2.818830662E+02  7.037504988E+02  1.250000000E+02  0.00000E+00  9.000E+00
      25     1     1     2     0     0 -4.331098512E+02  4.692109462E+02  6.859725791E+02  9.454768292E+02  1.250000000E+02  0.00000E+00  9.000E+00
      21     1     1     2   501   512 -9.584313953E+00 -1.732204652E+01  1.932645248E+01  2.766629963E+01  4.768371582E-07  0.00000E+00  9.000E+00
#rwgt            1           1   2.5165303117477094E-002           2      148455           0
</event>
<event>
      5   9999  3.19816E-02  2.01274E+02 -1.00000E+00  1.11548E-01
      21    -1     0     0   502   501  0.000000000E+00  0.000000000E+00  5.958274719E+02  5.958274719E+02  0.000000000E+00  0.00000E+00  9.000E+00
      21    -1     0     0   501   511  0.000000000E+00  0.000000000E+00 -1.728950371E+03  1.728950371E+03  0.000000000E+00  0.00000E+00  9.000E+00
      25     1     1     2     0     0 -1.257621709E+01 -2.892109500E+02  3.930789776E+02  5.039218367E+02  1.250000000E+02  0.00000E+00  9.000E+00
      25     1     1     2     0     0 -1.059078879E+02  4.519154239E+02 -2.754710911E+02  5.540337112E+02  1.250000000E+02  0.00000E+00  9.000E+00
      21     1     1     2   502   511  1.184841050E+02 -1.627044739E+02 -1.250730785E+03  1.266822295E+03  3.051757812E-05  0.00000E+00  9.000E+00
#rwgt            2          11   1.8562402572132391E-003           2      148764           0
</event>
<event>
      5   9999  3.19816E-02  1.78105E+02 -1.00000E+00  1.13512E-01
      21    -1     0     0   512   501  0.000000000E+00  0.000000000E+00  3.709358913E+02  3.709358913E+02  0.000000000E+00  0.00000E+00  9.000E+00
      21    -1     0     0   501   502  0.000000000E+00  0.000000000E+00 -4.999499768E+02  4.999499768E+02  0.000000000E+00  0.00000E+00  9.000E+00
      25     1     1     2     0     0 -2.781437300E+01  2.124407039E+02 -2.469860070E+02  3.500453966E+02  1.250000000E+02  0.00000E+00  9.000E+00
      25     1     1     2     0     0  2.058100090E+02 -2.186869350E+02  1.068857964E+02  3.423905793E+02  1.250000000E+02  0.00000E+00  9.000E+00
      21     1     1     2   512   502 -1.779956360E+02  6.246231054E+00  1.108612508E+01  1.784498921E+02  3.216442481E-06  0.00000E+00  9.000E+00
#rwgt            1           1   2.6597907202246602E-002           2      148784           0
</event>
<event>
      5   9999  3.19816E-02  2.67551E+01 -1.00000E+00  1.56575E-01
      21    -1     0     0   502   511  0.000000000E+00  0.000000000E+00  1.341977671E+02  1.341977671E+02  0.000000000E+00  0.00000E+00  9.000E+00
      21    -1     0     0   501   502  0.000000000E+00  0.000000000E+00 -2.777132920E+03  2.777132920E+03  0.000000000E+00  0.00000E+00  9.000E+00
      25     1     1     2     0     0  1.233920047E+02  4.868120200E+02 -6.555104647E+02  8.351829134E+02  1.250000000E+02  0.00000E+00  9.000E+00
      25     1     1     2     0     0 -1.138811122E+02 -5.118195675E+02 -1.973886432E+03  2.046162463E+03  1.250000000E+02  0.00000E+00  9.000E+00
      21     1     1     2   501   511 -9.510892471E+00  2.500754751E+01 -1.353825672E+01  2.998531146E+01  5.057621821E-07  0.00000E+00  9.000E+00
#rwgt            1           1   8.9434853873624237E-002           2      148860           0
</event>
<event>
      5   9999  3.19816E-02  1.60075E+02 -1.00000E+00  1.15286E-01
      21    -1     0     0   512   501  0.000000000E+00  0.000000000E+00  2.150803642E+03  2.150803642E+03  0.000000000E+00  0.00000E+00  9.000E+00
      21    -1     0     0   501   502  0.000000000E+00  0.000000000E+00 -1.194487433E+03  1.194487433E+03  0.000000000E+00  0.00000E+00  9.000E+00
      25     1     1     2     0     0 -4.151165375E+02 -1.031916357E+03 -5.629365910E+02  1.252874979E+03  1.250000000E+02  0.00000E+00  9.000E+00
      25     1     1     2     0     0  4.814358918E+02  1.177606745E+03  1.335222467E+03  1.848508101E+03  1.250000000E+02  0.00000E+00  9.000E+00
      21     1     1     2   512   502 -6.631935427E+01 -1.456903884E+02  1.840303339E+02  2.439079946E+02  3.814697266E-06  0.00000E+00  9.000E+00
#rwgt            1           1   3.3550891068113382E-002           2      149090           0
</event>
<event>
      5   9999  3.19816E-02  8.65399E+00 -1.00000E+00  2.03306E-01
      21    -1     0     0   502   501  0.000000000E+00  0.000000000E+00  2.452522991E+02  2.452522991E+02  0.000000000E+00  0.00000E+00  9.000E+00
       1    -1     0     0   501     0  0.000000000E+00  0.000000000E+00 -2.446489630E+03  2.446489630E+03  0.000000000E+00  0.00000E+00  9.000E+00
      25     1     1     2     0     0 -1.912759340E+02  1.797929412E+02  8.455147352E+01  3.027968565E+02  1.250000000E+02  0.00000E+00  9.000E+00
      25     1     1     2     0     0  1.996913114E+02 -1.818110804E+02 -3.777499417E+02  4.808865846E+02  1.250000000E+02  0.00000E+00  9.000E+00
       1     1     1     2   502     0 -8.415377408E+00  2.018139141E+00 -1.908038863E+03  1.908058488E+03  3.051757812E-05  0.00000E+00  9.000E+00
#rwgt            1           1   2.7548519984661620E-002           2      149231           0
</event>
<event>
      5   9999  3.19816E-02  1.57641E+02 -1.00000E+00  1.15545E-01
      21    -1     0     0   502   511  0.000000000E+00  0.000000000E+00  1.760604606E+03  1.760604606E+03  0.000000000E+00  0.00000E+00  9.000E+00
      21    -1     0     0   501   502  0.000000000E+00  0.000000000E+00 -4.080753818E+02  4.080753818E+02  0.000000000E+00  0.00000E+00  9.000E+00
      25     1     1     2     0     0  2.032965177E+00  1.860488642E+02 -3.258891499E+02  3.955338808E+02  1.250000000E+02  0.00000E+00  9.000E+00
      25     1     1     2     0     0 -1.596408338E+02 -1.828203330E+02  3.954860586E+02  4.805649722E+02  1.250000000E+02  0.00000E+00  9.000E+00
      21     1     1     2   501   511  1.576078687E+02 -3.228531243E+00  1.282932316E+03  1.292581135E+03  2.157918644E-05  0.00000E+00  9.000E+00
#rwgt            1           1   2.6498258559685114E-002           2      149507           0
</event>
<event>
      5   9999  3.19816E-02  4.37214E+01 -1.00000E+00  1.42484E-01
      21    -1     0     0   502   501  0.000000000E+00  0.000000000E+00  8.978688279E+02  8.978688279E+02  0.000000000E+00  0.00000E+00  9.000E+00
      21    -1     0     0   512   502  0.000000000E+00  0.000000000E+00 -8.061578820E+02  8.061578820E+02  0.000000000E+00  0.00000E+00  9.000E+00
      25     1     1     2     0     0 -1.472873757E+02  4.530138329E+02  4.182307289E+02  6.461091599E+02  1.250000000E+02  0.00000E+00  9.000E+00
      25     1     1     2     0     0  1.706259738E+02 -4.160426111E+02  2.155461502E+02  5.140912566E+02  1.250000000E+02  0.00000E+00  9.000E+00
      21     1     1     2   512   501 -2.333859810E+01 -3.697122181E+01 -5.420659333E+02  5.438262934E+02  0.000000000E+00  0.00000E+00  9.000E+00
#rwgt            1           1   2.6301212900588861E-002           2      149578           0
</event>
<event>
      5   9999  3.19816E-02  1.77848E+01 -1.00000E+00  1.70688E-01
      21    -1     0     0   511   501  0.000000000E+00  0.000000000E+00  1.416200205E+03  1.416200205E+03  0.000000000E+00  0.00000E+00  9.000E+00
      21    -1     0     0   501   502  0.000000000E+00  0.000000000E+00 -9.714509995E+01  9.714509995E+01  0.000000000E+00  0.00000E+00  9.000E+00
      25     1     1     2     0     0 -1.578635190E+02  2.826383849E+02  5.824828835E+02  6.780240828E+02  1.250000000E+02  0.00000E+00  9.000E+00
      25     1     1     2     0     0  1.646039782E+02 -2.990963660E+02  6.308528721E+02  7.281163726E+02  1.250000000E+02  0.00000E+00  9.000E+00
      21     1     1     2   511   502 -6.740459216E+00  1.645798105E+01  1.057193497E+02  1.072048499E+02  1.348699152E-06  0.00000E+00  9.000E+00
#rwgt            1           1   2.8820475650892702E-002           2      149653           0
</event>
<event>
      5   9999  3.19816E-02  5.55580E+01 -1.00000E+00  1.36513E-01
      21    -1     0     0   502   512  0.000000000E+00  0.000000000E+00  4.861484881E+02  4.861484881E+02  0.000000000E+00  0.00000E+00  9.000E+00
      21    -1     0     0   501   502  0.000000000E+00  0.000000000E+00 -1.110584070E+03  1.110584070E+03  0.000000000E+00  0.00000E+00  9.000E+00
      25     1     1     2     0     0  1.378636638E+02 -5.858699338E+02  3.025228675E+01  6.154593163E+02  1.250000000E+02  0.00000E+00  9.000E+00
      25     1     1     2     0     0 -1.115790009E+02  6.348169658E+02 -6.525366753E+02  9.256735743E+02  1.250000000E+02  0.00000E+00  9.000E+00
      21     1     1     2   501   512 -2.628466287E+01 -4.894703200E+01 -2.151193808E+00  5.559966797E+01  7.580576743E-07  0.00000E+00  9.000E+00
#rwgt            1           1   2.8890943409633860E-002           2      149935           0
</event>
<event>
      5   9999  3.19816E-02  2.54463E+02 -1.00000E+00  1.07968E-01
      21    -1     0     0   502   511  0.000000000E+00  0.000000000E+00  1.454975517E+03  1.454975517E+03  0.000000000E+00  0.00000E+00  9.000E+00
      21    -1     0     0   501   502  0.000000000E+00  0.000000000E+00 -5.380650273E+02  5.380650273E+02  0.000000000E+00  0.00000E+00  9.000E+00
      25     1     1     2     0     0  1.277968466E+02  9.834857349E+01  8.657381824E+02  8.894560565E+02  1.250000000E+02  0.00000E+00  9.000E+00
      25     1     1     2     0     0  1.230195797E+02 -5.542640936E+01 -4.803118251E+02  5.143251435E+02  1.250000000E+02  0.00000E+00  9.000E+00
      21     1     1     2   501   511 -2.508164264E+02 -4.292216413E+01  5.314841321E+02  5.892593441E+02  0.000000000E+00  0.00000E+00  9.000E+00
#rwgt            1           1   2.5747776499655047E-002           2      150092           0
</event>
<event>
      5   9999  3.19816E-02  2.94072E+01 -1.00000E+00  1.53644E-01
      21    -1     0     0   502   512  0.000000000E+00  0.000000000E+00  5.413066912E+02  5.413066912E+02  0.000000000E+00  0.00000E+00  9.000E+00
      21    -1     0     0   501   502  0.000000000E+00  0.000000000E+00 -1.129480625E+02  1.129480625E+02  0.000000000E+00  0.00000E+00  9.000E+00
      25     1     1     2     0     0 -1.905647130E+02 -6.620900507E+00  2.849347091E+02  3.649267524E+02  1.250000000E+02  0.00000E+00  9.000E+00
      25     1     1     2     0     0  1.678702452E+02  2.532239201E+01  9.185847347E+01  2.299665669E+02  1.250000000E+02  0.00000E+00  9.000E+00
      21     1     1     2   501   512  2.269446781E+01 -1.870149151E+01  5.156544618E+01  5.936143439E+01  9.536743164E-07  0.00000E+00  9.000E+00
#rwgt            1           1   2.7855251020635349E-002           2      150169           0
</event>
<event>
      5   9999  3.19816E-02  2.52587E+02 -1.00000E+00  1.08078E-01
      21    -1     0     0   502   501  0.000000000E+00  0.000000000E+00  4.902032266E+02  4.902032266E+02  0.000000000E+00  0.00000E+00  9.000E+00
       1    -1     0     0   501     0  0.000000000E+00  0.000000000E+00 -6.227612117E+02  6.227612117E+02  0.000000000E+00  0.00000E+00  9.000E+00
      25     1     1     2     0     0  9.003004322E+01 -2.889083396E+02  3.456334541E+02  4.760891954E+02  1.250000000E+02  0.00000E+00  9.000E+00
      25     1     1     2     0     0  2.828805679E+01  6.574665132E+01 -2.833899091E+02  3.178957013E+02  1.250000000E+02  0.00000E+00  9.000E+00
       1     1     1     2   502     0 -1.183181000E+02  2.231616883E+02 -1.948015300E+02  3.189795417E+02  6.607249480E-06  0.00000E+00  9.000E+00
#rwgt            1           1   2.8148621896445816E-002           2      150235           0
</event>
<event>
      5   9999  3.19816E-02  4.23979E+01 -1.00000E+00  1.43289E-01
       2    -1     0     0   502     0  0.000000000E+00  0.000000000E+00  2.830634453E+03  2.830634453E+03  0.000000000E+00  0.00000E+00  9.000E+00
      21    -1     0     0   501   502  0.000000000E+00  0.000000000E+00 -5.172838639E+02  5.172838639E+02  0.000000000E+00  0.00000E+00  9.000E+00
      25     1     1     2     0     0  5.445023953E+02 -4.262324216E+02 -3.375126699E+01  7.035062784E+02  1.250000000E+02  0.00000E+00  9.000E+00
      25     1     1     2     0     0 -5.038963791E+02  4.140366453E+02  5.944697445E+02  8.912671775E+02  1.250000000E+02  0.00000E+00  9.000E+00
       2     1     1     2   501     0 -4.060601618E+01  1.219577633E+01  1.752632112E+03  1.753144861E+03  3.051757812E-05  0.00000E+00  9.000E+00
#rwgt            1           1   3.2518864624584351E-002           2      150272           0
</event>
<event>
      5   9999  3.19816E-02  6.90975E+01 -1.00000E+00  1.31507E-01
      21    -1     0     0   502   501  0.000000000E+00  0.000000000E+00  1.154705330E+02  1.154705330E+02  0.000000000E+00  0.00000E+00  9.000E+00
      21    -1     0     0   501   511  0.000000000E+00  0.000000000E+00 -1.527712241E+03  1.527712241E+03  0.000000000E+00  0.00000E+00  9.000E+00
      25     1     1     2     0     0 -5.073488182E+01  2.440794514E+02 -8.857336399E+02  9.285999611E+02  1.250000000E+02  0.00000E+00  9.000E+00
      25     1     1     2     0     0  2.005228149E+00 -2.930680391E+02 -1.898182151E+02  3.708757895E+02  1.250000000E+02  0.00000E+00  9.000E+00
      21     1     1     2   502   511  4.872965367E+01  4.898858775E+01 -3.366898527E+02  3.437070232E+02  3.814697266E-06  0.00000E+00  9.000E+00
#rwgt            1           1   2.7885263912893310E-002           2      150436           0
</event>
<event>
      5   9999  3.19816E-02  6.71190E+00 -1.00000E+00  2.18166E-01
      21    -1     0     0   512   501  0.000000000E+00  0.000000000E+00  1.784470105E+02  1.784470105E+02  0.000000000E+00  0.00000E+00  9.000E+00
      21    -1     0     0   501   502  0.000000000E+00  0.000000000E+00 -6.623621754E+02  6.623621754E+02  0.000000000E+00  0.00000E+00  9.000E+00
      25     1     1     2     0     0 -1.747122938E+02  7.321946274E+01 -1.318522338E+02  2.624794980E+02  1.250000000E+02  0.00000E+00  9.000E+00
      25     1     1     2     0     0  1.765120682E+02 -7.968556185E+01 -4.365018038E+02  4.936244764E+02  1.250000000E+02  0.00000E+00  9.000E+00
      21     1     1     2   512   502 -1.799774487E+00  6.466099110E+00  8.443887273E+01  8.470521149E+01  1.651812370E-06  0.00000E+00  9.000E+00
#rwgt            1           1   2.4473895332678172E-002           2      150473           0
</event>
<event>
      5   9999  3.19816E-02  5.09779E+01 -1.00000E+00  1.38597E-01
      -1    -1     0     0     0   501  0.000000000E+00  0.000000000E+00  1.742238856E+03  1.742238856E+03  0.000000000E+00  0.00000E+00  9.000E+00
      21    -1     0     0   501   502  0.000000000E+00  0.000000000E+00 -2.889752408E+02  2.889752408E+02  0.000000000E+00  0.00000E+00  9.000E+00
      25     1     1     2     0     0 -5.954137250E+01  7.133333548E+01  1.656886218E+02  2.274012735E+02  1.250000000E+02  0.00000E+00  9.000E+00
      25     1     1     2     0     0  4.143902792E+01 -2.367778860E+01 -2.403255020E+02  2.750621341E+02  1.250000000E+02  0.00000E+00  9.000E+00
      -1     1     1     2     0   502  1.810234457E+01 -4.765554688E+01  1.527900496E+03  1.528750689E+03  2.157918644E-05  0.00000E+00  9.000E+00
#rwgt            1           1   2.6696081252112897E-002           2      150743           0
</event>
<event>
      5   9999  3.19816E-02  1.91124E+01 -1.00000E+00  1.68012E-01
      21    -1     0     0   511   501  0.000000000E+00  0.000000000E+00  3.463198862E+02  3.463198862E+02  0.000000000E+00  0.00000E+00  9.000E+00
      21    -1     0     0   501   502  0.000000000E+00  0.000000000E+00 -3.528735215E+02  3.528735215E+02  0.000000000E+00  0.00000E+00  9.000E+00
      25     1     1     2     0     0  2.455627669E+02  1.419723057E+02 -1.700415497E+01  3.104373518E+02  1.250000000E+02  0.00000E+00  9.000E+00
      25     1     1     2     0     0 -2.439814387E+02 -1.229254263E+02 -6.797843097E+01  3.080319300E+02  1.250000000E+02  0.00000E+00  9.000E+00
      21     1     1     2   511   502 -1.581328221E+00 -1.904687944E+01  7.842895061E+01  8.072412594E+01  1.651812370E-06  0.00000E+00  9.000E+00
#rwgt            1           1   2.6800945888520250E-002           2      150847           0
</event>
<event>
      5   9999  3.19816E-02  2.38083E+01 -1.00000E+00  1.60356E-01
      21    -1     0     0   512   501  0.000000000E+00  0.000000000E+00  2.635895955E+03  2.635895955E+03  0.000000000E+00  0.00000E+00  9.000E+00
      21    -1     0     0   501   502  0.000000000E+00  0.000000000E+00 -1.772599409E+03  1.772599409E+03  0.000000000E+00  0.00000E+00  9.000E+00
      25     1     1     2     0     0 -9.900088278E+02  1.514517831E+03 -6.447109243E+01  1.814845244E+03  1.250000000E+02  0.00000E+00  9.000E+00
      25     1     1     2     0     0  1.011785341E+03 -1.504893950E+03  1.591412878E+02  1.824655125E+03  1.250000000E+02  0.00000E+00  9.000E+00
      21     1     1     2   512   502 -2.177651272E+01 -9.623880500E+00  7.686263500E+02  7.689949944E+02  1.078959322E-05  0.00000E+00  9.000E+00
#rwgt            1           1   2.2076022316476065E-002           2      151010           0
</event>
<event>
      5   9999  3.19816E-02  3.75384E+01 -1.00000E+00  1.46572E-01
      21    -1     0     0   502   511  0.000000000E+00  0.000000000E+00  8.168939927E+02  8.168939927E+02  0.000000000E+00  0.00000E+00  9.000E+00
      21    -1     0     0   501   502  0.000000000E+00  0.000000000E+00 -7.865813910E+01  7.865813910E+01  0.000000000E+00  0.00000E+00  9.000E+00
      25     1     1     2     0     0 -4.569528981E+01 -1.496119336E+02  5.153760246E+02  5.529097910E+02  1.250000000E+02  0.00000E+00  9.000E+00
      25     1     1     2     0     0  7.909040973E+01  1.324684414E+02  1.173403840E+02  2.306446327E+02  1.250000000E+02  0.00000E+00  9.000E+00
      21     1     1     2   501   511 -3.339511991E+01  1.714349225E+01  1.055194450E+02  1.119977082E+02  0.000000000E+00  0.00000E+00  9.000E+00
#rwgt            1           1   2.8346184727414570E-002           2      151356           0
</event>
<event>
      5   9999  3.19816E-02  2.05044E+02 -1.00000E+00  1.11256E-01
      21    -1     0     0   502   501  0.000000000E+00  0.000000000E+00  1.582005717E+03  1.582005717E+03  0.000000000E+00  0.00000E+00  9.000E+00
      21    -1     0     0   501   512  0.000000000E+00  0.000000000E+00 -4.315115450E+02  4.315115450E+02  0.000000000E+00  0.00000E+00  9.000E+00
      25     1     1     2     0     0 -5.721579826E+02 -3.246251248E+02  1.959813108E+02  6.976961393E+02  1.250000000E+02  0.00000E+00  9.000E+00
      25     1     1     2     0     0  6.641175709E+02  1.413585773E+02  8.134504550E+02  1.066940035E+03  1.250000000E+02  0.00000E+00  9.000E+00
      21     1     1     2   502   512 -9.195958836E+01  1.832665475E+02  1.410624058E+02  2.488810874E+02  5.394796609E-06  0.00000E+00  9.000E+00
#rwgt            1           1   2.3533069180689373E-002           2      151458           0
</event>
<event>
      5   9999  3.19816E-02  4.97286E+01 -1.00000E+00  1.39211E-01
      21    -1     0     0   502   501  0.000000000E+00  0.000000000E+00  3.693320197E+02  3.693320197E+02  0.000000000E+00  0.00000E+00  9.000E+00
      21    -1     0     0   501   511  0.000000000E+00  0.000000000E+00 -7.290879979E+02  7.290879979E+02  0.000000000E+00  0.00000E+00  9.000E+00
      25     1     1     2     0     0  7.913151072E+01  3.154785675E+02  2.090349729E+02  4.063362431E+02  1.250000000E+02  0.00000E+00  9.000E+00
      25     1     1     2     0     0 -1.242309872E+02 -2.945269510E+02 -5.143124076E+02  6.183216927E+02  1.250000000E+02  0.00000E+00  9.000E+00
      21     1     1     2   502   511  4.509947644E+01 -2.095161654E+01 -5.447854355E+01  7.376208184E+01  1.784161275E-06  0.00000E+00  9.000E+00
#rwgt            1           1   2.9080431190380063E-002           2      151513           0
</event>
<event>
      5   9999  3.19816E-02  1.54639E+02 -1.00000E+00  1.15872E-01
      21    -1     0     0   502   501  0.000000000E+00  0.000000000E+00  2.642350354E+02  2.642350354E+02  0.000000000E+00  0.00000E+00  9.000E+00
      21    -1     0     0   501   512  0.000000000E+00  0.000000000E+00 -1.451868813E+03  1.451868813E+03  0.000000000E+00  0.00000E+00  9.000E+00
      25     1     1     2     0     0  3.659061644E+01  1.638739421E+02 -1.031968342E+03  1.052984901E+03  1.250000000E+02  0.00000E+00  9.000E+00
      25     1     1     2     0     0 -1.365696390E+02 -4.590190489E+01  1.993384437E+02  2.758968400E+02  1.250000000E+02  0.00000E+00  9.000E+00
      21     1     1     2   502   512  9.997902258E+01 -1.179720372E+02 -3.550038788E+02  3.872221074E+02  3.814697266E-06  0.00000E+00  9.000E+00
#rwgt            1           1   3.4287078317346925E-002           2      151621           0
</event>
<event>
      5   9999  3.19816E-02  1.93009E+02 -1.00000E+00  1.12214E-01
      21    -1     0     0   502   501  0.000000000E+00  0.000000000E+00  1.156023454E+03  1.156023454E+03  0.000000000E+00  0.00000E+00  9.000E+00
       2    -1     0     0   501     0  0.000000000E+00  0.000000000E+00 -4.172070401E+02  4.172070401E+02  0.000000000E+00  0.00000E+00  9.000E+00
      25     1     1     2     0     0 -2.595752295E+02  6.092203877E+02  4.166912962E+02  7.923291090E+02  1.250000000E+02  0.00000E+00  9.000E+00
      25     1     1     2     0     0  1.069180198E+02 -4.911179767E+02  2.466036097E+02  5.736433302E+02  1.250000000E+02  0.00000E+00  9.000E+00
       2     1     1     2   502     0  1.526572096E+02 -1.181024110E+02  7.552150787E+01  2.072580548E+02  2.336015456E-06  0.00000E+00  9.000E+00
#rwgt            1           1   2.9767318054374190E-002           2      151695           0
</event>
<event>
      5   9999  3.19816E-02  1.22765E+02 -1.00000E+00  1.19950E-01
      21    -1     0     0   511   501  0.000000000E+00  0.000000000E+00  2.530713789E+02  2.530713789E+02  0.000000000E+00  0.00000E+00  9.000E+00
      21    -1     0     0   501   502  0.000000000E+00  0.000000000E+00 -1.967499626E+03  1.967499626E+03  0.000000000E+00  0.00000E+00  9.000E+00
      25     1     1     2     0     0  9.982077030E+00  3.491766829E+02 -7.312547587E+02  8.199893414E+02  1.250000000E+02  0.00000E+00  9.000E+00
      25     1     1     2     0     0  9.882142785E+01 -4.060374031E+02 -1.128782051E+03  1.210126426E+03  1.250000000E+02  0.00000E+00  9.000E+00
      21     1     1     2   511   502 -1.088035049E+02  5.686072019E+01  1.456085626E+02  1.904552380E+02  5.394796609E-06  0.00000E+00  9.000E+00
#rwgt            1           1   2.9099946795639906E-002           2      151799           0
</event>
<event>
      5   9999  3.19816E-02  3.32286E+01 -1.00000E+00  1.50019E-01
      21    -1     0     0   502   501  0.000000000E+00  0.000000000E+00  3.901273265E+02  3.901273265E+02  0.000000000E+00  0.00000E+00  9.000E+00
      21    -1     0     0   512   502  0.000000000E+00  0.000000000E+00 -1.546896658E+02  1.546896658E+02  0.000000000E+00  0.00000E+00  9.000E+00
      25     1     1     2     0     0 -2.342622008E+01  5.365892866E+01  6.612168350E+01  1.530527538E+02  1.250000000E+02  0.00000E+00  9.000E+00
      25     1     1     2     0     0 -9.480102696E+00 -5.827590451E+01  2.603933541E+02  2.948146066E+02  1.250000000E+02  0.00000E+00  9.000E+00
      21     1     1     2   512   501  3.290632278E+01  4.616975845E+00 -9.107737689E+01  9.694963190E+01  1.348699152E-06  0.00000E+00  9.000E+00
#rwgt            1           1   5.3731463091949871E-002           2      151946           0
</event>
<event>
      5   9999  3.19816E-02  3.68800E+01 -1.00000E+00  1.47062E-01
      21    -1     0     0   502   511  0.000000000E+00  0.000000000E+00  7.521043047E+02  7.521043047E+02  0.000000000E+00  0.00000E+00  9.000E+00
      21    -1     0     0   501   502  0.000000000E+00  0.000000000E+00 -1.680940204E+02  1.680940204E+02  0.000000000E+00  0.00000E+00  9.000E+00
      25     1     1     2     0     0  1.972123320E+02 -1.233755144E+02  4.260820783E+01  2.674970669E+02  1.250000000E+02  0.00000E+00  9.000E+00
      25     1     1     2     0     0 -2.107404606E+02  8.906631133E+01  2.575781323E+02  3.664912602E+02  1.250000000E+02  0.00000E+00  9.000E+00
      21     1     1     2   501   511  1.352812865E+01  3.430920306E+01  2.838239442E+02  2.862099981E+02  3.814697266E-06  0.00000E+00  9.000E+00
#rwgt            1           1   2.7052246853791369E-002           2      152012           0
</event>
<event>
      5   9999  3.19816E-02  1.06898E+02 -1.00000E+00  1.22539E-01
      21    -1     0     0   512   501  0.000000000E+00  0.000000000E+00  2.544208893E+02  2.544208893E+02  0.000000000E+00  0.00000E+00  9.000E+00
      21    -1     0     0   501   502  0.000000000E+00  0.000000000E+00 -7.432867964E+02  7.432867964E+02  0.000000000E+00  0.00000E+00  9.000E+00
      25     1     1     2     0     0  3.008382436E+02  1.947850456E+01 -4.078862010E+02  5.223784202E+02  1.250000000E+02  0.00000E+00  9.000E+00
      25     1     1     2     0     0 -3.145902473E+02 -1.254887276E+02 -7.124775652E+01  3.679887054E+02  1.250000000E+02  0.00000E+00  9.000E+00
      21     1     1     2   512   502  1.375200373E+01  1.060102230E+02 -9.731949662E+00  1.073405601E+02  1.278377210E-06  0.00000E+00  9.000E+00
#rwgt            1           1   3.2797573188902057E-002           2      152167           0
</event>
<event>
      5   9999  3.19816E-02  1.05514E+03 -1.00000E+00  9.04351E-02
      21    -1     0     0   502   501  0.000000000E+00  0.000000000E+00  5.775088011E+02  5.775088011E+02  0.000000000E+00  0.00000E+00  9.000E+00
       1    -1     0     0   501     0  0.000000000E+00  0.000000000E+00 -3.210777972E+03  3.210777972E+03  0.000000000E+00  0.00000E+00  9.000E+00
      25     1     1     2     0     0 -6.110626402E+02 -6.169343939E+02 -1.106687304E+03  1.412227809E+03  1.250000000E+02  0.00000E+00  9.000E+00
      25     1     1     2     0     0  1.471275168E+02 -3.307368980E+02  1.364505303E+02  4.065429241E+02  1.250000000E+02  0.00000E+00  9.000E+00
       1     1     1     2   502     0  4.639351234E+02  9.476712920E+02 -1.663032397E+03  1.969516040E+03  2.157918644E-05  0.00000E+00  9.000E+00
#rwgt            2          12   2.0949253534785408E-004           2      152291           0
</event>
<event>
      5   9999  3.19816E-02  8.41953E+01 -1.00000E+00  1.27284E-01
      21    -1     0     0   502   501  0.000000000E+00  0.000000000E+00  6.331794782E+02  6.331794782E+02  0.000000000E+00  0.00000E+00  9.000E+00
      21    -1     0     0   501   511  0.000000000E+00  0.000000000E+00 -8.923373672E+02  8.923373672E+02  0.000000000E+00  0.00000E+00  9.000E+00
      25     1     1     2     0     0  1.661661861E+01 -4.665719767E+02  2.421437544E+02  5.405775793E+02  1.250000000E+02  0.00000E+00  9.000E+00
      25     1     1     2     0     0 -3.789995103E+01  5.480327858E+02 -9.664106735E+01  5.716124881E+02  1.250000000E+02  0.00000E+00  9.000E+00
      21     1     1     2   502   511  2.128333243E+01 -8.146080913E+01 -4.046605760E+02  4.133267780E+02  0.000000000E+00  0.00000E+00  9.000E+00
#rwgt            1           1   2.4466235705589371E-002           2      152325           0
</event>
<event>
      5   9999  3.19816E-02  1.01900E+02 -1.00000E+00  1.23461E-01
      21    -1     0     0   502   501  0.000000000E+00  0.000000000E+00  6.465548289E+02  6.465548289E+02  0.000000000E+00  0.00000E+00  9.000E+00
      21    -1     0     0   512   502  0.000000000E+00  0.000000000E+00 -5.803100121E+02  5.803100121E+02  0.000000000E+00  0.00000E+00  9.000E+00
      25     1     1     2     0     0  5.379350503E+02 -1.447555260E+02 -2.116980237E+01  5.713155355E+02  1.250000000E+02  0.00000E+00  9.000E+00
      25     1     1     2     0     0 -5.287908551E+02  4.326662408E+01  9.526894836E+01  5.533470355E+02  1.250000000E+02  0.00000E+00  9.000E+00
      21     1     1     2   512   501 -9.144195188E+00  1.014889019E+02 -7.854329220E+00  1.022022700E+02  5.196212463E-07  0.00000E+00  9.000E+00
#rwgt            1           1   3.0269743321096193E-002           2      152415           0
</event>
<event>
      5   9999  3.19816E-02  6.63799E+01 -1.00000E+00  1.32399E-01
      21    -1     0     0   511   501  0.000000000E+00  0.000000000E+00  3.105982194E+03  3.105982194E+03  0.000000000E+00  0.00000E+00  9.000E+00
      21    -1     0     0   501   502  0.000000000E+00  0.000000000E+00 -1.141425720E+02  1.141425720E+02  0.000000000E+00  0.00000E+00  9.000E+00
      25     1     1     2     0     0 -8.576360538E+01  2.018861449E+02  1.637645585E+03  1.656991694E+03  1.250000000E+02  0.00000E+00  9.000E+00
      25     1     1     2     0     0  1.938644838E+01 -2.012823439E+02  3.269445035E+01  2.399673799E+02  1.250000000E+02  0.00000E+00  9.000E+00
      21     1     1     2   511   502  6.637715699E+01 -6.038009963E-01  1.321499587E+03  1.323165692E+03  2.157918644E-05  0.00000E+00  9.000E+00
#rwgt            1           1   2.9191334325120440E-002           2      152509           0
</event>
<event>
      5   9999  3.19816E-02  9.61477E+00 -1.00000E+00  1.97750E-01
      21    -1     0     0   502   501  0.000000000E+00  0.000000000E+00  1.926284449E+02  1.926284449E+02  0.000000000E+00  0.00000E+00  9.000E+00
      21    -1     0     0   501   512  0.000000000E+00  0.000000000E+00 -2.843333060E+02  2.843333060E+02  0.000000000E+00  0.00000E+00  9.000E+00
      25     1     1     2     0     0 -8.149332400E+01 -6.010811195E+01  1.204953601E+02  2.009932307E+02  1.250000000E+02  0.00000E+00  9.000E+00
      25     1     1     2     0     0  8.440834293E+01  6.927034160E+01 -2.059265536E+02  2.644879847E+02  1.250000000E+02  0.00000E+00  9.000E+00
      21     1     1     2   502   512 -2.915018925E+00 -9.162229646E+00 -6.273667676E+00  1.148053542E+01  8.429369702E-08  0.00000E+00  9.000E+00
#rwgt            1           1   3.0622871086106018E-002           2      152601           0
</event>
<event>
      5   9999  3.19816E-02  1.12276E+02 -1.00000E+00  1.21608E-01
      21    -1     0     0   511   501  0.000000000E+00  0.000000000E+00  3.771239253E+02  3.771239253E+02  0.000000000E+00  0.00000E+00  9.000E+00
      21    -1     0     0   501   502  0.000000000E+00  0.000000000E+00 -1.588898365E+02  1.588898365E+02  0.000000000E+00  0.00000E+00  9.000E+00
      25     1     1     2     0     0  4.784490292E+01 -1.493155885E+02  2.247603604E+01  2.017782246E+02  1.250000000E+02  0.00000E+00  9.000E+00
      25     1     1     2     0     0 -5.733554913E+01  3.744170504E+01  5.175098221E+01  1.516324854E+02  1.250000000E+02  0.00000E+00  9.000E+00
      21     1     1     2   511   502  9.490646209E+00  1.118738835E+02  1.440070705E+02  1.826030518E+02  1.907348633E-06  0.00000E+00  9.000E+00
#rwgt            1           1   2.5451465880099746E-002           2      152753           0
</event>
<event>
      5   9999  3.19816E-02  7.66928E+01 -1.00000E+00  1.29243E-01
      21    -1     0     0   502   501  0.000000000E+00  0.000000000E+00  4.631283495E+02  4.631283495E+02  0.000000000E+00  0.00000E+00  9.000E+00
      21    -1     0     0   512   502  0.000000000E+00  0.000000000E+00 -4.734281601E+02  4.734281601E+02  0.000000000E+00  0.00000E+00  9.000E+00
      25     1     1     2     0     0  2.552683979E+02 -6.367964372E+01  8.506298359E+01  3.034431794E+02  1.250000000E+02  0.00000E+00  9.000E+00
      25     1     1     2     0     0 -2.478302410E+02 -1.265155544E+01  1.906639688E+02  3.369831438E+02  1.250000000E+02  0.00000E+00  9.000E+00
      21     1     1     2   512   501 -7.438156866E+00  7.633119916E+01 -2.860267630E+02  2.961301864E+02  3.814697266E-06  0.00000E+00  9.000E+00
#rwgt            1           1   2.6845394504474440E-002           2      152835           0
</event>
<event>
      5   9999  3.19816E-02  3.14707E+01 -1.00000E+00  1.51610E-01
      21    -1     0     0   502   501  0.000000000E+00  0.000000000E+00  1.364247458E+03  1.364247458E+03  0.000000000E+00  0.00000E+00  9.000E+00
      21    -1     0     0   511   502  0.000000000E+00  0.000000000E+00 -5.472949973E+02  5.472949973E+02  0.000000000E+00  0.00000E+00  9.000E+00
      25     1     1     2     0     0  4.501899123E+02 -2.408807984E+02 -2.964993071E+02  6.035158285E+02  1.250000000E+02  0.00000E+00  9.000E+00
      25     1     1     2     0     0 -4.285145331E+02  2.636971047E+02  1.148999531E+03  1.260549797E+03  1.250000000E+02  0.00000E+00  9.000E+00
      21     1     1     2   511   501 -2.167537921E+01 -2.281630633E+01 -3.554776323E+01  4.747682981E+01  4.768371582E-07  0.00000E+00  9.000E+00
#rwgt            1           1   2.3041254706645281E-002           2      152933           0
</event>
<event>
      5   9999  3.19816E-02  1.50719E+02 -1.00000E+00  1.16311E-01
      21    -1     0     0   502   512  0.000000000E+00  0.000000000E+00  1.540451300E+03  1.540451300E+03  0.000000000E+00  0.00000E+00  9.000E+00
      21    -1     0     0   501   502  0.000000000E+00  0.000000000E+00 -9.357161858E+01  9.357161858E+01  0.000000000E+00  0.00000E+00  9.000E+00
      25     1     1     2     0     0  1.623564684E+01  2.229338943E+02  4.103435791E+02  4.837044246E+02  1.250000000E+02  0.00000E+00  9.000E+00
      25     1     1     2     0     0 -1.666725021E+02 -2.137111641E+02  4.175667288E+02  5.132632440E+02  1.250000000E+02  0.00000E+00  9.000E+00
      21     1     1     2   501   512  1.504368552E+02 -9.222730167E+00  6.189693731E+02  6.370552496E+02  7.629394531E-06  0.00000E+00  9.000E+00
#rwgt            2          11   1.8635345745118802E-003           2      153158           0
</event>
<event>
      5   9999  3.19816E-02  4.93623E+02 -1.00000E+00  9.90106E-02
       1    -1     0     0   502     0  0.000000000E+00  0.000000000E+00  2.126876285E+03  2.126876285E+03  0.000000000E+00  0.00000E+00  9.000E+00
      21    -1     0     0   501   502  0.000000000E+00  0.000000000E+00 -2.483905426E+02  2.483905426E+02  0.000000000E+00  0.00000E+00  9.000E+00
      25     1     1     2     0     0  5.523916562E+01 -1.304177762E+02  2.129104079E+02  2.846331034E+02  1.250000000E+02  0.00000E+00  9.000E+00
      25     1     1     2     0     0 -1.498234610E+02 -3.540582400E+02  5.729317324E+01  4.083035813E+02  1.250000000E+02  0.00000E+00  9.000E+00
       1     1     1     2   501     0  9.458429543E+01  4.844760162E+02  1.608282162E+03  1.682330143E+03  2.157918644E-05  0.00000E+00  9.000E+00
#rwgt            2          17   1.2316360846332836E-003           2      153373           0
</event>
<event>
      5   9999  3.19816E-02  2.73140E+01 -1.00000E+00  1.55924E-01
      21    -1     0     0   502   501  0.000000000E+00  0.000000000E+00  3.358346989E+02  3.358346989E+02  0.000000000E+00  0.00000E+00  9.000E+00
      21    -1     0     0   501   511  0.000000000E+00  0.000000000E+00 -5.886693921E+02  5.886693921E+02  0.000000000E+00  0.00000E+00  9.000E+00
      25     1     1     2     0     0  1.515661340E+02  1.105748685E+02 -5.730244979E+01  2.326105442E+02  1.250000000E+02  0.00000E+00  9.000E+00
      25     1     1     2     0     0 -1.679343517E+02 -8.870852365E+01  1.955290231E+02  2.998795550E+02  1.250000000E+02  0.00000E+00  9.000E+00
      21     1     1     2   502   511  1.636821766E+01 -2.186634483E+01 -3.910612665E+02  3.920139918E+02  0.000000000E+00  0.00000E+00  9.000E+00
#rwgt            1           1   2.9258735103410781E-002           2      153422           0
</event>
<event>
      5   9999  3.19816E-02  4.88443E+01 -1.00000E+00  1.39657E-01
      21    -1     0     0   502   501  0.000000000E+00  0.000000000E+00  2.036432173E+02  2.036432173E+02  0.000000000E+00  0.00000E+00  9.000E+00
       1    -1     0     0   501     0  0.000000000E+00  0.000000000E+00 -2.235636231E+03  2.235636231E+03  0.000000000E+00  0.00000E+00  9.000E+00
      25     1     1     2     0     0 -4.662261219E+01  1.985149935E+02  7.290690109E+01  2.500445697E+02  1.250000000E+02  0.00000E+00  9.000E+00
      25     1     1     2     0     0  6.225644893E+01 -2.447897289E+02 -4.330837659E+02  5.167053561E+02  1.250000000E+02  0.00000E+00  9.000E+00
       1     1     1     2   502     0 -1.563383675E+01  4.627473538E+01 -1.671816149E+03  1.672529523E+03  2.157918644E-05  0.00000E+00  9.000E+00
#rwgt            1           1   2.7808346885190887E-002           2      153607           0
</event>
<event>
      5   9999  3.19816E-02  9.22761E+01 -1.00000E+00  1.25419E-01
      21    -1     0     0   502   501  0.000000000E+00  0.000000000E+00  4.587579825E+02  4.587579825E+02  0.000000000E+00  0.00000E+00  9.000E+00
      21    -1     0     0   511   502  0.000000000E+00  0.000000000E+00 -2.890306178E+02  2.890306178E+02  0.000000000E+00  0.00000E+00  9.000E+00
      25     1     1     2     0     0  2.265702687E+02  1.863584709E+01  1.851216372E+02  3.187105301E+02  1.250000000E+02  0.00000E+00  9.000E+00
      25     1     1     2     0     0 -2.371509415E+02  7.303160946E+01  8.708616234E+01  2.911755222E+02  1.250000000E+02  0.00000E+00  9.000E+00
      21     1     1     2   511   501  1.058067284E+01 -9.166745655E+01 -1.024804348E+02  1.379025480E+02  2.697398305E-06  0.00000E+00  9.000E+00
#rwgt            1           1   2.8962107265115486E-002           2      153670           0
</event>
<event>
      5   9999  3.19816E-02  6.50016E+01 -1.00000E+00  1.32871E-01
      21    -1     0     0   512   501  0.000000000E+00  0.000000000E+00  2.959392916E+03  2.959392916E+03  0.000000000E+00  0.00000E+00  9.000E+00
      21    -1     0     0   501   502  0.000000000E+00  0.000000000E+00 -1.349617660E+01  1.349617660E+01  0.000000000E+00  0.00000E+00  9.000E+00
      25     1     1     2     0     0  2.594567563E+01 -9.656986298E+00  4.848178227E+02  5.014376897E+02  1.250000000E+02  0.00000E+00  9.000E+00
      25     1     1     2     0     0 -8.223048642E+01  4.217208644E+01  1.963622735E+03  1.969766378E+03  1.250000000E+02  0.00000E+00  9.000E+00
      21     1     1     2   512   502  5.628481079E+01 -3.251510014E+01  4.974561815E+02  5.016850248E+02  9.344061824E-06  0.00000E+00  9.000E+00
#rwgt            1           1   4.7626917835593731E-002           2      153726           0
</event>
<event>
      5   9999  3.19816E-02  7.63873E+01 -1.00000E+00  1.29328E-01
      21    -1     0     0   511   501  0.000000000E+00  0.000000000E+00  5.211598526E+02  5.211598526E+02  0.000000000E+00  0.00000E+00  9.000E+00
      21    -1     0     0   501   502  0.000000000E+00  0.000000000E+00 -9.320375469E+02  9.320375469E+02  0.000000000E+00  0.00000E+00  9.000E+00
      25     1     1     2     0     0 -6.727767361E+02  3.648560353E+01 -1.229284436E+02  6.962012196E+02  1.250000000E+02  0.00000E+00  9.000E+00
      25     1     1     2     0     0  5.966316332E+02 -4.256369519E+01 -2.981583403E+02  6.799296800E+02  1.250000000E+02  0.00000E+00  9.000E+00
      21     1     1     2   511   502  7.614510293E+01  6.078091657E+00  1.020908958E+01  7.706649991E+01  1.576990671E-06  0.00000E+00  9.000E+00
#rwgt            1           1   3.2067369993738784E-002           2      153829           0
</event>
<event>
      5   9999  3.19816E-02  2.69593E+01 -1.00000E+00  1.56335E-01
      21    -1     0     0   502   501  0.000000000E+00  0.000000000E+00  1.309699802E+02  1.309699802E+02  0.000000000E+00  0.00000E+00  9.000E+00
      21    -1     0     0   512   502  0.000000000E+00  0.000000000E+00 -5.220629412E+02  5.220629412E+02  0.000000000E+00  0.00000E+00  9.000E+00
      25     1     1     2     0     0 -1.771902396E+02 -9.260076486E+01 -1.307283593E+02  2.696037585E+02  1.250000000E+02  0.00000E+00  9.000E+00
      25     1     1     2     0     0  1.879917235E+02  1.173015925E+02 -2.384042486E+02  3.486576221E+02  1.250000000E+02  0.00000E+00  9.000E+00
      21     1     1     2   512   501 -1.080148392E+01 -2.470082768E+01 -2.196035302E+01  3.477154077E+01  6.743495762E-07  0.00000E+00  9.000E+00
#rwgt            1           1   2.8927026983898829E-002           2      153895           0
</event>
<event>
      5   9999  3.19816E-02  1.53201E+02 -1.00000E+00  1.16031E-01
      21    -1     0     0   502   501  0.000000000E+00  0.000000000E+00  9.687972067E+01  9.687972067E+01  0.000000000E+00  0.00000E+00  9.000E+00
      21    -1     0     0   501   511  0.000000000E+00  0.000000000E+00 -1.859458743E+03  1.859458743E+03  0.000000000E+00  0.00000E+00  9.000E+00
      25     1     1     2     0     0  1.436946702E+02  2.368434738E+02 -8.475712893E+02  9.004138380E+02  1.250000000E+02  0.00000E+00  9.000E+00
      25     1     1     2     0     0 -2.852807877E+02 -1.783290275E+02 -5.162434415E+02  6.287437163E+02  1.250000000E+02  0.00000E+00  9.000E+00
      21     1     1     2   502   511  1.415861175E+02 -5.851444631E+01 -3.987642913E+02  4.271809091E+02  5.394796609E-06  0.00000E+00  9.000E+00
#rwgt            1           1   3.0629847969539346E-002           2      154014           0
</event>
<event>
      5   9999  3.19816E-02  6.54219E+01 -1.00000E+00  1.32726E-01
       1    -1     0     0   502     0  0.000000000E+00  0.000000000E+00  1.398320456E+03  1.398320456E+03  0.000000000E+00  0.00000E+00  9.000E+00
      21    -1     0     0   501   502  0.000000000E+00  0.000000000E+00 -1.549022810E+02  1.549022810E+02  0.000000000E+00  0.00000E+00  9.000E+00
      25     1     1     2     0     0 -1.393705612E+02 -1.364566716E+02  2.185504389E+01  2.326955511E+02  1.250000000E+02  0.00000E+00  9.000E+00
      25     1     1     2     0     0  1.907556532E+02  9.596473002E+01  2.681224316E+02  3.648446066E+02  1.250000000E+02  0.00000E+00  9.000E+00
       1     1     1     2   501     0 -5.138509197E+01  4.049194154E+01  9.534406992E+02  9.556825791E+02  1.525878906E-05  0.00000E+00  9.000E+00
#rwgt            1           1   2.8394784429195817E-002           2      154072           0
</event>
<event>
      5   9999  3.19816E-02  2.07082E+02 -1.00000E+00  1.11101E-01
      21    -1     0     0   502   501  0.000000000E+00  0.000000000E+00  1.380052665E+02  1.380052665E+02  0.000000000E+00  0.00000E+00  9.000E+00
       2    -1     0     0   501     0  0.000000000E+00  0.000000000E+00 -1.096106106E+03  1.096106106E+03  0.000000000E+00  0.00000E+00  9.000E+00
      25     1     1     2     0     0  9.628180030E+01  1.626386556E+02 -4.027266481E+02  4.620987669E+02  1.250000000E+02  0.00000E+00  9.000E+00
      25     1     1     2     0     0  1.072692903E+02 -1.245604186E+02 -3.176393576E+01  2.089400539E+02  1.250000000E+02  0.00000E+00  9.000E+00
       2     1     1     2   502     0 -2.035510906E+02 -3.807823700E+01 -5.236102560E+02  5.630725520E+02  0.000000000E+00  0.00000E+00  9.000E+00
#rwgt            1           1   2.8944412800944303E-002           2      154160           0
</event>
<event>
      5   9999  3.19816E-02  3.54682E+01 -1.00000E+00  1.48155E-01
      21    -1     0     0   502   511  0.000000000E+00  0.000000000E+00  1.377084606E+03  1.377084606E+03  0.000000000E+00  0.00000E+00  9.000E+00
      21    -1     0     0   501   502  0.000000000E+00  0.000000000E+00 -3.810141368E+02  3.810141368E+02  0.000000000E+00  0.00000E+00  9.000E+00
      25     1     1     2     0     0 -3.359645772E+02  1.907096267E+02 -2.178946438E+02  4.608095427E+02  1.250000000E+02  0.00000E+00  9.000E+00
      25     1     1     2     0     0  3.013461549E+02 -1.984269977E+02  8.527814047E+02  9.343681837E+02  1.250000000E+02  0.00000E+00  9.000E+00
      21     1     1     2   501   511  3.461842225E+01  7.717370985E+00  3.611837079E+02  3.629210160E+02  0.000000000E+00  0.00000E+00  9.000E+00
#rwgt            1           1   3.4432211227891925E-002           2      154231           0
</event>
<event>
      5   9999  3.19816E-02  9.62120E+00 -1.00000E+00  1.97716E-01
      21    -1     0     0   502   512  0.000000000E+00  0.000000000E+00  1.647886893E+03  1.647886893E+03  0.000000000E+00  0.00000E+00  9.000E+00
      21    -1     0     0   501   502  0.000000000E+00  0.000000000E+00 -6.889249736E+01  6.889249736E+01  0.000000000E+00  0.00000E+00  9.000E+00
      25     1     1     2     0     0 -2.838145080E+02  1.118310972E+02  7.641174296E+02  8.322002857E+02  1.250000000E+02  0.00000E+00  9.000E+00
      25     1     1     2     0     0  2.915150238E+02 -1.060631257E+02  7.882472025E+02  8.562645899E+02  1.250000000E+02  0.00000E+00  9.000E+00
      21     1     1     2   501   512 -7.700515807E+00 -5.767971470E+00  2.662976352E+01  2.831451472E+01  0.000000000E+00  0.00000E+00  9.000E+00
#rwgt            1           1   2.5129654309173088E-002           2      154338           0
</event>
<event>
      5   9999  3.19816E-02  1.24763E+02 -1.00000E+00  1.19655E-01
      -2    -1     0     0     0   501  0.000000000E+00  0.000000000E+00  1.420878811E+03  1.420878811E+03  0.000000000E+00  0.00000E+00  9.000E+00
      21    -1     0     0   501   502  0.000000000E+00  0.000000000E+00 -1.560350895E+02  1.560350895E+02  0.000000000E+00  0.00000E+00  9.000E+00
      25     1     1     2     0     0 -2.024815207E+02  1.783949405E+02  8.271480028E+02  8.789893854E+02  1.250000000E+02  0.00000E+00  9.000E+00
      25     1     1     2     0     0  7.819313679E+01 -1.892700788E+02 -2.967503343E+00  2.399398580E+02  1.250000000E+02  0.00000E+00  9.000E+00
      -2     1     1     2     0   502  1.242883839E+02  1.087513825E+01  4.406632221E+02  4.579846573E+02  5.394796609E-06  0.00000E+00  9.000E+00
#rwgt            1           1   3.0548196660906499E-002           2      154527           0
</event>
<event>
      5   9999  3.19816E-02  2.85722E+01 -1.00000E+00  1.54525E-01
      21    -1     0     0   502   511  0.000000000E+00  0.000000000E+00  2.561848747E+02  2.561848747E+02  0.000000000E+00  0.00000E+00  9.000E+00
      21    -1     0     0   501   502  0.000000000E+00  0.000000000E+00 -3.271273497E+02  3.271273497E+02  0.000000000E+00  0.00000E+00  9.000E+00
      25     1     1     2     0     0 -1.030041243E+02  1.039595929E+02 -2.460453558E+02  3.123791986E+02  1.250000000E+02  0.00000E+00  9.000E+00
      25     1     1     2     0     0  8.519477550E+01 -8.161680913E+01  1.702925555E+02  2.419586902E+02  1.250000000E+02  0.00000E+00  9.000E+00
      21     1     1     2   501   511  1.780934882E+01 -2.234278381E+01  4.810325268E+00  2.897433559E+01  3.816559456E-07  0.00000E+00  9.000E+00
#rwgt            1           1   2.9393801897499156E-002           2      154598           0
</event>
<event>
      5   9999  3.19816E-02  1.63221E+02 -1.00000E+00  1.14958E-01
      -3    -1     0     0     0   501  0.000000000E+00  0.000000000E+00  1.353324749E+03  1.353324749E+03  0.000000000E+00  0.00000E+00  9.000E+00
      21    -1     0     0   501   502  0.000000000E+00  0.000000000E+00 -4.128036420E+02  4.128036420E+02  0.000000000E+00  0.00000E+00  9.000E+00
      25     1     1     2     0     0 -2.231827704E+02  1.895854274E+02  7.878146118E+02  8.497235114E+02  1.250000000E+02  0.00000E+00  9.000E+00
      25     1     1     2     0     0  6.722784575E+01 -2.377439162E+02 -3.159678183E+02  4.201219051E+02  1.250000000E+02  0.00000E+00  9.000E+00
      -3     1     1     2     0   502  1.559549247E+02  4.815848879E+01  4.686743137E+02  4.962829746E+02  5.394796609E-06  0.00000E+00  9.000E+00
#rwgt            1           1   2.2551370435915562E-002           2      154743           0
</event>
<event>
      5   9999  3.19816E-02  2.42137E+01 -1.00000E+00  1.59798E-01
      21    -1     0     0   502   511  0.000000000E+00  0.000000000E+00  8.202721589E+02  8.202721589E+02  0.000000000E+00  0.00000E+00  9.000E+00
      21    -1     0     0   501   502  0.000000000E+00  0.000000000E+00 -9.344912183E+01  9.344912183E+01  0.000000000E+00  0.00000E+00  9.000E+00
      25     1     1     2     0     0  2.179699075E+02  1.804375930E+01  5.284581217E+02  5.854309901E+02  1.250000000E+02  0.00000E+00  9.000E+00
      25     1     1     2     0     0 -1.939072678E+02 -1.534371666E+01  1.541819881E+02  2.779074371E+02  1.250000000E+02  0.00000E+00  9.000E+00
      21     1     1     2   501   511 -2.406263972E+01 -2.700042637E+00  4.418292733E+01  5.038285352E+01  9.536743164E-07  0.00000E+00  9.000E+00
#rwgt            1           1   2.7849726813274644E-002           2      154804           0
</event>
<event>
      5   9999  3.19816E-02  1.50906E+02 -1.00000E+00  1.16290E-01
      -3    -1     0     0     0   501  0.000000000E+00  0.000000000E+00  5.262205347E+02  5.262205347E+02  0.000000000E+00  0.00000E+00  9.000E+00
      21    -1     0     0   501   502  0.000000000E+00  0.000000000E+00 -1.271396575E+03  1.271396575E+03  0.000000000E+00  0.00000E+00  9.000E+00
      25     1     1     2     0     0 -4.077645925E+02 -3.650055127E+02 -8.393177909E+02  1.009742710E+03  1.250000000E+02  0.00000E+00  9.000E+00
      25     1     1     2     0     0  2.870989931E+02  4.556281881E+02 -7.869715327E+01  5.584273628E+02  1.250000000E+02  0.00000E+00  9.000E+00
      -3     1     1     2     0   502  1.206655994E+02 -9.062267537E+01  1.728389035E+02  2.294470369E+02  3.814697266E-06  0.00000E+00  9.000E+00
#rwgt            1           1   2.7180842453178887E-002           2      154920           0
</event>
<event>
      5   9999  3.19816E-02  6.51901E+01 -1.00000E+00  1.32806E-01
      21    -1     0     0   502   501  0.000000000E+00  0.000000000E+00  7.542849960E+02  7.542849960E+02  0.000000000E+00  0.00000E+00  9.000E+00
      21    -1     0     0   501   511  0.000000000E+00  0.000000000E+00 -6.554369486E+02  6.554369486E+02  0.000000000E+00  0.00000E+00  9.000E+00
      25     1     1     2     0     0 -1.714775770E+01  6.349216512E+02  2.706972415E+02  7.016562872E+02  1.250000000E+02  0.00000E+00  9.000E+00
      25     1     1     2     0     0  7.220595652E+01 -6.000169473E+02 -1.302479420E+02  6.307325611E+02  1.250000000E+02  0.00000E+00  9.000E+00
      21     1     1     2   502   511 -5.505819882E+01 -3.490470395E+01 -4.160125203E+01  7.733309632E+01  1.507891493E-06  0.00000E+00  9.000E+00
#rwgt            1           1   2.2708814204874871E-002           2      155067           0
</event>
<event>
      5   9999  3.19816E-02  4.26962E+01 -1.00000E+00  1.43105E-01
      21    -1     0     0   512   501  0.000000000E+00  0.000000000E+00  1.903269507E+02  1.903269507E+02  0.000000000E+00  0.00000E+00  9.000E+00
      21    -1     0     0   501   502  0.000000000E+00  0.000000000E+00 -8.750321563E+02  8.750321563E+02  0.000000000E+00  0.00000E+00  9.000E+00
      25     1     1     2     0     0  1.800643991E+02  2.445080358E+02 -1.719019223E+02  3.706516400E+02  1.250000000E+02  0.00000E+00  9.000E+00
      25     1     1     2     0     0 -1.428883424E+02 -2.235102654E+02 -5.593388244E+02  6.315527196E+02  1.250000000E+02  0.00000E+00  9.000E+00
      21     1     1     2   512   502 -3.717605666E+01 -2.099777036E+01  4.653554102E+01  6.315474746E+01  9.536743164E-07  0.00000E+00  9.000E+00
#rwgt            1           1   2.7064411403640683E-002           2      155197           0
</event>
<event>
      5   9999  3.19816E-02  6.44574E+01 -1.00000E+00  1.33061E-01
      21    -1     0     0   511   501  0.000000000E+00  0.000000000E+00  5.342242111E+02  5.342242111E+02  0.000000000E+00  0.00000E+00  9.000E+00
      21    -1     0     0   501   502  0.000000000E+00  0.000000000E+00 -5.011579823E+02  5.011579823E+02  0.000000000E+00  0.00000E+00  9.000E+00
      25     1     1     2     0     0  9.369633239E+01  4.215832854E+02 -1.518939372E+02  4.745610997E+02  1.250000000E+02  0.00000E+00  9.000E+00
      25     1     1     2     0     0 -3.327826710E+01 -4.440424293E+02  1.795776711E+02  4.961393575E+02  1.250000000E+02  0.00000E+00  9.000E+00
      21     1     1     2   511   502 -6.041806530E+01  2.245914391E+01  5.382494827E+00  6.468173630E+01  6.019774043E-07  0.00000E+00  9.000E+00
#rwgt            1           1   2.8578587127682162E-002           2      155390           0
</event>
<event>
      5   9999  3.19816E-02  4.57392E+01 -1.00000E+00  1.41319E-01
      21    -1     0     0   512   501  0.000000000E+00  0.000000000E+00  1.589990596E+02  1.589990596E+02  0.000000000E+00  0.00000E+00  9.000E+00
      21    -1     0     0   501   502  0.000000000E+00  0.000000000E+00 -1.844646941E+03  1.844646941E+03  0.000000000E+00  0.00000E+00  9.000E+00
      25     1     1     2     0     0  2.688972261E+02  1.614119449E+02 -1.573964647E+03  1.609766829E+03  1.250000000E+02  0.00000E+00  9.000E+00
      25     1     1     2     0     0 -2.803287693E+02 -1.171242686E+02 -7.965685117E+01  3.380421973E+02  1.250000000E+02  0.00000E+00  9.000E+00
      21     1     1     2   512   502  1.143154325E+01 -4.428767629E+01 -3.202638319E+01  5.583697406E+01  1.066240300E-06  0.00000E+00  9.000E+00
#rwgt            1           1   3.1251666058419614E-002           2      155462           0
</event>
<event>
      5   9999  3.22572E-02  1.40675E+02 -1.00000E+00  1.17509E-01
      21    -1     0     0   511   501  0.000000000E+00  0.000000000E+00  2.334702624E+02  2.334702624E+02  0.000000000E+00  0.00000E+00  9.000E+00
      21    -1     0     0   501   502  0.000000000E+00  0.000000000E+00 -2.590156340E+02  2.590156340E+02  0.000000000E+00  0.00000E+00  9.000E+00
      25     1     1     2     0     0 -5.877058725E+01 -7.699703223E+01  5.947687927E+01  1.689527273E+02  1.250000000E+02  0.00000E+00  9.000E+00
      25     1     1     2     0     0 -6.158780794E+01  4.173362882E+00 -1.137808286E+02  1.799487482E+02  1.250000000E+02  0.00000E+00  9.000E+00
      21     1     1     2   511   502  1.203583952E+02  7.282366935E+01  2.875857778E+01  1.435844208E+02  6.743495762E-07  0.00000E+00  9.000E+00
#rwgt            1           1   8.1890017788857891E-002           2      155618           0
</event>
<event>
      5   9999  3.19816E-02  2.66471E+01 -1.00000E+00  1.56703E-01
      21    -1     0     0   502   512  0.000000000E+00  0.000000000E+00  1.759884068E+02  1.759884068E+02  0.000000000E+00  0.00000E+00  9.000E+00
      21    -1     0     0   501   502  0.000000000E+00  0.000000000E+00 -1.214386962E+03  1.214386962E+03  0.000000000E+00  0.00000E+00  9.000E+00
      25     1     1     2     0     0 -4.037533121E+02 -1.752517125E+00 -6.938223994E+02  8.124249690E+02  1.250000000E+02  0.00000E+00  9.000E+00
      25     1     1     2     0     0  3.930466386E+02  2.615409698E+01 -3.591970324E+02  5.475556638E+02  1.250000000E+02  0.00000E+00  9.000E+00
      21     1     1     2   501   512  1.070667357E+01 -2.440157985E+01  1.462087641E+01  3.039473614E+01  3.769728732E-07  0.00000E+00  9.000E+00
#rwgt            1           1   2.8074055275190149E-002           2      155669           0
</event>
<event>
      5   9999  3.19816E-02  2.41335E+01 -1.00000E+00  1.59907E-01
      21    -1     0     0   502   501  0.000000000E+00  0.000000000E+00  3.226298088E+02  3.226298088E+02  0.000000000E+00  0.00000E+00  9.000E+00
       3    -1     0     0   501     0  0.000000000E+00  0.000000000E+00 -4.759644956E+02  4.759644956E+02  0.000000000E+00  0.00000E+00  9.000E+00
      25     1     1     2     0     0 -6.681106852E+01 -1.781427286E+01 -2.535920382E+02  2.910583945E+02  1.250000000E+02  0.00000E+00  9.000E+00
      25     1     1     2     0     0  7.014363585E+01  4.171661636E+01  2.847300794E+02  3.214912500E+02  1.250000000E+02  0.00000E+00  9.000E+00
       3     1     1     2   502     0 -3.332567331E+00 -2.390234350E+01 -1.844727281E+02  1.860446598E+02  3.814697266E-06  0.00000E+00  9.000E+00
#rwgt            1           1   2.8068324243986625E-002           2      155793           0
</event>
<event>
      5   9999  3.19816E-02  5.73226E+01 -1.00000E+00  1.35771E-01
      21    -1     0     0   502   501  0.000000000E+00  0.000000000E+00  1.098361840E+03  1.098361840E+03  0.000000000E+00  0.00000E+00  9.000E+00
      21    -1     0     0   511   502  0.000000000E+00  0.000000000E+00 -2.056078748E+02  2.056078748E+02  0.000000000E+00  0.00000E+00  9.000E+00
      25     1     1     2     0     0  3.649329465E+02  2.094627427E+01  5.932591785E+02  7.079521557E+02  1.250000000E+02  0.00000E+00  9.000E+00
      25     1     1     2     0     0 -4.057204599E+02  1.933102856E+01  3.232718824E+02  5.339592589E+02  1.250000000E+02  0.00000E+00  9.000E+00
      21     1     1     2   511   501  4.078751340E+01 -4.027730283E+01 -2.377709558E+01  6.205830038E+01  1.118282261E-06  0.00000E+00  9.000E+00
#rwgt            1           1   3.3977834065065930E-002           2      155884           0
</event>
<event>
      5   9999  3.19816E-02  1.70317E+01 -1.00000E+00  1.72339E-01
      21    -1     0     0   502   501  0.000000000E+00  0.000000000E+00  6.741421696E+02  6.741421696E+02  0.000000000E+00  0.00000E+00  9.000E+00
      21    -1     0     0   512   502  0.000000000E+00  0.000000000E+00 -2.979286108E+02  2.979286108E+02  0.000000000E+00  0.00000E+00  9.000E+00
      25     1     1     2     0     0 -1.463650188E+02  2.224490625E+02 -1.624516525E+02  3.360384554E+02  1.250000000E+02  0.00000E+00  9.000E+00
      25     1     1     2     0     0  1.602912430E+02 -2.322541454E+02  5.363899641E+02  6.188493066E+02  1.250000000E+02  0.00000E+00  9.000E+00
      21     1     1     2   512   501 -1.392622425E+01  9.805082875E+00  2.275247130E+00  1.718301841E+01  1.460009660E-07  0.00000E+00  9.000E+00
#rwgt            1           1   2.8915651377166143E-002           2      155976           0
</event>
<event>
      5   9999  3.19816E-02  3.04780E+02 -1.00000E+00  1.05369E-01
      21    -1     0     0   502   501  0.000000000E+00  0.000000000E+00  4.231034663E+02  4.231034663E+02  0.000000000E+00  0.00000E+00  9.000E+00
      21    -1     0     0   511   502  0.000000000E+00  0.000000000E+00 -9.522932178E+02  9.522932178E+02  0.000000000E+00  0.00000E+00  9.000E+00
      25     1     1     2     0     0 -1.311706885E+02  1.258461007E+02 -5.399159595E+00  2.206742883E+02  1.250000000E+02  0.00000E+00  9.000E+00
      25     1     1     2     0     0  4.279439022E+02 -1.952460053E+02  6.568437593E+01  4.911175249E+02  1.250000000E+02  0.00000E+00  9.000E+00
      21     1     1     2   511   501 -2.967732137E+02  6.939990463E+01 -5.894749678E+02  6.636048710E+02  7.629394531E-06  0.00000E+00  9.000E+00
#rwgt            2          11   2.9027299922679949E-003           2      156195           0
</event>
<event>
      5   9999  3.19816E-02  1.25019E+02 -1.00000E+00  1.19618E-01
       2    -1     0     0   502     0  0.000000000E+00  0.000000000E+00  7.386392052E+02  7.386392052E+02  0.000000000E+00  0.00000E+00  9.000E+00
      21    -1     0     0   501   502  0.000000000E+00  0.000000000E+00 -3.458715019E+02  3.458715019E+02  0.000000000E+00  0.00000E+00  9.000E+00
      25     1     1     2     0     0 -1.464962304E+01 -2.256922449E+02 -1.974115434E+02  3.251890502E+02  1.250000000E+02  0.00000E+00  9.000E+00
      25     1     1     2     0     0  1.285184869E+02  2.773028917E+02  3.117928481E+02  4.541515995E+02  1.250000000E+02  0.00000E+00  9.000E+00
       2     1     1     2   501     0 -1.138688638E+02 -5.161064678E+01  2.783863986E+02  3.051700574E+02  5.394796609E-06  0.00000E+00  9.000E+00
#rwgt            2          18   3.7609032178574577E-004           2      156215           0
</event>
<event>
      5   9999  3.19816E-02  3.59162E+02 -1.00000E+00  1.03113E-01
      21    -1     0     0   502   501  0.000000000E+00  0.000000000E+00  6.052638235E+02  6.052638235E+02  0.000000000E+00  0.00000E+00  9.000E+00
       2    -1     0     0   501     0  0.000000000E+00  0.000000000E+00 -1.667566722E+03  1.667566722E+03  0.000000000E+00  0.00000E+00  9.000E+00
      25     1     1     2     0     0 -2.801406592E+02 -1.168957048E+02  6.813821567E+01  3.352778119E+02  1.250000000E+02  0.00000E+00  9.000E+00
      25     1     1     2     0     0  2.297483615E+02 -2.387135279E+02  2.991370334E+02  4.635476488E+02  1.250000000E+02  0.00000E+00  9.000E+00
       2     1     1     2   502     0  5.039229771E+01  3.556092326E+02 -1.429578148E+03  1.474005085E+03  2.642899792E-05  0.00000E+00  9.000E+00
#rwgt            2          13   4.5361621066910265E-003           2      156234           0
</event>
<event>
      5   9999  3.19816E-02  7.96395E+01 -1.00000E+00  1.28444E-01
      21    -1     0     0   511   501  0.000000000E+00  0.000000000E+00  2.333438757E+02  2.333438757E+02  0.000000000E+00  0.00000E+00  9.000E+00
      21    -1     0     0   501   502  0.000000000E+00  0.000000000E+00 -6.281055975E+02  6.281055975E+02  0.000000000E+00  0.00000E+00  9.000E+00
      25     1     1     2     0     0  8.146831625E+00  2.041234210E+02 -4.594555377E+02  5.181284908E+02  1.250000000E+02  0.00000E+00  9.000E+00
      25     1     1     2     0     0 -2.979810971E+00 -1.246517188E+02 -6.747717018E+01  1.890108430E+02  1.250000000E+02  0.00000E+00  9.000E+00
      21     1     1     2   511   502 -5.167020653E+00 -7.947170227E+01  1.321709861E+02  1.543101394E+02  0.000000000E+00  0.00000E+00  9.000E+00
#rwgt            1           1   3.2554127061949489E-002           2      156253           0
</event>
<event>
      5   9999  3.19816E-02  9.61123E+01 -1.00000E+00  1.24607E-01
      -1    -1     0     0     0   501  0.000000000E+00  0.000000000E+00  1.881568596E+02  1.881568596E+02  0.000000000E+00  0.00000E+00  9.000E+00
      21    -1     0     0   501   502  0.000000000E+00  0.000000000E+00 -1.107329444E+03  1.107329444E+03  0.000000000E+00  0.00000E+00  9.000E+00
      25     1     1     2     0     0 -1.154006417E+02 -6.178203597E+01 -9.030409209E+02  9.210006693E+02  1.250000000E+02  0.00000E+00  9.000E+00
      25     1     1     2     0     0  1.553380701E+02 -2.563981400E+01  9.935197777E+01  2.242390055E+02  1.250000000E+02  0.00000E+00  9.000E+00
      -1     1     1     2     0   502 -3.993742845E+01  8.742184997E+01 -1.154836408E+02  1.502466283E+02  1.348699152E-06  0.00000E+00  9.000E+00
#rwgt            1           1   2.8950802839644317E-002           2      156303           0
</event>
<event>
      5   9999  3.19816E-02  1.62128E+02 -1.00000E+00  1.15071E-01
      21    -1     0     0   502   511  0.000000000E+00  0.000000000E+00  6.462794560E+02  6.462794560E+02  0.000000000E+00  0.00000E+00  9.000E+00
      21    -1     0     0   501   502  0.000000000E+00  0.000000000E+00 -7.462460461E+02  7.462460461E+02  0.000000000E+00  0.00000E+00  9.000E+00
      25     1     1     2     0     0  1.752477734E+02 -2.516810646E+01  4.722122692E+02  5.195715956E+02  1.250000000E+02  0.00000E+00  9.000E+00
      25     1     1     2     0     0 -1.067511562E+02 -1.217795600E+02 -6.583122375E+02  6.893664285E+02  1.250000000E+02  0.00000E+00  9.000E+00
      21     1     1     2   501   511 -6.849661724E+01  1.469476665E+02  8.613337818E+01  1.835874780E+02  4.370284743E-06  0.00000E+00  9.000E+00
#rwgt            2          11   5.0481634270722322E-003           2      156451           0
</event>
<event>
      5   9999  3.19816E-02  3.86429E+01 -1.00000E+00  1.45776E-01
      21    -1     0     0   502   501  0.000000000E+00  0.000000000E+00  1.783988523E+02  1.783988523E+02  0.000000000E+00  0.00000E+00  9.000E+00
      21    -1     0     0   501   512  0.000000000E+00  0.000000000E+00 -7.279128159E+02  7.279128159E+02  0.000000000E+00  0.00000E+00  9.000E+00
      25     1     1     2     0     0  7.740756054E+01 -1.981913754E+02  4.672772382E+01  2.511577829E+02  1.250000000E+02  0.00000E+00  9.000E+00
      25     1     1     2     0     0 -4.702161176E+01  1.743173261E+02 -5.625292306E+02  6.038722526E+02  1.250000000E+02  0.00000E+00  9.000E+00
      21     1     1     2   502   512 -3.038594878E+01  2.387404930E+01 -3.371245690E+01  5.128163281E+01  6.743495762E-07  0.00000E+00  9.000E+00
#rwgt            1           1   2.7908802174492105E-002           2      156471           0
</event>
<event>
      5   9999  3.19816E-02  2.23081E+02 -1.00000E+00  1.09948E-01
      21    -1     0     0   502   501  0.000000000E+00  0.000000000E+00  7.049118007E+02  7.049118007E+02  0.000000000E+00  0.00000E+00  9.000E+00
      21    -1     0     0   511   502  0.000000000E+00  0.000000000E+00 -6.025350414E+02  6.025350414E+02  0.000000000E+00  0.00000E+00  9.000E+00
      25     1     1     2     0     0  3.492040865E+02  5.251851184E+01  4.899317959E+02  6.167332104E+02  1.250000000E+02  0.00000E+00  9.000E+00
      25     1     1     2     0     0 -1.651695931E+02 -1.786000156E+02 -3.812767669E+01  2.761479310E+02  1.250000000E+02  0.00000E+00  9.000E+00
      21     1     1     2   511   501 -1.840344934E+02  1.260815038E+02 -3.494273599E+02  4.145657007E+02  8.529922400E-06  0.00000E+00  9.000E+00
#rwgt            2          11   3.7793062652552831E-003           2      156966           0
</event>
<event>
      5   9999  3.19816E-02  1.87607E+02 -1.00000E+00  1.12669E-01
       2    -1     0     0   502     0  0.000000000E+00  0.000000000E+00  9.605221968E+02  9.605221968E+02  0.000000000E+00  0.00000E+00  9.000E+00
      21    -1     0     0   501   502  0.000000000E+00  0.000000000E+00 -1.855870399E+03  1.855870399E+03  0.000000000E+00  0.00000E+00  9.000E+00
      25     1     1     2     0     0 -8.253562600E+00  3.710187559E+02  2.575542845E+02  4.687027288E+02  1.250000000E+02  0.00000E+00  9.000E+00
      25     1     1     2     0     0 -2.294705065E+00 -1.837084130E+02 -1.728275974E+03  1.742503052E+03  1.250000000E+02  0.00000E+00  9.000E+00
       2     1     1     2   501     0  1.054826766E+01 -1.873103428E+02  5.753734871E+02  6.051868143E+02  1.078959322E-05  0.00000E+00  9.000E+00
#rwgt            1           1   2.6185300662342224E-002           2      157001           0
</event>
<event>
      5   9999  3.19816E-02  2.60295E+02 -1.00000E+00  1.07635E-01
      21    -1     0     0   502   501  0.000000000E+00  0.000000000E+00  1.429743029E+03  1.429743029E+03  0.000000000E+00  0.00000E+00  9.000E+00
      -2    -1     0     0     0   502  0.000000000E+00  0.000000000E+00 -6.759747955E+02  6.759747955E+02  0.000000000E+00  0.00000E+00  9.000E+00
      25     1     1     2     0     0  4.411575827E+02 -5.938531735E+02  6.551308690E+02  9.960437038E+02  1.250000000E+02  0.00000E+00  9.000E+00
      25     1     1     2     0     0 -2.683333783E+02  7.884952551E+02  4.193388131E+01  8.432739885E+02  1.250000000E+02  0.00000E+00  9.000E+00
      -2     1     1     2     0   501 -1.728242044E+02 -1.946420816E+02  5.670348351E+01  2.664001325E+02  6.538061715E-06  0.00000E+00  9.000E+00
#rwgt            2           9   4.0945306092419479E-005           2      157095           0
</event>
<event>
      5   9999  3.19816E-02  1.88504E+02 -1.00000E+00  1.12592E-01
      21    -1     0     0   502   501  0.000000000E+00  0.000000000E+00  1.110302924E+03  1.110302924E+03  0.000000000E+00  0.00000E+00  9.000E+00
      21    -1     0     0   501   511  0.000000000E+00  0.000000000E+00 -6.809560293E+02  6.809560293E+02  0.000000000E+00  0.00000E+00  9.000E+00
      25     1     1     2     0     0  6.417738583E+01 -7.807280039E+02 -1.935477079E+01  7.935077568E+02  1.250000000E+02  0.00000E+00  9.000E+00
      25     1     1     2     0     0  6.275273509E+01  6.413630472E+02  4.710042237E+02  8.079322019E+02  1.250000000E+02  0.00000E+00  9.000E+00
      21     1     1     2   502   511 -1.269301209E+02  1.393649567E+02 -2.230255790E+01  1.898189950E+02  1.581489940E-06  0.00000E+00  9.000E+00
#rwgt            1           1   2.8897807603195286E-002           2      157114           0
</event>
<event>
      5   9999  3.19816E-02  6.23760E+01 -1.00000E+00  1.33808E-01
      21    -1     0     0   502   501  0.000000000E+00  0.000000000E+00  6.701582122E+02  6.701582122E+02  0.000000000E+00  0.00000E+00  9.000E+00
      21    -1     0     0   501   512  0.000000000E+00  0.000000000E+00 -2.133335658E+02  2.133335658E+02  0.000000000E+00  0.00000E+00  9.000E+00
      25     1     1     2     0     0 -3.578975542E+01  1.972986723E+02  4.747049133E+02  5.302616594E+02  1.250000000E+02  0.00000E+00  9.000E+00
      25     1     1     2     0     0  3.753795823E+01 -1.349471309E+02  1.052321673E+02  2.152176467E+02  1.250000000E+02  0.00000E+00  9.000E+00
      21     1     1     2   502   512 -1.748202805E+00 -6.235154146E+01 -1.231124342E+02  1.380124719E+02  3.303624740E-06  0.00000E+00  9.000E+00
#rwgt            1           1   2.9667358167828888E-002           2      157209           0
</event>
<event>
      5   9999  3.19816E-02  1.35330E+02 -1.00000E+00  1.18193E-01
       2    -1     0     0   502     0  0.000000000E+00  0.000000000E+00  1.187376278E+03  1.187376278E+03  0.000000000E+00  0.00000E+00  9.000E+00
      21    -1     0     0   501   502  0.000000000E+00  0.000000000E+00 -2.322676401E+03  2.322676401E+03  0.000000000E+00  0.00000E+00  9.000E+00
      25     1     1     2     0     0  2.041528265E+02 -6.430427472E+02 -1.002072776E+03  1.214478160E+03  1.250000000E+02  0.00000E+00  9.000E+00
      25     1     1     2     0     0 -1.897301674E+02  7.776016213E+02 -1.073912708E+03  1.345204565E+03  1.250000000E+02  0.00000E+00  9.000E+00
       2     1     1     2   501     0 -1.442265914E+01 -1.345588741E+02  9.406853604E+02  9.503699548E+02  1.868812365E-05  0.00000E+00  9.000E+00
#rwgt            2          18   8.1478375628819249E-003           2      157269           0
</event>
<event>
      5   9999  3.19816E-02  1.60325E+01 -1.00000E+00  1.74703E-01
      21    -1     0     0   511   501  0.000000000E+00  0.000000000E+00  2.361856001E+02  2.361856001E+02  0.000000000E+00  0.00000E+00  9.000E+00
      21    -1     0     0   501   502  0.000000000E+00  0.000000000E+00 -2.206323102E+02  2.206323102E+02  0.000000000E+00  0.00000E+00  9.000E+00
      25     1     1     2     0     0 -8.524057764E+00  1.368476661E+02 -1.142825463E+02  2.179115501E+02  1.250000000E+02  0.00000E+00  9.000E+00
      25     1     1     2     0     0 -7.420754273E+00 -1.351729065E+02  1.225761532E+02  2.213067906E+02  1.250000000E+02  0.00000E+00  9.000E+00
      21     1     1     2   511   502  1.594481204E+01 -1.674759580E+00  7.259683124E+00  1.759956959E+01  3.769728732E-07  0.00000E+00  9.000E+00
#rwgt            2          11   4.7078982614624587E-003           2      157318           0
</event>
<event>
      5   9999  3.68547E-02  8.73532E+01 -1.00000E+00  1.26528E-01
      21    -1     0     0   512   501  0.000000000E+00  0.000000000E+00  1.513711618E+02  1.513711618E+02  0.000000000E+00  0.00000E+00  9.000E+00
      21    -1     0     0   501   502  0.000000000E+00  0.000000000E+00 -1.854541460E+03  1.854541460E+03  0.000000000E+00  0.00000E+00  9.000E+00
      25     1     1     2     0     0 -7.268355381E+01  7.321542521E-01 -1.967975622E+02  2.442083445E+02  1.250000000E+02  0.00000E+00  9.000E+00
      25     1     1     2     0     0  8.984599479E+01  8.491851470E+01 -1.613741302E+03  1.623289699E+03  1.250000000E+02  0.00000E+00  9.000E+00
      21     1     1     2   512   502 -1.716244097E+01 -8.565066895E+01  1.073685661E+02  1.384145782E+02  3.015782986E-06  0.00000E+00  9.000E+00
#rwgt            1           1  0.11123046475946571                2      157413           0
</event>
<event>
      5   9999  3.19816E-02  1.94667E+01 -1.00000E+00  1.67343E-01
      21    -1     0     0   502   501  0.000000000E+00  0.000000000E+00  6.352690730E+01  6.352690730E+01  0.000000000E+00  0.00000E+00  9.000E+00
      21    -1     0     0   501   511  0.000000000E+00  0.000000000E+00 -1.444178345E+03  1.444178345E+03  0.000000000E+00  0.00000E+00  9.000E+00
      25     1     1     2     0     0 -1.682990983E+02  2.925326062E+01 -4.785104597E+02  5.232376131E+02  1.250000000E+02  0.00000E+00  9.000E+00
      25     1     1     2     0     0  1.488407245E+02 -2.868242472E+01 -1.941744430E+02  2.762335191E+02  1.250000000E+02  0.00000E+00  9.000E+00
      21     1     1     2   502   511  1.945837383E+01 -5.708359044E-01 -7.079665355E+02  7.082341206E+02  7.629394531E-06  0.00000E+00  9.000E+00
#rwgt            1           1   2.6074332317084836E-002           2      157466           0
</event>
<event>
      5   9999  3.19816E-02  8.80533E+01 -1.00000E+00  1.26365E-01
      21    -1     0     0   502   501  0.000000000E+00  0.000000000E+00  1.653974982E+02  1.653974982E+02  0.000000000E+00  0.00000E+00  9.000E+00
      21    -1     0     0   501   512  0.000000000E+00  0.000000000E+00 -3.625937609E+02  3.625937609E+02  0.000000000E+00  0.00000E+00  9.000E+00
      25     1     1     2     0     0  1.917503595E+00 -1.499249298E+02  2.029035579E+01  1.962596748E+02  1.250000000E+02  0.00000E+00  9.000E+00
      25     1     1     2     0     0  1.622085239E+01  6.376007061E+01 -6.465844516E+01  1.553517853E+02  1.250000000E+02  0.00000E+00  9.000E+00
      21     1     1     2   502   512 -1.813835598E+01  8.616485923E+01 -1.528281734E+02  1.763797990E+02  1.907348633E-06  0.00000E+00  9.000E+00
#rwgt            1           1   2.8460715005858096E-002           2      157638           0
</event>
<event>
      5   9999  3.19816E-02  1.65590E+02 -1.00000E+00  1.14717E-01
      21    -1     0     0   502   501  0.000000000E+00  0.000000000E+00  5.904740176E+02  5.904740176E+02  0.000000000E+00  0.00000E+00  9.000E+00
      21    -1     0     0   501   511  0.000000000E+00  0.000000000E+00 -7.465090450E+02  7.465090450E+02  0.000000000E+00  0.00000E+00  9.000E+00
      25     1     1     2     0     0  5.166604201E+02 -1.163483208E+02 -3.986889864E+02  6.745760367E+02  1.250000000E+02  0.00000E+00  9.000E+00
      25     1     1     2     0     0 -3.775889304E+02  2.646495469E+01  2.867530376E+02  4.910459233E+02  1.250000000E+02  0.00000E+00  9.000E+00
      21     1     1     2   502   511 -1.390714896E+02  8.988336609E+01 -4.409907869E+01  1.713611026E+02  3.693564745E-06  0.00000E+00  9.000E+00
#rwgt            1           1   3.0158993713717244E-002           2      157707           0
</event>
<event>
      5   9999  3.19816E-02  1.12536E+02 -1.00000E+00  1.21564E-01
      21    -1     0     0   502   501  0.000000000E+00  0.000000000E+00  3.383197585E+02  3.383197585E+02  0.000000000E+00  0.00000E+00  9.000E+00
       2    -1     0     0   501     0  0.000000000E+00  0.000000000E+00 -2.670348326E+03  2.670348326E+03  0.000000000E+00  0.00000E+00  9.000E+00
      25     1     1     2     0     0  4.190110946E+01 -2.191919346E+02  2.290829269E+02  3.433726759E+02  1.250000000E+02  0.00000E+00  9.000E+00
      25     1     1     2     0     0 -9.481893234E+01  3.185095137E+02 -2.520915736E+03  2.545796553E+03  1.250000000E+02  0.00000E+00  9.000E+00
       2     1     1     2   502     0  5.291782288E+01 -9.931757905E+01 -4.019575801E+01  1.194988554E+02  2.431401974E-06  0.00000E+00  9.000E+00
#rwgt            1           1   2.6253750355934347E-002           2      157803           0
</event>
<event>
      5   9999  3.19816E-02  4.62719E+01 -1.00000E+00  1.41023E-01
      21    -1     0     0   502   501  0.000000000E+00  0.000000000E+00  9.579350187E+02  9.579350187E+02  0.000000000E+00  0.00000E+00  9.000E+00
      21    -1     0     0   511   502  0.000000000E+00  0.000000000E+00 -2.243960721E+02  2.243960721E+02  0.000000000E+00  0.00000E+00  9.000E+00
      25     1     1     2     0     0  3.387556072E+02  1.817210699E+02  4.103281805E+02  5.759966357E+02  1.250000000E+02  0.00000E+00  9.000E+00
      25     1     1     2     0     0 -3.850069440E+02 -1.803430891E+02  3.384598982E+02  5.576146334E+02  1.250000000E+02  0.00000E+00  9.000E+00
      21     1     1     2   511   501  4.625133684E+01 -1.377980801E+00 -1.524913208E+01  4.871982163E+01  8.920806376E-07  0.00000E+00  9.000E+00
#rwgt            1           1   3.1754731533788320E-002           2      157885           0
</event>
<event>
      5   9999  3.19816E-02  8.18596E+01 -1.00000E+00  1.27868E-01
      21    -1     0     0   502   501  0.000000000E+00  0.000000000E+00  2.976862707E+02  2.976862707E+02  0.000000000E+00  0.00000E+00  9.000E+00
      21    -1     0     0   501   512  0.000000000E+00  0.000000000E+00 -4.524398736E+02  4.524398736E+02  0.000000000E+00  0.00000E+00  9.000E+00
      25     1     1     2     0     0  1.564851960E+02  2.374343824E+02 -6.138855236E+01  3.166326845E+02  1.250000000E+02  0.00000E+00  9.000E+00
      25     1     1     2     0     0 -2.349108859E+02 -2.139735165E+02 -7.597235422E+01  3.498065017E+02  1.250000000E+02  0.00000E+00  9.000E+00
      21     1     1     2   502   512  7.842568986E+01 -2.346086596E+01 -1.739269634E+01  8.368695805E+01  1.545128989E-06  0.00000E+00  9.000E+00
#rwgt            1           1   2.8802565400252930E-002           2      158023           0
</event>
<event>
      5   9999  3.19816E-02  2.67640E+01 -1.00000E+00  1.56564E-01
      21    -1     0     0   502   501  0.000000000E+00  0.000000000E+00  9.746732353E+02  9.746732353E+02  0.000000000E+00  0.00000E+00  9.000E+00
      21    -1     0     0   511   502  0.000000000E+00  0.000000000E+00 -1.544301563E+02  1.544301563E+02  0.000000000E+00  0.00000E+00  9.000E+00
      25     1     1     2     0     0 -2.954494171E+02 -1.608602307E+02  2.506791995E+02  4.377572763E+02  1.250000000E+02  0.00000E+00  9.000E+00
      25     1     1     2     0     0  2.732319232E+02  1.459372820E+02  5.740949178E+02  6.642012863E+02  1.250000000E+02  0.00000E+00  9.000E+00
      21     1     1     2   511   501  2.221749382E+01  1.492294868E+01 -4.531038295E+00  2.714482892E+01  3.097148194E-07  0.00000E+00  9.000E+00
#rwgt            1           1   3.3064022487658398E-002           2      158081           0
</event>
<event>
      5   9999  3.19816E-02  2.20527E+01 -1.00000E+00  1.62943E-01
      21    -1     0     0   502   501  0.000000000E+00  0.000000000E+00  3.428259155E+02  3.428259155E+02  0.000000000E+00  0.00000E+00  9.000E+00
      21    -1     0     0   501   512  0.000000000E+00  0.000000000E+00 -1.929770725E+02  1.929770725E+02  0.000000000E+00  0.00000E+00  9.000E+00
      25     1     1     2     0     0  1.626142415E+02  1.175741411E+02  7.378960879E+01  2.476630303E+02  1.250000000E+02  0.00000E+00  9.000E+00
      25     1     1     2     0     0 -1.511383327E+02 -1.364056068E+02  9.689217420E+01  2.578029840E+02  1.250000000E+02  0.00000E+00  9.000E+00
      21     1     1     2   502   512 -1.147590885E+01  1.883146565E+01 -2.083294004E+01  3.033697369E+01  2.384185791E-07  0.00000E+00  9.000E+00
#rwgt            1           1   2.4340969078408218E-002           2      158197           0
</event>
<event>
      5   9999  3.19816E-02  5.65278E+01 -1.00000E+00  1.36102E-01
      21    -1     0     0   502   501  0.000000000E+00  0.000000000E+00  1.180093085E+02  1.180093085E+02  0.000000000E+00  0.00000E+00  9.000E+00
      21    -1     0     0   511   502  0.000000000E+00  0.000000000E+00 -5.542500653E+02  5.542500653E+02  0.000000000E+00  0.00000E+00  9.000E+00
      25     1     1     2     0     0 -1.177588360E+01  1.472508547E+02 -4.233246556E+01  1.980871608E+02  1.250000000E+02  0.00000E+00  9.000E+00
      25     1     1     2     0     0  3.077153765E+01 -9.401030628E+01 -1.341704523E+02  2.083543508E+02  1.250000000E+02  0.00000E+00  9.000E+00
      21     1     1     2   511   501 -1.899565405E+01 -5.324054841E+01 -2.597378389E+02  2.658178621E+02  0.000000000E+00  0.00000E+00  9.000E+00
#rwgt            1           1   2.4134975157456412E-002           2      158352           0
</event>
<event>
      5   9999  3.19816E-02  1.90590E+02 -1.00000E+00  1.12415E-01
      21    -1     0     0   502   501  0.000000000E+00  0.000000000E+00  8.601815784E+02  8.601815784E+02  0.000000000E+00  0.00000E+00  9.000E+00
      21    -1     0     0   501   512  0.000000000E+00  0.000000000E+00 -7.018168707E+02  7.018168707E+02  0.000000000E+00  0.00000E+00  9.000E+00
      25     1     1     2     0     0 -2.919214561E+02  2.765339755E+02 -3.791404726E+02  5.666230441E+02  1.250000000E+02  0.00000E+00  9.000E+00
      25     1     1     2     0     0  4.108143574E+02 -4.254939203E+02  5.311004797E+02  8.046777194E+02  1.250000000E+02  0.00000E+00  9.000E+00
      21     1     1     2   502   512 -1.188929013E+02  1.489599448E+02  6.404700559E+00  1.906976857E+02  1.749982626E-06  0.00000E+00  9.000E+00
#rwgt            1           1   2.9052603605720841E-002           2      158426           0
</event>
<event>
      5   9999  3.19816E-02  8.62721E+01 -1.00000E+00  1.26783E-01
      21    -1     0     0   502   501  0.000000000E+00  0.000000000E+00  2.348740866E+02  2.348740866E+02  0.000000000E+00  0.00000E+00  9.000E+00
      21    -1     0     0   501   511  0.000000000E+00  0.000000000E+00 -2.205584470E+02  2.205584470E+02  0.000000000E+00  0.00000E+00  9.000E+00
      25     1     1     2     0     0 -7.847405039E+01 -5.247542034E+01 -1.091622020E+02  1.909272968E+02  1.250000000E+02  0.00000E+00  9.000E+00
      25     1     1     2     0     0  2.089819916E+01 -1.177334609E+01  1.247530760E+02  1.782236695E+02  1.250000000E+02  0.00000E+00  9.000E+00
      21     1     1     2   502   511  5.757585123E+01  6.424876644E+01 -1.275234342E+00  8.628156730E+01  1.355841910E-06  0.00000E+00  9.000E+00
#rwgt            1           1   2.9167191009808462E-002           2      158490           0
</event>
<event>
      5   9999  3.19816E-02  1.05971E+02 -1.00000E+00  1.22706E-01
      21    -1     0     0   502   501  0.000000000E+00  0.000000000E+00  2.862189744E+03  2.862189744E+03  0.000000000E+00  0.00000E+00  9.000E+00
       2    -1     0     0   501     0  0.000000000E+00  0.000000000E+00 -2.947734889E+02  2.947734889E+02  0.000000000E+00  0.00000E+00  9.000E+00
      25     1     1     2     0     0  6.620511815E+01 -1.668058261E+02  4.664934817E+02  5.152169153E+02  1.250000000E+02  0.00000E+00  9.000E+00
      25     1     1     2     0     0 -1.559791475E+02  1.104991070E+02  2.355211694E+03  2.366260059E+03  1.250000000E+02  0.00000E+00  9.000E+00
       2     1     1     2   502     0  8.977402938E+01  5.630671905E+01 -2.542889208E+02  2.754862577E+02  6.607249480E-06  0.00000E+00  9.000E+00
#rwgt            1           1   4.0278534292377467E-002           2      158567           0
</event>
<event>
      5   9999  3.19816E-02  2.68435E+01 -1.00000E+00  1.56471E-01
      21    -1     0     0   502   501  0.000000000E+00  0.000000000E+00  6.885021226E+02  6.885021226E+02  0.000000000E+00  0.00000E+00  9.000E+00
      21    -1     0     0   501   511  0.000000000E+00  0.000000000E+00 -3.447811708E+02  3.447811708E+02  0.000000000E+00  0.00000E+00  9.000E+00
      25     1     1     2     0     0  1.167032733E+02  3.201627921E+02  1.637197485E+02  3.981871714E+02  1.250000000E+02  0.00000E+00  9.000E+00
      25     1     1     2     0     0 -1.320270433E+02 -2.981229664E+02  3.313534145E+02  4.813818947E+02  1.250000000E+02  0.00000E+00  9.000E+00
      21     1     1     2   502   511  1.532377002E+01 -2.203982574E+01 -1.513522112E+02  1.537142273E+02  3.303624740E-06  0.00000E+00  9.000E+00
#rwgt            1           1   2.8729654484942378E-002           2      158632           0
</event>
<event>
      5   9999  3.42847E-02  1.10491E+01 -1.00000E+00  1.90878E-01
      21    -1     0     0   512   501  0.000000000E+00  0.000000000E+00  2.373043327E+03  2.373043327E+03  0.000000000E+00  0.00000E+00  9.000E+00
      21    -1     0     0   501   502  0.000000000E+00  0.000000000E+00 -6.313383081E+01  6.313383081E+01  0.000000000E+00  0.00000E+00  9.000E+00
      25     1     1     2     0     0  1.318893034E+02  2.791017914E+02  5.558910967E+02  6.480219978E+02  1.250000000E+02  0.00000E+00  9.000E+00
      25     1     1     2     0     0 -1.428186510E+02 -2.774793868E+02  1.712891395E+03  1.745569794E+03  1.250000000E+02  0.00000E+00  9.000E+00
      21     1     1     2   512   502  1.092934759E+01 -1.622404635E+00  4.112700428E+01  4.258536505E+01  4.768371582E-07  0.00000E+00  9.000E+00
#rwgt            1           1   9.5462013255181749E-002           2      158827           0
</event>
<event>
      5   9999  3.19816E-02  1.13352E+01 -1.00000E+00  1.89669E-01
      21    -1     0     0   502   501  0.000000000E+00  0.000000000E+00  1.303437795E+03  1.303437795E+03  0.000000000E+00  0.00000E+00  9.000E+00
      21    -1     0     0   501   511  0.000000000E+00  0.000000000E+00 -4.330891491E+02  4.330891491E+02  0.000000000E+00  0.00000E+00  9.000E+00
      25     1     1     2     0     0 -7.085291668E+02  1.628369729E+02  4.056813205E+02  8.418620990E+02  1.250000000E+02  0.00000E+00  9.000E+00
      25     1     1     2     0     0  7.080565625E+02 -1.741622694E+02  4.751352754E+02  8.792355326E+02  1.250000000E+02  0.00000E+00  9.000E+00
      21     1     1     2   502   511  4.726043081E-01  1.132529646E+01 -1.046795029E+01  1.542931229E+01  2.064765462E-07  0.00000E+00  9.000E+00
#rwgt            1           1   3.1230893572043894E-002           2      158990           0
</event>
<event>
      5   9999  3.19816E-02  3.31209E+02 -1.00000E+00  1.04214E-01
       2    -1     0     0   502     0  0.000000000E+00  0.000000000E+00  1.129985173E+03  1.129985173E+03  0.000000000E+00  0.00000E+00  9.000E+00
      21    -1     0     0   501   502  0.000000000E+00  0.000000000E+00 -1.994063902E+02  1.994063902E+02  0.000000000E+00  0.00000E+00  9.000E+00
      25     1     1     2     0     0 -3.042899133E+01 -9.476994834E+01  1.869678088E+02  2.459455796E+02  1.250000000E+02  0.00000E+00  9.000E+00
      25     1     1     2     0     0  2.863750775E+02  3.049870345E+02  2.997297285E+02  5.296137143E+02  1.250000000E+02  0.00000E+00  9.000E+00
       2     1     1     2   501     0 -2.559460862E+02 -2.102170862E+02  4.438812456E+02  5.538322693E+02  5.394796609E-06  0.00000E+00  9.000E+00
#rwgt            1           1   2.7699779605786661E-002           2      159310           0
</event>
<event>
      5   9999  3.19816E-02  3.70997E+02 -1.00000E+00  1.02679E-01
      21    -1     0     0   502   501  0.000000000E+00  0.000000000E+00  4.030711970E+02  4.030711970E+02  0.000000000E+00  0.00000E+00  9.000E+00
       2    -1     0     0   501     0  0.000000000E+00  0.000000000E+00 -2.146328078E+03  2.146328078E+03  0.000000000E+00  0.00000E+00  9.000E+00
      25     1     1     2     0     0  7.431022789E+02 -4.884175785E+02 -6.240922684E+02  1.093557903E+03  1.250000000E+02  0.00000E+00  9.000E+00
      25     1     1     2     0     0 -4.189363414E+02  3.079861915E+02 -4.893555896E+02  7.248841599E+02  1.250000000E+02  0.00000E+00  9.000E+00
       2     1     1     2   502     0 -3.241659376E+02  1.804313870E+02 -6.298090232E+02  7.309572123E+02  1.321449896E-05  0.00000E+00  9.000E+00
#rwgt            1           1   2.6667448328679715E-002           2      159355           0
</event>
<event>
      5   9999  3.19816E-02  1.15031E+01 -1.00000E+00  1.88980E-01
      21    -1     0     0   502   501  0.000000000E+00  0.000000000E+00  2.963375345E+02  2.963375345E+02  0.000000000E+00  0.00000E+00  9.000E+00
      21    -1     0     0   511   502  0.000000000E+00  0.000000000E+00 -2.885127232E+02  2.885127232E+02  0.000000000E+00  0.00000E+00  9.000E+00
      25     1     1     2     0     0  1.797418608E+02  1.021473124E+02  1.547320731E+02  2.868940997E+02  1.250000000E+02  0.00000E+00  9.000E+00
      25     1     1     2     0     0 -1.793562529E+02 -1.136439453E+02 -1.460414448E+02  2.864205219E+02  1.250000000E+02  0.00000E+00  9.000E+00
      21     1     1     2   511   501 -3.856079139E-01  1.149663290E+01 -8.658171114E-01  1.153563613E+01  2.583106730E-07  0.00000E+00  9.000E+00
#rwgt            1           1   2.9271378192073184E-002           2      159416           0
</event>
<event>
      5   9999  3.19816E-02  3.30248E+01 -1.00000E+00  1.50198E-01
      21    -1     0     0   502   501  0.000000000E+00  0.000000000E+00  1.096546116E+02  1.096546116E+02  0.000000000E+00  0.00000E+00  9.000E+00
      21    -1     0     0   512   502  0.000000000E+00  0.000000000E+00 -9.166936866E+02  9.166936866E+02  0.000000000E+00  0.00000E+00  9.000E+00
      25     1     1     2     0     0 -1.743315973E+02  5.933523524E+01 -9.938955544E+01  2.437528660E+02  1.250000000E+02  0.00000E+00  9.000E+00
      25     1     1     2     0     0  1.413373552E+02 -6.075572204E+01 -2.292793433E+02  3.030866592E+02  1.250000000E+02  0.00000E+00  9.000E+00
      21     1     1     2   512   501  3.299424213E+01  1.420486796E+00 -4.783701763E+02  4.795087729E+02  5.394796609E-06  0.00000E+00  9.000E+00
#rwgt            1           1   2.8137481633443134E-002           2      159646           0
</event>
<event>
      5   9999  3.19816E-02  2.54626E+02 -1.00000E+00  1.07959E-01
      21    -1     0     0   502   511  0.000000000E+00  0.000000000E+00  1.499322584E+03  1.499322584E+03  0.000000000E+00  0.00000E+00  9.000E+00
      21    -1     0     0   501   502  0.000000000E+00  0.000000000E+00 -3.688416926E+02  3.688416926E+02  0.000000000E+00  0.00000E+00  9.000E+00
      25     1     1     2     0     0  7.471272010E+01 -2.453345322E+02  8.942308315E+01  2.989858041E+02  1.250000000E+02  0.00000E+00  9.000E+00
      25     1     1     2     0     0 -1.295603423E+02  4.939828970E+02  3.007707780E+01  5.266256882E+02  1.250000000E+02  0.00000E+00  9.000E+00
      21     1     1     2   501   511  5.484762220E+01 -2.486483648E+02  1.010980730E+03  1.042552784E+03  1.078959322E-05  0.00000E+00  9.000E+00
#rwgt            2          11   1.8809611131832189E-003           2      159756           0
</event>
<event>
      5   9999  3.19816E-02  1.12175E+02 -1.00000E+00  1.21625E-01
      21    -1     0     0   502   501  0.000000000E+00  0.000000000E+00  1.321465734E+03  1.321465734E+03  0.000000000E+00  0.00000E+00  9.000E+00
      21    -1     0     0   501   512  0.000000000E+00  0.000000000E+00 -2.534331395E+02  2.534331395E+02  0.000000000E+00  0.00000E+00  9.000E+00
      25     1     1     2     0     0  3.656610233E+02  3.428898343E+02  4.898508114E+02  7.119411772E+02  1.250000000E+02  0.00000E+00  9.000E+00
      25     1     1     2     0     0 -3.694421592E+02 -2.307789489E+02  5.966829109E+02  7.492675946E+02  1.250000000E+02  0.00000E+00  9.000E+00
      21     1     1     2   502   512  3.781135916E+00 -1.121108854E+02 -1.850112740E+01  1.136901021E+02  1.410503336E-06  0.00000E+00  9.000E+00
#rwgt            2          11   4.3083710110178352E-003           2      159791           0
</event>
<event>
      5   9999  3.19816E-02  1.72643E+02 -1.00000E+00  1.14024E-01
      21    -1     0     0   502   501  0.000000000E+00  0.000000000E+00  1.244464515E+02  1.244464515E+02  0.000000000E+00  0.00000E+00  9.000E+00
       3    -1     0     0   501     0  0.000000000E+00  0.000000000E+00 -9.197654131E+02  9.197654131E+02  0.000000000E+00  0.00000E+00  9.000E+00
      25     1     1     2     0     0  7.447461126E+01 -8.963914848E+01  1.585269349E-01  1.708995898E+02  1.250000000E+02  0.00000E+00  9.000E+00
      25     1     1     2     0     0 -1.099325580E+02 -7.932380846E+01 -3.511217410E+02  3.965966602E+02  1.250000000E+02  0.00000E+00  9.000E+00
       3     1     1     2   502     0  3.545794673E+01  1.689629569E+02 -4.443557475E+02  4.767156145E+02  5.394796609E-06  0.00000E+00  9.000E+00
#rwgt            1           1   2.8097930899788341E-002           2      159841           0
</event>
<event>
      5   9999  3.19816E-02  6.54157E+01 -1.00000E+00  1.32728E-01
      21    -1     0     0   511   501  0.000000000E+00  0.000000000E+00  4.648114980E+02  4.648114980E+02  0.000000000E+00  0.00000E+00  9.000E+00
      21    -1     0     0   501   502  0.000000000E+00  0.000000000E+00 -1.698749064E+02  1.698749064E+02  0.000000000E+00  0.00000E+00  9.000E+00
      25     1     1     2     0     0  9.778986242E+01  1.230567377E+02  8.112064546E+00  2.009891128E+02  1.250000000E+02  0.00000E+00  9.000E+00
      25     1     1     2     0     0 -1.492231184E+02 -1.634774576E+02  1.922894769E+02  3.187360368E+02  1.250000000E+02  0.00000E+00  9.000E+00
      21     1     1     2   511   502  5.143325596E+01  4.042071992E+01  9.453505002E+01  1.149612548E+02  1.907348633E-06  0.00000E+00  9.000E+00
#rwgt            1           1   2.9018812882864273E-002           2      159914           0
</event>
<event>
      5   9999  3.19816E-02  5.85922E+01 -1.00000E+00  1.35257E-01
      21    -1     0     0   502   501  0.000000000E+00  0.000000000E+00  1.966777617E+02  1.966777617E+02  0.000000000E+00  0.00000E+00  9.000E+00
       2    -1     0     0   501     0  0.000000000E+00  0.000000000E+00 -1.384874386E+03  1.384874386E+03  0.000000000E+00  0.00000E+00  9.000E+00
      25     1     1     2     0     0  6.510218838E+01 -2.080312902E+02 -8.666500282E+01  2.658028129E+02  1.250000000E+02  0.00000E+00  9.000E+00
      25     1     1     2     0     0 -1.363319651E+01  1.800315912E+02 -7.058554941E+00  2.197090373E+02  1.250000000E+02  0.00000E+00  9.000E+00
       2     1     1     2   502     0 -5.146899187E+01  2.799969904E+01 -1.094473066E+03  1.096040297E+03  1.525878906E-05  0.00000E+00  9.000E+00
#rwgt            1           1   2.5535744424179573E-002           2      159990           0
</event>
<event>
      5   9999  3.19816E-02  2.89013E+02 -1.00000E+00  1.06121E-01
       1    -1     0     0   502     0  0.000000000E+00  0.000000000E+00  4.012621774E+03  4.012621774E+03  0.000000000E+00  0.00000E+00  9.000E+00
      21    -1     0     0   501   502  0.000000000E+00  0.000000000E+00 -4.008026565E+02  4.008026565E+02  0.000000000E+00  0.00000E+00  9.000E+00
      25     1     1     2     0     0 -3.227385187E+02  3.240019352E+02  4.253801959E+02  6.369542499E+02  1.250000000E+02  0.00000E+00  9.000E+00
      25     1     1     2     0     0  6.096475600E+02 -3.588094437E+02  1.596129124E+02  7.358774668E+02  1.250000000E+02  0.00000E+00  9.000E+00
       1     1     1     2   501     0 -2.869090413E+02  3.480750850E+01  3.026826009E+03  3.040592714E+03  4.315837288E-05  0.00000E+00  9.000E+00
#rwgt            1           1   2.4766348757259887E-002           2      160109           0
</event>
<event>
      5   9999  3.19816E-02  1.34834E+02 -1.00000E+00  1.18258E-01
       2    -1     0     0   502     0  0.000000000E+00  0.000000000E+00  4.848611728E+02  4.848611728E+02  0.000000000E+00  0.00000E+00  9.000E+00
      21    -1     0     0   501   502  0.000000000E+00  0.000000000E+00 -1.328142972E+03  1.328142972E+03  0.000000000E+00  0.00000E+00  9.000E+00
      25     1     1     2     0     0  6.668300646E+02 -8.742433129E+01 -8.550266653E+02  1.094989017E+03  1.250000000E+02  0.00000E+00  9.000E+00
      25     1     1     2     0     0 -5.403533132E+02  1.341551165E+02  6.231506959E+01  5.740099880E+02  1.250000000E+02  0.00000E+00  9.000E+00
       2     1     1     2   501     0 -1.264767513E+02 -4.673078523E+01 -5.057020368E+01  1.440051402E+02  2.861022949E-06  0.00000E+00  9.000E+00
#rwgt            1           1   2.5909728149237310E-002           2      160163           0
</event>
<event>
      5   9999  3.19816E-02  1.94431E+01 -1.00000E+00  1.67387E-01
      21    -1     0     0   511   501  0.000000000E+00  0.000000000E+00  2.737936314E+02  2.737936314E+02  0.000000000E+00  0.00000E+00  9.000E+00
      21    -1     0     0   501   502  0.000000000E+00  0.000000000E+00 -9.508559951E+02  9.508559951E+02  0.000000000E+00  0.00000E+00  9.000E+00
      25     1     1     2     0     0  2.325249938E+02  3.794483038E+02 -5.470850686E+02  7.162234011E+02  1.250000000E+02  0.00000E+00  9.000E+00
      25     1     1     2     0     0 -2.516348989E+02 -3.758644329E+02 -1.350708070E+02  4.883270596E+02  1.250000000E+02  0.00000E+00  9.000E+00
      21     1     1     2   511   502  1.910990512E+01 -3.583870907E+00  5.093511819E+00  2.009916582E+01  2.384185791E-07  0.00000E+00  9.000E+00
#rwgt            1           1   2.7651474861066686E-002           2      160269           0
</event>
<event>
      5   9999  4.05305E-02  3.39929E+01 -1.00000E+00  1.49364E-01
      21    -1     0     0   502   501  0.000000000E+00  0.000000000E+00  1.371328502E+03  1.371328502E+03  0.000000000E+00  0.00000E+00  9.000E+00
      21    -1     0     0   501   512  0.000000000E+00  0.000000000E+00 -9.854018579E+02  9.854018579E+02  0.000000000E+00  0.00000E+00  9.000E+00
      25     1     1     2     0     0 -3.989277711E+02  5.762303564E+02 -6.996506360E+02  9.981587061E+02  1.250000000E+02  0.00000E+00  9.000E+00
      25     1     1     2     0     0  4.208684668E+02 -6.021942618E+02  1.093843025E+03  1.323588214E+03  1.250000000E+02  0.00000E+00  9.000E+00
      21     1     1     2   502   512 -2.194069570E+01  2.596390546E+01 -8.265745456E+00  3.498343983E+01  6.848052319E-07  0.00000E+00  9.000E+00
#rwgt            1           1   9.7753661124460406E-002           2      160557           0
</event>
<event>
      5   9999  3.19816E-02  1.90738E+01 -1.00000E+00  1.68086E-01
      21    -1     0     0   502   511  0.000000000E+00  0.000000000E+00  2.549086385E+02  2.549086385E+02  0.000000000E+00  0.00000E+00  9.000E+00
      21    -1     0     0   501   502  0.000000000E+00  0.000000000E+00 -1.528315133E+02  1.528315133E+02  0.000000000E+00  0.00000E+00  9.000E+00
      25     1     1     2     0     0  9.868492657E+01  5.929932874E+01 -4.329471194E+01  1.753697728E+02  1.250000000E+02  0.00000E+00  9.000E+00
      25     1     1     2     0     0 -8.297832541E+01 -4.847747368E+01  1.102196914E+02  1.923768393E+02  1.250000000E+02  0.00000E+00  9.000E+00
      21     1     1     2   501   511 -1.570660116E+01 -1.082185505E+01  3.515214575E+01  3.999353970E+01  0.000000000E+00  0.00000E+00  9.000E+00
#rwgt            1           1   2.4260641333732950E-002           2      160773           0
</event>
<event>
      5   9999  3.19816E-02  1.09167E+02 -1.00000E+00  1.22139E-01
       2    -1     0     0   502     0  0.000000000E+00  0.000000000E+00  1.328791585E+03  1.328791585E+03  0.000000000E+00  0.00000E+00  9.000E+00
      21    -1     0     0   501   502  0.000000000E+00  0.000000000E+00 -9.967653994E+02  9.967653994E+02  0.000000000E+00  0.00000E+00  9.000E+00
      25     1     1     2     0     0  3.502273468E+02  1.774686415E+02 -7.724595209E+02  8.754844514E+02  1.250000000E+02  0.00000E+00  9.000E+00
      25     1     1     2     0     0 -2.775092429E+02 -9.604644351E+01 -2.048833098E+01  3.198141193E+02  1.250000000E+02  0.00000E+00  9.000E+00
       2     1     1     2   501     0 -7.271810391E+01 -8.142219798E+01  1.124974037E+03  1.130258414E+03  1.525878906E-05  0.00000E+00  9.000E+00
#rwgt            1           1   2.5661043026148491E-002           2      160909           0
</event>
<event>
      5   9999  3.19816E-02  5.25950E+01 -1.00000E+00  1.37833E-01
      21    -1     0     0   502   501  0.000000000E+00  0.000000000E+00  2.463490680E+02  2.463490680E+02  0.000000000E+00  0.00000E+00  9.000E+00
      -1    -1     0     0     0   502  0.000000000E+00  0.000000000E+00 -4.289789163E+02  4.289789163E+02  0.000000000E+00  0.00000E+00  9.000E+00
      25     1     1     2     0     0  1.539989879E+02 -8.764198276E+01  1.504592528E-01  2.168451707E+02  1.250000000E+02  0.00000E+00  9.000E+00
      25     1     1     2     0     0 -1.079624323E+02  6.220828191E+01  7.763032894E+01  1.928139650E+02  1.250000000E+02  0.00000E+00  9.000E+00
      -1     1     1     2     0   501 -4.603655558E+01  2.543370085E+01 -2.604106365E+02  2.656688487E+02  0.000000000E+00  0.00000E+00  9.000E+00
#rwgt            1           1   2.5909152085655227E-002           2      160958           0
</event>
<event>
      5   9999  3.19816E-02  7.74233E+01 -1.00000E+00  1.29041E-01
      21    -1     0     0   511   501  0.000000000E+00  0.000000000E+00  1.133069923E+03  1.133069923E+03  0.000000000E+00  0.00000E+00  9.000E+00
      21    -1     0     0   501   502  0.000000000E+00  0.000000000E+00 -2.696367508E+03  2.696367508E+03  0.000000000E+00  0.00000E+00  9.000E+00
      25     1     1     2     0     0  3.652148499E+02 -1.357062105E+03  2.546459701E+02  1.433690697E+03  1.250000000E+02  0.00000E+00  9.000E+00
      25     1     1     2     0     0 -3.080548614E+02  1.409283761E+03 -1.810011362E+03  2.317918171E+03  1.250000000E+02  0.00000E+00  9.000E+00
      21     1     1     2   511   502 -5.715998845E+01 -5.222165574E+01 -7.932193045E+00  7.782856349E+01  5.591411304E-07  0.00000E+00  9.000E+00
#rwgt            1           1   2.3550423131993774E-002           2      161042           0
</event>
<event>
      5   9999  3.19816E-02  1.81455E+01 -1.00000E+00  1.69933E-01
      21    -1     0     0   512   501  0.000000000E+00  0.000000000E+00  2.878437222E+02  2.878437222E+02  0.000000000E+00  0.00000E+00  9.000E+00
      21    -1     0     0   501   502  0.000000000E+00  0.000000000E+00 -5.275196916E+02  5.275196916E+02  0.000000000E+00  0.00000E+00  9.000E+00
      25     1     1     2     0     0 -3.309691308E+02  9.363430879E+01 -1.993238142E+02  4.167288474E+02  1.250000000E+02  0.00000E+00  9.000E+00
      25     1     1     2     0     0  3.389501117E+02 -1.099303872E+02 -4.384204355E+01  3.801565376E+02  1.250000000E+02  0.00000E+00  9.000E+00
      21     1     1     2   512   502 -7.980980957E+00  1.629607839E+01  3.489888424E+00  1.847802882E+01  4.214684851E-08  0.00000E+00  9.000E+00
#rwgt            1           1   2.9097700791702031E-002           2      161178           0
</event>
<event>
      5   9999  3.19816E-02  1.83488E+02 -1.00000E+00  1.13028E-01
      21    -1     0     0   502   501  0.000000000E+00  0.000000000E+00  1.133060920E+03  1.133060920E+03  0.000000000E+00  0.00000E+00  9.000E+00
      21    -1     0     0   501   511  0.000000000E+00  0.000000000E+00 -1.674342797E+03  1.674342797E+03  0.000000000E+00  0.00000E+00  9.000E+00
      25     1     1     2     0     0  6.266950778E+02 -3.861966813E+02  5.121479798E+02  9.054364419E+02  1.250000000E+02  0.00000E+00  9.000E+00
      25     1     1     2     0     0 -7.567532781E+02  5.156296128E+02 -9.836416744E+01  9.294352753E+02  1.250000000E+02  0.00000E+00  9.000E+00
      21     1     1     2   502   511  1.300582003E+02 -1.294329315E+02 -9.550656891E+02  9.725319993E+02  1.078959322E-05  0.00000E+00  9.000E+00
#rwgt            1           1   3.2563720250958467E-002           2      161400           0
</event>
<event>
      5   9999  3.19816E-02  7.55197E+01 -1.00000E+00  1.29573E-01
      21    -1     0     0   502   501  0.000000000E+00  0.000000000E+00  6.343719184E+02  6.343719184E+02  0.000000000E+00  0.00000E+00  9.000E+00
      21    -1     0     0   512   502  0.000000000E+00  0.000000000E+00 -2.598377803E+02  2.598377803E+02  0.000000000E+00  0.00000E+00  9.000E+00
      25     1     1     2     0     0 -2.121421970E+02  9.383704876E+01  4.212844845E+01  2.668511001E+02  1.250000000E+02  0.00000E+00  9.000E+00
      25     1     1     2     0     0  2.724113010E+02 -1.393437459E+02  4.048971189E+02  5.226770258E+02  1.250000000E+02  0.00000E+00  9.000E+00
      21     1     1     2   512   501 -6.026910401E+01  4.550669711E+01 -7.249142922E+01  1.046815728E+02  9.536743164E-07  0.00000E+00  9.000E+00
#rwgt            1           1   2.8435194274904013E-002           2      161504           0
</event>
<event>
      5   9999  3.19816E-02  2.18867E+02 -1.00000E+00  1.10241E-01
      21    -1     0     0   502   501  0.000000000E+00  0.000000000E+00  1.100770093E+03  1.100770093E+03  0.000000000E+00  0.00000E+00  9.000E+00
      21    -1     0     0   501   511  0.000000000E+00  0.000000000E+00 -1.681498255E+02  1.681498255E+02  0.000000000E+00  0.00000E+00  9.000E+00
      25     1     1     2     0     0  1.736439318E+02 -1.525948577E+02  5.735794279E+02  6.309166076E+02  1.250000000E+02  0.00000E+00  9.000E+00
      25     1     1     2     0     0  2.848215251E+00  2.820299173E+02  2.074588142E+02  3.717702868E+02  1.250000000E+02  0.00000E+00  9.000E+00
      21     1     1     2   502   511 -1.764921471E+02 -1.294350595E+02  1.515820250E+02  2.662330237E+02  6.325959759E-06  0.00000E+00  9.000E+00
#rwgt            2          11   3.9270585693434593E-003           2      161652           0
</event>
<event>
      5   9999  3.19816E-02  2.59485E+02 -1.00000E+00  1.07681E-01
       1    -1     0     0   502     0  0.000000000E+00  0.000000000E+00  9.266971464E+01  9.266971464E+01  0.000000000E+00  0.00000E+00  9.000E+00
      21    -1     0     0   501   502  0.000000000E+00  0.000000000E+00 -1.782342823E+03  1.782342823E+03  0.000000000E+00  0.00000E+00  9.000E+00
      25     1     1     2     0     0 -1.918783354E+02 -2.251445911E+02 -7.472892773E+02  8.133717763E+02  1.250000000E+02  0.00000E+00  9.000E+00
      25     1     1     2     0     0  1.497721388E+02 -3.090123940E+01 -6.023607503E+02  6.339164406E+02  1.250000000E+02  0.00000E+00  9.000E+00
       1     1     1     2   501     0  4.210619667E+01  2.560458305E+02 -3.400230808E+02  4.277243208E+02  6.607249480E-06  0.00000E+00  9.000E+00
#rwgt            2          17   6.9076834851664173E-005           2      161777           0
</event>
<event>
      5   9999  3.19816E-02  2.08806E+01 -1.00000E+00  1.64840E-01
      21    -1     0     0   511   501  0.000000000E+00  0.000000000E+00  9.166118970E+02  9.166118970E+02  0.000000000E+00  0.00000E+00  9.000E+00
      21    -1     0     0   501   502  0.000000000E+00  0.000000000E+00 -9.047871603E+01  9.047871603E+01  0.000000000E+00  0.00000E+00  9.000E+00
      25     1     1     2     0     0  1.825908029E+02 -2.994370889E+01  7.093886065E+02  7.437023746E+02  1.250000000E+02  0.00000E+00  9.000E+00
      25     1     1     2     0     0 -1.637164034E+02  3.887433205E+01  8.678939149E+01  2.268736937E+02  1.250000000E+02  0.00000E+00  9.000E+00
      21     1     1     2   511   502 -1.887439949E+01 -8.930623167E+00  2.995518293E+01  3.651454465E+01  3.371747881E-07  0.00000E+00  9.000E+00
#rwgt            1           1   3.1230839480424977E-002           2      161811           0
</event>
<event>
      5   9999  3.19816E-02  6.90868E+01 -1.00000E+00  1.31510E-01
      21    -1     0     0   502   512  0.000000000E+00  0.000000000E+00  2.447536390E+02  2.447536390E+02  0.000000000E+00  0.00000E+00  9.000E+00
      21    -1     0     0   501   502  0.000000000E+00  0.000000000E+00 -1.255929417E+03  1.255929417E+03  0.000000000E+00  0.00000E+00  9.000E+00
      25     1     1     2     0     0 -4.144061481E+02  3.164787331E+01 -9.390383608E+02  1.034481554E+03  1.250000000E+02  0.00000E+00  9.000E+00
      25     1     1     2     0     0  3.519064960E+02 -2.206682684E+00 -1.047845649E+01  3.736011904E+02  1.250000000E+02  0.00000E+00  9.000E+00
      21     1     1     2   501   512  6.249965210E+01 -2.944119063E+01 -6.165896101E+01  9.260031150E+01  6.743495762E-07  0.00000E+00  9.000E+00
#rwgt            1           1   2.8614279987425485E-002           2      161926           0
</event>
<event>
      5   9999  3.19816E-02  4.19499E+01 -1.00000E+00  1.43570E-01
      21    -1     0     0   511   501  0.000000000E+00  0.000000000E+00  1.140032833E+02  1.140032833E+02  0.000000000E+00  0.00000E+00  9.000E+00
      21    -1     0     0   501   502  0.000000000E+00  0.000000000E+00 -1.218189725E+03  1.218189725E+03  0.000000000E+00  0.00000E+00  9.000E+00
      25     1     1     2     0     0 -7.984450921E+01  1.698962862E+02 -2.966753818E+02  3.726676480E+02  1.250000000E+02  0.00000E+00  9.000E+00
      25     1     1     2     0     0  1.182560891E+02 -1.867588776E+02 -8.574735254E+02  8.942869940E+02  1.250000000E+02  0.00000E+00  9.000E+00
      21     1     1     2   511   502 -3.841157993E+01  1.686259141E+01  4.996246556E+01  6.523836622E+01  1.784161275E-06  0.00000E+00  9.000E+00
#rwgt            1           1   3.5825587156173053E-002           2      162012           0
</event>
<event>
      5   9999  3.19816E-02  1.47544E+02 -1.00000E+00  1.16678E-01
      -5    -1     0     0     0   501  0.000000000E+00  0.000000000E+00  3.827893782E+02  3.827893782E+02  0.000000000E+00  0.00000E+00  9.000E+00
      21    -1     0     0   501   502  0.000000000E+00  0.000000000E+00 -9.775324327E+02  9.775324327E+02  0.000000000E+00  0.00000E+00  9.000E+00
      25     1     1     2     0     0 -2.752381351E+02  8.771733720E+01 -7.564988556E+02  8.193691969E+02  1.250000000E+02  0.00000E+00  9.000E+00
      25     1     1     2     0     0  1.571945175E+02 -1.762324166E+02  2.525910826E+02  3.676890480E+02  1.250000000E+02  0.00000E+00  9.000E+00
      -5     1     1     2     0   502  1.180436176E+02  8.851507937E+01 -9.083528156E+01  1.732635660E+02  3.015782986E-06  0.00000E+00  9.000E+00
#rwgt            1           1   3.2721348950603822E-002           2      162107           0
</event>
<event>
      5   9999  3.19816E-02  2.49103E+02 -1.00000E+00  1.08284E-01
      21    -1     0     0   502   511  0.000000000E+00  0.000000000E+00  2.337369514E+02  2.337369514E+02  0.000000000E+00  0.00000E+00  9.000E+00
      21    -1     0     0   501   502  0.000000000E+00  0.000000000E+00 -3.232955753E+03  3.232955753E+03  0.000000000E+00  0.00000E+00  9.000E+00
      25     1     1     2     0     0  5.719145301E+02  3.896140573E+02 -7.174677974E+02  1.004624499E+03  1.250000000E+02  0.00000E+00  9.000E+00
      25     1     1     2     0     0 -6.114919683E+02 -1.436755131E+02 -1.910462048E+03  2.014957895E+03  1.250000000E+02  0.00000E+00  9.000E+00
      21     1     1     2   501   511  3.957743814E+01 -2.459385442E+02 -3.712889560E+02  4.471103107E+02  5.394796609E-06  0.00000E+00  9.000E+00
#rwgt            2          11   1.2609884319104463E-002           2      162171           0
</event>
<event>
      5   9999  3.19816E-02  2.62909E+02 -1.00000E+00  1.07488E-01
      21    -1     0     0   512   501  0.000000000E+00  0.000000000E+00  4.487512771E+02  4.487512771E+02  0.000000000E+00  0.00000E+00  9.000E+00
      21    -1     0     0   501   502  0.000000000E+00  0.000000000E+00 -6.465538959E+02  6.465538959E+02  0.000000000E+00  0.00000E+00  9.000E+00
      25     1     1     2     0     0 -3.282215736E+02  1.088464135E+02 -3.443426209E+02  5.037596488E+02  1.250000000E+02  0.00000E+00  9.000E+00
      25     1     1     2     0     0  8.924141169E+01 -2.184348436E+02  1.863755071E+02  3.256357476E+02  1.250000000E+02  0.00000E+00  9.000E+00
      21     1     1     2   512   502  2.389801620E+02  1.095884301E+02 -3.983550498E+01  2.659097766E+02  5.993750138E-06  0.00000E+00  9.000E+00
#rwgt            2          11   3.4432801435673129E-003           2      162401           0
</event>
<event>
      5   9999  3.19816E-02  4.35508E+01 -1.00000E+00  1.42586E-01
      21    -1     0     0   511   501  0.000000000E+00  0.000000000E+00  2.199649354E+03  2.199649354E+03  0.000000000E+00  0.00000E+00  9.000E+00
      21    -1     0     0   501   502  0.000000000E+00  0.000000000E+00 -2.434161620E+02  2.434161620E+02  0.000000000E+00  0.00000E+00  9.000E+00
      25     1     1     2     0     0  1.887037970E+02 -5.232285646E+02  2.199260579E+02  6.110398716E+02  1.250000000E+02  0.00000E+00  9.000E+00
      25     1     1     2     0     0 -1.919592868E+02  4.797996503E+02  1.492818272E+03  1.584672668E+03  1.250000000E+02  0.00000E+00  9.000E+00
      21     1     1     2   511   502  3.255489813E+00  4.342891431E+01  2.434888617E+02  2.473529757E+02  2.697398305E-06  0.00000E+00  9.000E+00
#rwgt            1           1   2.6674550183386270E-002           2      162421           0
</event>
<event>
      5   9999  3.19816E-02  1.03065E+01 -1.00000E+00  1.94253E-01
      21    -1     0     0   502   512  0.000000000E+00  0.000000000E+00  1.391334285E+01  1.391334285E+01  0.000000000E+00  0.00000E+00  9.000E+00
      21    -1     0     0   501   502  0.000000000E+00  0.000000000E+00 -2.647614377E+03  2.647614377E+03  0.000000000E+00  0.00000E+00  9.000E+00
      25     1     1     2     0     0 -7.580716963E+01  8.969514076E+01 -1.798631828E+03  1.806790912E+03  1.250000000E+02  0.00000E+00  9.000E+00
      25     1     1     2     0     0  6.772075319E+01 -9.608535362E+01 -7.993882453E+02  8.175971271E+02  1.250000000E+02  0.00000E+00  9.000E+00
      21     1     1     2   501   512  8.086416447E+00  6.390212855E+00 -3.568096048E+01  3.713968083E+01  4.768371582E-07  0.00000E+00  9.000E+00
#rwgt            1           1   3.6905787018332872E-002           2      162624           0
</event>
<event>
      5   9999  3.19816E-02  1.64533E+02 -1.00000E+00  1.14824E-01
      -3    -1     0     0     0   501  0.000000000E+00  0.000000000E+00  8.260487811E+02  8.260487811E+02  0.000000000E+00  0.00000E+00  9.000E+00
      21    -1     0     0   501   502  0.000000000E+00  0.000000000E+00 -1.867823041E+02  1.867823041E+02  0.000000000E+00  0.00000E+00  9.000E+00
      25     1     1     2     0     0 -1.911680364E+02  6.097818485E+00  1.791788197E+02  2.903660637E+02  1.250000000E+02  0.00000E+00  9.000E+00
      25     1     1     2     0     0  5.383135660E+01  8.450919343E+01 -6.448610435E+01  1.726935910E+02  1.250000000E+02  0.00000E+00  9.000E+00
      -3     1     1     2     0   502  1.373366798E+02 -9.060701192E+01  5.245737617E+02  5.497714304E+02  1.321449896E-05  0.00000E+00  9.000E+00
#rwgt            2           3   6.0490138651697998E-005           2      162827           0
</event>
<event>
      5   9999  3.19816E-02  6.48971E+01 -1.00000E+00  1.32907E-01
      21    -1     0     0   502   501  0.000000000E+00  0.000000000E+00  1.949540351E+02  1.949540351E+02  0.000000000E+00  0.00000E+00  9.000E+00
      -2    -1     0     0     0   502  0.000000000E+00  0.000000000E+00 -4.944865103E+02  4.944865103E+02  0.000000000E+00  0.00000E+00  9.000E+00
      25     1     1     2     0     0  1.886088829E+02  1.413942819E+02 -1.290484735E+02  2.963851585E+02  1.250000000E+02  0.00000E+00  9.000E+00
      25     1     1     2     0     0 -1.608233735E+02 -2.000423559E+02 -1.154043977E+02  3.079355073E+02  1.250000000E+02  0.00000E+00  9.000E+00
      -2     1     1     2     0   501 -2.778550943E+01  5.864807398E+01 -5.507960409E+01  8.511987959E+01  1.784161275E-06  0.00000E+00  9.000E+00
#rwgt            2           9   1.4718143597301876E-005           2      162891           0
</event>
<event>
      5   9999  3.19816E-02  1.08142E+01 -1.00000E+00  1.91908E-01
      21    -1     0     0   502   501  0.000000000E+00  0.000000000E+00  2.967232466E+02  2.967232466E+02  0.000000000E+00  0.00000E+00  9.000E+00
      21    -1     0     0   511   502  0.000000000E+00  0.000000000E+00 -3.584530149E+02  3.584530149E+02  0.000000000E+00  0.00000E+00  9.000E+00
      25     1     1     2     0     0  1.464485917E+02  4.289227838E+01 -1.169902672E+02  2.293439778E+02  1.250000000E+02  0.00000E+00  9.000E+00
      25     1     1     2     0     0 -1.414459323E+02 -5.247982365E+01  2.004171888E+02  2.802733188E+02  1.250000000E+02  0.00000E+00  9.000E+00
      21     1     1     2   511   501 -5.002659412E+00  9.587545267E+00 -1.451566900E+02  1.455589649E+02  3.303624740E-06  0.00000E+00  9.000E+00
#rwgt            1           1   2.7431079588664996E-002           2      162940           0
</event>
<event>
      5   9999  3.19816E-02  9.32757E+01 -1.00000E+00  1.25203E-01
      21    -1     0     0   512   501  0.000000000E+00  0.000000000E+00  8.999340878E+02  8.999340878E+02  0.000000000E+00  0.00000E+00  9.000E+00
      21    -1     0     0   501   502  0.000000000E+00  0.000000000E+00 -1.429647214E+02  1.429647214E+02  0.000000000E+00  0.00000E+00  9.000E+00
      25     1     1     2     0     0 -3.901183590E+01 -5.976078368E+01 -3.566499013E+01  1.482911532E+02  1.250000000E+02  0.00000E+00  9.000E+00
      25     1     1     2     0     0  4.516315790E+01  1.528333950E+02  1.682867504E+02  2.633309473E+02  1.250000000E+02  0.00000E+00  9.000E+00
      21     1     1     2   512   502 -6.151322002E+00 -9.307261128E+01  6.243476060E+02  6.312767087E+02  1.078959322E-05  0.00000E+00  9.000E+00
#rwgt            1           1   2.6485039946106792E-002           2      163158           0
</event>
<event>
      5   9999  3.19816E-02  5.14906E+02 -1.00000E+00  9.84909E-02
       2    -1     0     0   502     0  0.000000000E+00  0.000000000E+00  2.342692848E+03  2.342692848E+03  0.000000000E+00  0.00000E+00  9.000E+00
      21    -1     0     0   501   502  0.000000000E+00  0.000000000E+00 -2.141684506E+02  2.141684506E+02  0.000000000E+00  0.00000E+00  9.000E+00
      25     1     1     2     0     0 -1.936962576E+02  2.110332039E+02  3.536175618E+02  4.719360480E+02  1.250000000E+02  0.00000E+00  9.000E+00
      25     1     1     2     0     0 -2.814942942E+02 -4.093322344E+02  5.269224801E+02  7.348906149E+02  1.250000000E+02  0.00000E+00  9.000E+00
       2     1     1     2   501     0  4.751905518E+02  1.982990305E+02  1.247984356E+03  1.350034636E+03  0.000000000E+00  0.00000E+00  9.000E+00
#rwgt            2          18   1.3879576733674842E-003           2      163498           0
</event>
<event>
      5   9999  3.19816E-02  3.71794E+01 -1.00000E+00  1.46838E-01
      21    -1     0     0   502   501  0.000000000E+00  0.000000000E+00  1.512149370E+03  1.512149370E+03  0.000000000E+00  0.00000E+00  9.000E+00
      21    -1     0     0   501   511  0.000000000E+00  0.000000000E+00 -4.765197570E+01  4.765197570E+01  0.000000000E+00  0.00000E+00  9.000E+00
      25     1     1     2     0     0 -1.066416159E+02 -1.419745375E+02  3.892449605E+02  4.457194665E+02  1.250000000E+02  0.00000E+00  9.000E+00
      25     1     1     2     0     0  1.149093737E+02  1.782230420E+02  1.003731190E+03  1.033474198E+03  1.250000000E+02  0.00000E+00  9.000E+00
      21     1     1     2   502   511 -8.267757786E+00 -3.624850448E+01  7.152124364E+01  8.060768070E+01  0.000000000E+00  0.00000E+00  9.000E+00
#rwgt            1           1   2.9618612629383825E-002           2      163532           0
</event>
<event>
      5   9999  3.19816E-02  2.52163E+01 -1.00000E+00  1.58471E-01
      21    -1     0     0   502   501  0.000000000E+00  0.000000000E+00  2.156437377E+02  2.156437377E+02  0.000000000E+00  0.00000E+00  9.000E+00
      21    -1     0     0   512   502  0.000000000E+00  0.000000000E+00 -1.158660793E+03  1.158660793E+03  0.000000000E+00  0.00000E+00  9.000E+00
      25     1     1     2     0     0  8.540270112E+00  8.495200877E+01  1.570890430E+02  2.181553287E+02  1.250000000E+02  0.00000E+00  9.000E+00
      25     1     1     2     0     0  1.020222448E+01 -1.018215322E+02 -2.064706039E+02  2.621580059E+02  1.250000000E+02  0.00000E+00  9.000E+00
      21     1     1     2   512   501 -1.874249459E+01  1.686952339E+01 -8.936354946E+02  8.939911963E+02  0.000000000E+00  0.00000E+00  9.000E+00
#rwgt            1           1   2.7472938160944229E-002           2      163604           0
</event>
<event>
      5   9999  3.19816E-02  3.65343E+02 -1.00000E+00  1.02884E-01
      21    -1     0     0   502   501  0.000000000E+00  0.000000000E+00  3.142445943E+03  3.142445943E+03  0.000000000E+00  0.00000E+00  9.000E+00
      21    -1     0     0   501   511  0.000000000E+00  0.000000000E+00 -2.036048406E+02  2.036048406E+02  0.000000000E+00  0.00000E+00  9.000E+00
      25     1     1     2     0     0  4.602737206E+02  7.625160944E+01  2.596374522E+03  2.640918754E+03  1.250000000E+02  0.00000E+00  9.000E+00
      25     1     1     2     0     0 -1.081423196E+02 -1.736110908E+02  7.109569407E+01  2.500303378E+02  1.250000000E+02  0.00000E+00  9.000E+00
      21     1     1     2   502   511 -3.521314010E+02  9.735948134E+01  2.713708869E+02  4.551016925E+02  5.394796609E-06  0.00000E+00  9.000E+00
#rwgt            1           1   8.1119765940380908E-002           2      163719           0
</event>
<event>
      5   9999  3.19816E-02  6.37304E+01 -1.00000E+00  1.33318E-01
      21    -1     0     0   502   501  0.000000000E+00  0.000000000E+00  1.399767216E+03  1.399767216E+03  0.000000000E+00  0.00000E+00  9.000E+00
      21    -1     0     0   512   502  0.000000000E+00  0.000000000E+00 -4.445437125E+02  4.445437125E+02  0.000000000E+00  0.00000E+00  9.000E+00
      25     1     1     2     0     0 -4.682850371E+01  1.489010677E+02  7.452891073E+02  7.716510158E+02  1.250000000E+02  0.00000E+00  9.000E+00
      25     1     1     2     0     0 -1.422659560E+01 -1.306297604E+02  6.259998802E+02  6.517418050E+02  1.250000000E+02  0.00000E+00  9.000E+00
      21     1     1     2   512   501  6.105509931E+01 -1.827130733E+01 -4.160654843E+02  4.209181073E+02  7.629394531E-06  0.00000E+00  9.000E+00
#rwgt            1           1   4.4117156855299801E-002           2      163797           0
</event>
<event>
      5   9999  3.38543E-02  8.80025E+01 -1.00000E+00  1.26377E-01
      21    -1     0     0   511   501  0.000000000E+00  0.000000000E+00  3.528166196E+01  3.528166196E+01  0.000000000E+00  0.00000E+00  9.000E+00
      21    -1     0     0   501   502  0.000000000E+00  0.000000000E+00 -1.850866323E+03  1.850866323E+03  0.000000000E+00  0.00000E+00  9.000E+00
      25     1     1     2     0     0  7.890711147E+01  5.854407051E+01 -4.888985361E+02  5.141016621E+02  1.250000000E+02  0.00000E+00  9.000E+00
      25     1     1     2     0     0 -1.652534280E+02 -7.553704873E+01 -1.184297314E+03  1.204657491E+03  1.250000000E+02  0.00000E+00  9.000E+00
      21     1     1     2   511   502  8.634631656E+01  1.699297821E+01 -1.423888100E+02  1.673888315E+02  1.907348633E-06  0.00000E+00  9.000E+00
#rwgt            1           1  0.10261129805610363                2      163867           0
</event>
<event>
      5   9999  3.19816E-02  6.65263E+02 -1.00000E+00  9.54519E-02
       2    -1     0     0   502     0  0.000000000E+00  0.000000000E+00  9.318644953E+02  9.318644953E+02  0.000000000E+00  0.00000E+00  9.000E+00
      21    -1     0     0   501   502  0.000000000E+00  0.000000000E+00 -6.698061837E+02  6.698061837E+02  0.000000000E+00  0.00000E+00  9.000E+00
      25     1     1     2     0     0 -5.015255102E+01 -1.301253479E+02  3.068257367E+02  3.594647650E+02  1.250000000E+02  0.00000E+00  9.000E+00
      25     1     1     2     0     0  2.020917881E+02 -5.175547263E+02 -8.461473353E+01  5.757505004E+02  1.250000000E+02  0.00000E+00  9.000E+00
       2     1     1     2   501     0 -1.519392371E+02  6.476800743E+02  3.984730847E+01  6.664554136E+02  1.587946492E-05  0.00000E+00  9.000E+00
#rwgt            2          18   4.1159747154013326E-004           2      163938           0
</event>
<event>
      5   9999  3.19816E-02  8.11853E+02 -1.00000E+00  9.32182E-02
      21    -1     0     0   502   501  0.000000000E+00  0.000000000E+00  1.676685514E+03  1.676685514E+03  0.000000000E+00  0.00000E+00  9.000E+00
      21    -1     0     0   501   511  0.000000000E+00  0.000000000E+00 -1.333248052E+03  1.333248052E+03  0.000000000E+00  0.00000E+00  9.000E+00
      25     1     1     2     0     0  1.034197691E+03 -2.486539288E+02  8.718854771E+02  1.381015180E+03  1.250000000E+02  0.00000E+00  9.000E+00
      25     1     1     2     0     0 -4.156687876E+02 -2.772052405E+02  1.858844400E+02  5.475411504E+02  1.250000000E+02  0.00000E+00  9.000E+00
      21     1     1     2   502   511 -6.185289039E+02  5.258591693E+02 -7.143324551E+02  1.081377236E+03  7.629394531E-06  0.00000E+00  9.000E+00
#rwgt            2          11   1.2275631532183381E-003           2      163987           0
</event>
<event>
      5   9999  3.19816E-02  4.73008E+01 -1.00000E+00  1.40465E-01
      21    -1     0     0   502   501  0.000000000E+00  0.000000000E+00  8.080722782E+01  8.080722782E+01  0.000000000E+00  0.00000E+00  9.000E+00
      21    -1     0     0   512   502  0.000000000E+00  0.000000000E+00 -1.518591227E+03  1.518591227E+03  0.000000000E+00  0.00000E+00  9.000E+00
      25     1     1     2     0     0 -1.085130734E+02  2.777402792E+02 -4.925819601E+02  5.892170544E+02  1.250000000E+02  0.00000E+00  9.000E+00
      25     1     1     2     0     0  6.913459850E+01 -2.515353507E+02 -6.533534040E+02  7.145245244E+02  1.250000000E+02  0.00000E+00  9.000E+00
      21     1     1     2   512   501  3.937847493E+01 -2.620492848E+01 -2.918486348E+02  2.956568758E+02  5.394796609E-06  0.00000E+00  9.000E+00
#rwgt            1           1   3.1890031005005169E-002           2      164007           0
</event>
<event>
      5   9999  3.19816E-02  4.70719E+01 -1.00000E+00  1.40588E-01
      21    -1     0     0   511   501  0.000000000E+00  0.000000000E+00  7.935632517E+02  7.935632517E+02  0.000000000E+00  0.00000E+00  9.000E+00
      21    -1     0     0   501   502  0.000000000E+00  0.000000000E+00 -2.167307384E+03  2.167307384E+03  0.000000000E+00  0.00000E+00  9.000E+00
      25     1     1     2     0     0  5.411637061E+02 -7.251029429E+02  3.421865252E+02  9.753712383E+02  1.250000000E+02  0.00000E+00  9.000E+00
      25     1     1     2     0     0 -5.861407891E+02  7.112167978E+02 -1.696212708E+03  1.934464502E+03  1.250000000E+02  0.00000E+00  9.000E+00
      21     1     1     2   511   502  4.497708297E+01  1.388614504E+01 -1.971794944E+01  5.103489539E+01  6.307962682E-07  0.00000E+00  9.000E+00
#rwgt            1           1   5.6746881756808754E-002           2      164075           0
</event>
<event>
      5   9999  3.19816E-02  8.51523E+01 -1.00000E+00  1.27051E-01
       2    -1     0     0   502     0  0.000000000E+00  0.000000000E+00  1.491128630E+03  1.491128630E+03  0.000000000E+00  0.00000E+00  9.000E+00
      21    -1     0     0   501   502  0.000000000E+00  0.000000000E+00 -1.116897472E+03  1.116897472E+03  0.000000000E+00  0.00000E+00  9.000E+00
      25     1     1     2     0     0  3.111154581E+02 -4.876639969E+02 -2.689913893E+02  6.500695114E+02  1.250000000E+02  0.00000E+00  9.000E+00
      25     1     1     2     0     0 -3.566234767E+02  4.156922946E+02 -5.355237752E+02  7.761385840E+02  1.250000000E+02  0.00000E+00  9.000E+00
       2     1     1     2   501     0  4.550801864E+01  7.197170235E+01  1.178746323E+03  1.181818007E+03  1.525878906E-05  0.00000E+00  9.000E+00
#rwgt            1           1   2.9414006679600462E-002           2      164286           0
</event>
<event>
      5   9999  3.66615E-02  1.24108E+02 -1.00000E+00  1.19751E-01
      21    -1     0     0   502   511  0.000000000E+00  0.000000000E+00  1.084022282E+02  1.084022282E+02  0.000000000E+00  0.00000E+00  9.000E+00
      21    -1     0     0   501   502  0.000000000E+00  0.000000000E+00 -2.593557208E+03  2.593557208E+03  0.000000000E+00  0.00000E+00  9.000E+00
      25     1     1     2     0     0  2.270240947E+02  5.531737651E+01 -1.470189278E+03  1.493881342E+03  1.250000000E+02  0.00000E+00  9.000E+00
      25     1     1     2     0     0 -1.072080116E+02 -2.296286359E+01 -1.062312416E+03  1.075245795E+03  1.250000000E+02  0.00000E+00  9.000E+00
      21     1     1     2   501   511 -1.198160831E+02 -3.235451292E+01  4.734671405E+01  1.328322988E+02  2.939421655E-06  0.00000E+00  9.000E+00
#rwgt            1           1   9.2308910211400322E-002           2      164371           0
</event>
<event>
      5   9999  3.19816E-02  1.17749E+02 -1.00000E+00  1.20718E-01
      21    -1     0     0   502   501  0.000000000E+00  0.000000000E+00  1.158877301E+03  1.158877301E+03  0.000000000E+00  0.00000E+00  9.000E+00
      21    -1     0     0   512   502  0.000000000E+00  0.000000000E+00 -9.504490741E+01  9.504490741E+01  0.000000000E+00  0.00000E+00  9.000E+00
      25     1     1     2     0     0 -9.102745000E+01  5.228490421E+01  7.735709374E+02  7.906052764E+02  1.250000000E+02  0.00000E+00  9.000E+00
      25     1     1     2     0     0  8.962113428E+01 -1.700250345E+02  2.491764259E+02  3.386064844E+02  1.250000000E+02  0.00000E+00  9.000E+00
      21     1     1     2   512   501  1.406315725E+00  1.177401303E+02  4.108503009E+01  1.247104474E+02  1.348699152E-06  0.00000E+00  9.000E+00
#rwgt            1           1   3.1651074322854814E-002           2      164426           0
</event>
<event>
      5   9999  3.19816E-02  2.20726E+02 -1.00000E+00  1.10111E-01
      21    -1     0     0   511   501  0.000000000E+00  0.000000000E+00  9.663036916E+02  9.663036916E+02  0.000000000E+00  0.00000E+00  9.000E+00
      21    -1     0     0   501   502  0.000000000E+00  0.000000000E+00 -3.911880706E+02  3.911880706E+02  0.000000000E+00  0.00000E+00  9.000E+00
      25     1     1     2     0     0  2.843438211E+01 -5.947904092E+01 -1.738484006E+02  2.240413730E+02  1.250000000E+02  0.00000E+00  9.000E+00
      25     1     1     2     0     0  1.839038599E+02  1.197483548E+02 -8.832455656E+01  2.675565837E+02  1.250000000E+02  0.00000E+00  9.000E+00
      21     1     1     2   511   502 -2.123382421E+02 -6.026931392E+01  8.372885782E+02  8.658938055E+02  1.078959322E-05  0.00000E+00  9.000E+00
#rwgt            2          11   9.0372754856303823E-003           2      164502           0
</event>
<event>
      5   9999  3.19816E-02  1.41125E+02 -1.00000E+00  1.17453E-01
      21    -1     0     0   512   501  0.000000000E+00  0.000000000E+00  1.064239574E+03  1.064239574E+03  0.000000000E+00  0.00000E+00  9.000E+00
      21    -1     0     0   501   502  0.000000000E+00  0.000000000E+00 -2.680580258E+02  2.680580258E+02  0.000000000E+00  0.00000E+00  9.000E+00
      25     1     1     2     0     0 -2.446747282E+02 -3.087308843E+02 -2.947250044E+00  4.132967067E+02  1.250000000E+02  0.00000E+00  9.000E+00
      25     1     1     2     0     0  1.123793709E+02  2.595968188E+02  4.940759117E+02  5.828856131E+02  1.250000000E+02  0.00000E+00  9.000E+00
      21     1     1     2   512   502  1.322953572E+02  4.913406549E+01  3.050528870E+02  3.361152805E+02  3.814697266E-06  0.00000E+00  9.000E+00
#rwgt            1           1   3.0038183241003172E-002           2      164537           0
</event>
<event>
      5   9999  3.19816E-02  5.42150E+01 -1.00000E+00  1.37099E-01
      21    -1     0     0   502   511  0.000000000E+00  0.000000000E+00  7.933201450E+01  7.933201450E+01  0.000000000E+00  0.00000E+00  9.000E+00
      21    -1     0     0   501   502  0.000000000E+00  0.000000000E+00 -9.406663701E+02  9.406663701E+02  0.000000000E+00  0.00000E+00  9.000E+00
      25     1     1     2     0     0  1.376274046E+02  1.532262684E+02 -4.854902485E+02  5.419828164E+02  1.250000000E+02  0.00000E+00  9.000E+00
      25     1     1     2     0     0 -9.201686017E+01 -1.825340388E+02 -3.242570840E+02  4.031791592E+02  1.250000000E+02  0.00000E+00  9.000E+00
      21     1     1     2   501   511 -4.561054440E+01  2.930777042E+01 -5.158702308E+01  7.483640904E+01  6.743495762E-07  0.00000E+00  9.000E+00
#rwgt            1           1   2.6596829025790334E-002           2      164591           0
</event>
<event>
      5   9999  3.19816E-02  6.04171E+02 -1.00000E+00  9.65718E-02
      21    -1     0     0   502   501  0.000000000E+00  0.000000000E+00  8.262225079E+02  8.262225079E+02  0.000000000E+00  0.00000E+00  9.000E+00
       1    -1     0     0   501     0  0.000000000E+00  0.000000000E+00 -1.686187922E+03  1.686187922E+03  0.000000000E+00  0.00000E+00  9.000E+00
      25     1     1     2     0     0  4.542807100E+02  1.330868903E+02  4.274415932E+02  6.499341501E+02  1.250000000E+02  0.00000E+00  9.000E+00
      25     1     1     2     0     0 -9.891920963E+01 -6.216984348E+02 -3.084210670E+02  7.120691740E+02  1.250000000E+02  0.00000E+00  9.000E+00
       1     1     1     2   502     0 -3.553615004E+02  4.886115445E+02 -9.789859399E+02  1.150407105E+03  2.642899792E-05  0.00000E+00  9.000E+00
#rwgt            1           1   2.4729513144093267E-002           2      164649           0
</event>
<event>
      5   9999  3.19816E-02  8.17842E+01 -1.00000E+00  1.27888E-01
      21    -1     0     0   511   501  0.000000000E+00  0.000000000E+00  8.778605396E+02  8.778605396E+02  0.000000000E+00  0.00000E+00  9.000E+00
      21    -1     0     0   501   502  0.000000000E+00  0.000000000E+00 -3.747021597E+02  3.747021597E+02  0.000000000E+00  0.00000E+00  9.000E+00
      25     1     1     2     0     0 -2.752316706E+02 -4.330673703E+02  1.212311858E+02  5.418688219E+02  1.250000000E+02  0.00000E+00  9.000E+00
      25     1     1     2     0     0  3.333798444E+02  3.755569435E+02  3.263403064E+02  6.118072687E+02  1.250000000E+02  0.00000E+00  9.000E+00
      21     1     1     2   511   502 -5.814817380E+01  5.751042677E+01  5.558688772E+01  9.888660875E+01  1.907348633E-06  0.00000E+00  9.000E+00
#rwgt            1           1   2.5450621941434593E-002           2      164684           0
</event>
<event>
      5   9999  3.19816E-02  5.46439E+01 -1.00000E+00  1.36910E-01
      21    -1     0     0   502   501  0.000000000E+00  0.000000000E+00  1.980237058E+02  1.980237058E+02  0.000000000E+00  0.00000E+00  9.000E+00
      21    -1     0     0   512   502  0.000000000E+00  0.000000000E+00 -1.157410938E+03  1.157410938E+03  0.000000000E+00  0.00000E+00  9.000E+00
      25     1     1     2     0     0 -9.261869916E+01  1.189881079E+01  1.443862086E+02  2.125845300E+02  1.250000000E+02  0.00000E+00  9.000E+00
      25     1     1     2     0     0  3.982960312E+01  2.217271912E+00 -2.114304094E+02  2.488355513E+02  1.250000000E+02  0.00000E+00  9.000E+00
      21     1     1     2   512   501  5.278909605E+01 -1.411608271E+01 -8.923430312E+02  8.940145624E+02  1.078959322E-05  0.00000E+00  9.000E+00
#rwgt            1           1   2.6790798757908706E-002           2      164836           0
</event>
<event>
      5   9999  3.19816E-02  1.10927E+01 -1.00000E+00  1.90691E-01
      21    -1     0     0   502   501  0.000000000E+00  0.000000000E+00  7.838389955E+02  7.838389955E+02  0.000000000E+00  0.00000E+00  9.000E+00
      21    -1     0     0   511   502  0.000000000E+00  0.000000000E+00 -1.985406626E+02  1.985406626E+02  0.000000000E+00  0.00000E+00  9.000E+00
      25     1     1     2     0     0 -3.440653610E+02  1.836290921E+01  2.063888073E+02  4.206417821E+02  1.250000000E+02  0.00000E+00  9.000E+00
      25     1     1     2     0     0  3.418811234E+02 -2.923842021E+01  3.976901522E+02  5.399259624E+02  1.250000000E+02  0.00000E+00  9.000E+00
      21     1     1     2   511   501  2.184237632E+00  1.087551100E+01 -1.878062665E+01  2.181191351E+01  3.371747881E-07  0.00000E+00  9.000E+00
#rwgt            1           1   2.8529286178964514E-002           2      164960           0
</event>
<event>
      5   9999  3.19816E-02  2.40592E+01 -1.00000E+00  1.60009E-01
      21    -1     0     0   512   501  0.000000000E+00  0.000000000E+00  1.163369180E+03  1.163369180E+03  0.000000000E+00  0.00000E+00  9.000E+00
      21    -1     0     0   501   502  0.000000000E+00  0.000000000E+00 -8.641422444E+02  8.641422444E+02  0.000000000E+00  0.00000E+00  9.000E+00
      25     1     1     2     0     0  6.915788976E+02  1.970579912E+01  8.446661892E+02  1.098979373E+03  1.250000000E+02  0.00000E+00  9.000E+00
      25     1     1     2     0     0 -6.713963836E+02 -3.280207439E+01 -5.729063745E+02  8.920178215E+02  1.250000000E+02  0.00000E+00  9.000E+00
      21     1     1     2   512   502 -2.018251401E+01  1.309627527E+01  2.746712131E+01  3.651423080E+01  3.371747881E-07  0.00000E+00  9.000E+00
#rwgt            1           1   3.2162747251793050E-002           2      165236           0
</event>
<event>
      5   9999  3.19816E-02  1.58964E+02 -1.00000E+00  1.15403E-01
      21    -1     0     0   502   511  0.000000000E+00  0.000000000E+00  1.173838402E+03  1.173838402E+03  0.000000000E+00  0.00000E+00  9.000E+00
      21    -1     0     0   501   502  0.000000000E+00  0.000000000E+00 -6.308235155E+02  6.308235155E+02  0.000000000E+00  0.00000E+00  9.000E+00
      25     1     1     2     0     0  8.037866592E+02 -4.225274719E+01  2.244267360E+00  8.145479267E+02  1.250000000E+02  0.00000E+00  9.000E+00
      25     1     1     2     0     0 -6.484254214E+02  7.590446497E+01  3.881343728E+02  7.697339191E+02  1.250000000E+02  0.00000E+00  9.000E+00
      21     1     1     2   501   511 -1.553612379E+02 -3.365171778E+01  1.526362466E+02  2.203800720E+02  2.697398305E-06  0.00000E+00  9.000E+00
#rwgt            1           1   3.0243763158366174E-002           2      165473           0
</event>
<event>
      5   9999  3.19816E-02  4.51915E+02 -1.00000E+00  1.00116E-01
       1    -1     0     0   502     0  0.000000000E+00  0.000000000E+00  6.354345420E+02  6.354345420E+02  0.000000000E+00  0.00000E+00  9.000E+00
      21    -1     0     0   501   502  0.000000000E+00  0.000000000E+00 -5.443316104E+02  5.443316104E+02  0.000000000E+00  0.00000E+00  9.000E+00
      25     1     1     2     0     0  4.291588428E+01 -4.376812339E+01 -1.131493864E+02  1.794023561E+02  1.250000000E+02  0.00000E+00  9.000E+00
      25     1     1     2     0     0  4.089604569E+02  4.968404364E+01  3.169576060E+02  5.346066624E+02  1.250000000E+02  0.00000E+00  9.000E+00
       1     1     1     2   501     0 -4.518763412E+02 -5.915920250E+00 -1.127052880E+02  4.657571339E+02  1.044697871E-05  0.00000E+00  9.000E+00
#rwgt            2          17   1.4256491781939744E-004           2      165602           0
</event>
<event>
      5   9999  3.19816E-02  2.92451E+01 -1.00000E+00  1.53813E-01
      21    -1     0     0   502   501  0.000000000E+00  0.000000000E+00  8.075397008E+02  8.075397008E+02  0.000000000E+00  0.00000E+00  9.000E+00
       1    -1     0     0   501     0  0.000000000E+00  0.000000000E+00 -4.215381843E+02  4.215381843E+02  0.000000000E+00  0.00000E+00  9.000E+00
      25     1     1     2     0     0  3.419130480E+02  6.143048120E+01  6.086648832E+02  7.118821366E+02  1.250000000E+02  0.00000E+00  9.000E+00
      25     1     1     2     0     0 -3.710976338E+02 -6.331129636E+01 -1.259926149E+02  4.161981656E+02  1.250000000E+02  0.00000E+00  9.000E+00
       1     1     1     2   502     0  2.918458576E+01  1.880815157E+00 -9.667075175E+01  1.009975829E+02  0.000000000E+00  0.00000E+00  9.000E+00
#rwgt            1           1   2.8866443179339799E-002           2      165621           0
</event>
<event>
      5   9999  3.19816E-02  5.25133E+01 -1.00000E+00  1.37871E-01
      21    -1     0     0   502   501  0.000000000E+00  0.000000000E+00  1.081609346E+03  1.081609346E+03  0.000000000E+00  0.00000E+00  9.000E+00
      21    -1     0     0   501   511  0.000000000E+00  0.000000000E+00 -1.894238817E+02  1.894238817E+02  0.000000000E+00  0.00000E+00  9.000E+00
      25     1     1     2     0     0  3.961100388E+02 -1.041404212E+02  6.273043326E+02  7.595288775E+02  1.250000000E+02  0.00000E+00  9.000E+00
      25     1     1     2     0     0 -3.437300075E+02  1.078793577E+02  2.531109703E+02  4.576881440E+02  1.250000000E+02  0.00000E+00  9.000E+00
      21     1     1     2   502   511 -5.238003130E+01 -3.738936517E+00  1.177016104E+01  5.381620589E+01  1.294944345E-06  0.00000E+00  9.000E+00
#rwgt            1           1   2.8412815863976433E-002           2      165771           0
</event>
<event>
      5   9999  3.19816E-02  5.41176E+02 -1.00000E+00  9.78853E-02
      21    -1     0     0   502   501  0.000000000E+00  0.000000000E+00  7.550076186E+02  7.550076186E+02  0.000000000E+00  0.00000E+00  9.000E+00
       2    -1     0     0   501     0  0.000000000E+00  0.000000000E+00 -1.207342999E+03  1.207342999E+03  0.000000000E+00  0.00000E+00  9.000E+00
      25     1     1     2     0     0 -2.210697528E+02  7.586473758E+01 -6.148576988E+02  6.695537945E+02  1.250000000E+02  0.00000E+00  9.000E+00
      25     1     1     2     0     0  4.930751958E+02  3.919857387E+02  3.356388699E+02  7.246063890E+02  1.250000000E+02  0.00000E+00  9.000E+00
       2     1     1     2   502     0 -2.720054430E+02 -4.678504763E+02 -1.731165517E+02  5.681904343E+02  7.136645101E-06  0.00000E+00  9.000E+00
#rwgt            1           1   2.2730488765788918E-002           2      165887           0
</event>
<event>
      5   9999  3.19816E-02  3.95051E+01 -1.00000E+00  1.45176E-01
      21    -1     0     0   502   511  0.000000000E+00  0.000000000E+00  6.306555227E+01  6.306555227E+01  0.000000000E+00  0.00000E+00  9.000E+00
      21    -1     0     0   501   502  0.000000000E+00  0.000000000E+00 -2.471573411E+03  2.471573411E+03  0.000000000E+00  0.00000E+00  9.000E+00
      25     1     1     2     0     0 -2.867878421E+02 -1.394373548E+02 -1.150119968E+03  1.200037909E+03  1.250000000E+02  0.00000E+00  9.000E+00
      25     1     1     2     0     0  2.622895422E+02  1.084455818E+02 -1.257402208E+03  1.295083612E+03  1.250000000E+02  0.00000E+00  9.000E+00
      21     1     1     2   501   511  2.449829989E+01  3.099177302E+01 -9.856824877E-01  3.951744251E+01  1.724097192E-06  0.00000E+00  9.000E+00
#rwgt            1           1   6.5511532565503475E-002           2      165928           0
</event>
<event>
      5   9999  3.19816E-02  3.25949E+01 -1.00000E+00  1.50579E-01
      21    -1     0     0   512   501  0.000000000E+00  0.000000000E+00  4.075552742E+02  4.075552742E+02  0.000000000E+00  0.00000E+00  9.000E+00
      21    -1     0     0   501   502  0.000000000E+00  0.000000000E+00 -1.971617302E+02  1.971617302E+02  0.000000000E+00  0.00000E+00  9.000E+00
      25     1     1     2     0     0 -1.193887235E+02  1.946652183E+02  4.216527966E+01  2.637254734E+02  1.250000000E+02  0.00000E+00  9.000E+00
      25     1     1     2     0     0  9.263766049E+01 -2.132879274E+02  1.503800875E+02  3.038299637E+02  1.250000000E+02  0.00000E+00  9.000E+00
      21     1     1     2   512   502  2.675106305E+01  1.862270910E+01  1.784817686E+01  3.716156731E+01  6.307962682E-07  0.00000E+00  9.000E+00
#rwgt            1           1   2.2515411720246022E-002           2      166061           0
</event>
<event>
      5   9999  3.19816E-02  2.90947E+02 -1.00000E+00  1.06026E-01
      21    -1     0     0   502   501  0.000000000E+00  0.000000000E+00  5.776423241E+02  5.776423241E+02  0.000000000E+00  0.00000E+00  9.000E+00
       1    -1     0     0   501     0  0.000000000E+00  0.000000000E+00 -2.833039956E+03  2.833039956E+03  0.000000000E+00  0.00000E+00  9.000E+00
      25     1     1     2     0     0  8.743187285E+02  1.419551307E+02 -2.851142350E+02  9.388821146E+02  1.250000000E+02  0.00000E+00  9.000E+00
      25     1     1     2     0     0 -1.142696688E+03 -2.543091259E+02 -1.739406125E+03  2.100377947E+03  1.250000000E+02  0.00000E+00  9.000E+00
       1     1     1     2   502     0  2.683779598E+02  1.123539952E+02 -2.308772714E+02  3.714222180E+02  4.672030912E-06  0.00000E+00  9.000E+00
#rwgt            1           1   2.6465217801866048E-002           2      166175           0
</event>
<event>
      5   9999  3.19816E-02  5.74098E+01 -1.00000E+00  1.35736E-01
       2    -1     0     0   502     0  0.000000000E+00  0.000000000E+00  3.204271186E+03  3.204271186E+03  0.000000000E+00  0.00000E+00  9.000E+00
      21    -1     0     0   501   502  0.000000000E+00  0.000000000E+00 -8.697091182E+01  8.697091182E+01  0.000000000E+00  0.00000E+00  9.000E+00
      25     1     1     2     0     0 -2.172047245E+02 -2.903387996E+02  7.642618348E+02  8.550997971E+02  1.250000000E+02  0.00000E+00  9.000E+00
      25     1     1     2     0     0  1.601952570E+02  2.971070095E+02  7.482177260E+02  8.302950445E+02  1.250000000E+02  0.00000E+00  9.000E+00
       2     1     1     2   501     0  5.700946754E+01 -6.768209890E+00  1.604820713E+03  1.605847256E+03  0.000000000E+00  0.00000E+00  9.000E+00
#rwgt            1           1   2.9158337628336931E-002           2      166254           0
</event>
<event>
      5   9999  3.19816E-02  1.45761E+01 -1.00000E+00  1.78564E-01
      21    -1     0     0   502   511  0.000000000E+00  0.000000000E+00  3.212431048E+03  3.212431048E+03  0.000000000E+00  0.00000E+00  9.000E+00
      21    -1     0     0   501   502  0.000000000E+00  0.000000000E+00 -7.587327731E+01  7.587327731E+01  0.000000000E+00  0.00000E+00  9.000E+00
      25     1     1     2     0     0  7.809470483E+01  4.313519435E+02  1.724151975E+03  1.783392362E+03  1.250000000E+02  0.00000E+00  9.000E+00
      25     1     1     2     0     0 -8.946969280E+01 -4.404663968E+02  1.135184812E+03  1.227308042E+03  1.250000000E+02  0.00000E+00  9.000E+00
      21     1     1     2   501   511  1.137498797E+01  9.114453301E+00  2.772209834E+02  2.776039215E+02  0.000000000E+00  0.00000E+00  9.000E+00
#rwgt            1           1   5.1123716805411730E-002           2      166337           0
</event>
<event>
      5   9999  3.19816E-02  1.90027E+02 -1.00000E+00  1.12463E-01
      21    -1     0     0   502   501  0.000000000E+00  0.000000000E+00  2.384203124E+03  2.384203124E+03  0.000000000E+00  0.00000E+00  9.000E+00
      21    -1     0     0   501   512  0.000000000E+00  0.000000000E+00 -3.088520473E+02  3.088520473E+02  0.000000000E+00  0.00000E+00  9.000E+00
      25     1     1     2     0     0 -3.816273256E+02 -3.960890287E+02  1.957453782E+03  2.037099959E+03  1.250000000E+02  0.00000E+00  9.000E+00
      25     1     1     2     0     0  1.924125455E+02  3.785388660E+02  2.223673890E+01  4.432084536E+02  1.250000000E+02  0.00000E+00  9.000E+00
      21     1     1     2   502   512  1.892147801E+02  1.755016267E+01  9.566055514E+01  2.127467580E+02  2.697398305E-06  0.00000E+00  9.000E+00
#rwgt            1           1   2.7581429830496669E-002           2      166558           0
</event>
<event>
      5   9999  3.19816E-02  5.74078E+01 -1.00000E+00  1.35736E-01
      21    -1     0     0   502   501  0.000000000E+00  0.000000000E+00  7.046851254E+02  7.046851254E+02  0.000000000E+00  0.00000E+00  9.000E+00
       2    -1     0     0   501     0  0.000000000E+00  0.000000000E+00 -2.524525999E+03  2.524525999E+03  0.000000000E+00  0.00000E+00  9.000E+00
      25     1     1     2     0     0  2.101718567E+02  5.984597458E+01 -1.873298848E+01  2.524473705E+02  1.250000000E+02  0.00000E+00  9.000E+00
      25     1     1     2     0     0 -2.593358203E+02 -3.020547983E+01  5.518201183E+02  6.231355243E+02  1.250000000E+02  0.00000E+00  9.000E+00
       2     1     1     2   502     0  4.916396364E+01 -2.964049475E+01 -2.352928003E+03  2.353628229E+03  4.315837288E-05  0.00000E+00  9.000E+00
#rwgt            1           1   3.2773735401148502E-002           2      166646           0
</event>
<event>
      5   9999  3.19816E-02  4.73857E+01 -1.00000E+00  1.40419E-01
      21    -1     0     0   502   511  0.000000000E+00  0.000000000E+00  1.054939879E+02  1.054939879E+02  0.000000000E+00  0.00000E+00  9.000E+00
      21    -1     0     0   501   502  0.000000000E+00  0.000000000E+00 -8.447978573E+02  8.447978573E+02  0.000000000E+00  0.00000E+00  9.000E+00
      25     1     1     2     0     0 -9.536037627E+01 -7.173973270E+01 -6.791744600E+02  7.008160512E+02  1.250000000E+02  0.00000E+00  9.000E+00
      25     1     1     2     0     0  4.856178535E+01  6.430355754E+01 -1.066981958E+02  1.830374265E+02  1.250000000E+02  0.00000E+00  9.000E+00
      21     1     1     2   501   511  4.679859091E+01  7.436175161E+00  4.656878635E+01  6.643836749E+01  1.507891493E-06  0.00000E+00  9.000E+00
#rwgt            1           1   3.2591946048364039E-002           2      166728           0
</event>
<event>
      5   9999  3.19816E-02  3.29210E+01 -1.00000E+00  1.50289E-01
      21    -1     0     0   502   512  0.000000000E+00  0.000000000E+00  8.719237449E+02  8.719237449E+02  0.000000000E+00  0.00000E+00  9.000E+00
      21    -1     0     0   501   502  0.000000000E+00  0.000000000E+00 -3.535683407E+02  3.535683407E+02  0.000000000E+00  0.00000E+00  9.000E+00
      25     1     1     2     0     0  3.411779364E+01 -5.099852409E+02  1.684425177E+02  5.524914946E+02  1.250000000E+02  0.00000E+00  9.000E+00
      25     1     1     2     0     0 -2.263192103E+01  4.791328627E+02  2.259773554E+02  5.447671696E+02  1.250000000E+02  0.00000E+00  9.000E+00
      21     1     1     2   501   512 -1.148587261E+01  3.085237824E+01  1.239355311E+02  1.282334214E+02  1.348699152E-06  0.00000E+00  9.000E+00
#rwgt            1           1   3.2157100611598689E-002           2      166830           0
</event>
<event>
      5   9999  3.19816E-02  4.33155E+01 -1.00000E+00  1.42727E-01
      21    -1     0     0   502   511  0.000000000E+00  0.000000000E+00  2.636523929E+02  2.636523929E+02  0.000000000E+00  0.00000E+00  9.000E+00
      21    -1     0     0   501   502  0.000000000E+00  0.000000000E+00 -6.705133853E+02  6.705133853E+02  0.000000000E+00  0.00000E+00  9.000E+00
      25     1     1     2     0     0 -2.198109409E+02  2.864304089E+02 -2.746959416E+02  4.705763373E+02  1.250000000E+02  0.00000E+00  9.000E+00
      25     1     1     2     0     0  2.575138400E+02 -2.651061616E+02 -1.482696696E+02  4.173769874E+02  1.250000000E+02  0.00000E+00  9.000E+00
      21     1     1     2   501   511 -3.770289904E+01 -2.132424736E+01  1.610461877E+01  4.621245360E+01  2.384185791E-07  0.00000E+00  9.000E+00
#rwgt            1           1   2.6020041252514670E-002           2      166965           0
</event>
<event>
      5   9999  3.19816E-02  1.78731E+01 -1.00000E+00  1.70501E-01
      21    -1     0     0   502   501  0.000000000E+00  0.000000000E+00  4.365478328E+02  4.365478328E+02  0.000000000E+00  0.00000E+00  9.000E+00
      21    -1     0     0   501   512  0.000000000E+00  0.000000000E+00 -8.669489132E+01  8.669489132E+01  0.000000000E+00  0.00000E+00  9.000E+00
      25     1     1     2     0     0  6.529454245E+01  7.375307171E+01  2.711913338E+02  3.144401889E+02  1.250000000E+02  0.00000E+00  9.000E+00
      25     1     1     2     0     0 -6.885188915E+01 -9.126856292E+01  8.539320632E+01  1.897038031E+02  1.250000000E+02  0.00000E+00  9.000E+00
      21     1     1     2   502   512  3.557346698E+00  1.751549121E+01 -6.731598670E+00  1.909873212E+01  4.460403188E-07  0.00000E+00  9.000E+00
#rwgt            1           1   3.4779621125153232E-002           2      167087           0
</event>
<event>
      5   9999  3.19816E-02  1.08539E+01 -1.00000E+00  1.91732E-01
      21    -1     0     0   502   511  0.000000000E+00  0.000000000E+00  1.020864562E+03  1.020864562E+03  0.000000000E+00  0.00000E+00  9.000E+00
      21    -1     0     0   501   502  0.000000000E+00  0.000000000E+00 -4.271824494E+01  4.271824494E+01  0.000000000E+00  0.00000E+00  9.000E+00
      25     1     1     2     0     0 -1.106273868E+02 -7.908382178E+01  2.583251163E+02  3.175681585E+02  1.250000000E+02  0.00000E+00  9.000E+00
      25     1     1     2     0     0  1.169952993E+02  7.029428881E+01  6.778259269E+02  7.026394341E+02  1.250000000E+02  0.00000E+00  9.000E+00
      21     1     1     2   501   511 -6.367912421E+00  8.789532966E+00  4.199527418E+01  4.337521472E+01  4.768371582E-07  0.00000E+00  9.000E+00
#rwgt            1           1   3.1608101983412948E-002           2      167202           0
</event>
<event>
      5   9999  3.19816E-02  1.60871E+02 -1.00000E+00  1.15202E-01
      21    -1     0     0   502   501  0.000000000E+00  0.000000000E+00  6.057419256E+02  6.057419256E+02  0.000000000E+00  0.00000E+00  9.000E+00
      21    -1     0     0   501   512  0.000000000E+00  0.000000000E+00 -2.303190396E+02  2.303190396E+02  0.000000000E+00  0.00000E+00  9.000E+00
      25     1     1     2     0     0 -1.586984306E+02  1.699823316E+01  2.825613563E+02  3.477643626E+02  1.250000000E+02  0.00000E+00  9.000E+00
      25     1     1     2     0     0  2.786693169E+02  9.017645260E+01  5.804878591E+01  3.237020888E+02  1.250000000E+02  0.00000E+00  9.000E+00
      21     1     1     2   502   512 -1.199708863E+02 -1.071746858E+02  3.481274380E+01  1.645945137E+02  2.567846683E-06  0.00000E+00  9.000E+00
#rwgt            1           1   3.0405913220155109E-002           2      167372           0
</event>
<event>
      5   9999  3.19816E-02  6.22933E+01 -1.00000E+00  1.33839E-01
      21    -1     0     0   502   501  0.000000000E+00  0.000000000E+00  3.265493082E+02  3.265493082E+02  0.000000000E+00  0.00000E+00  9.000E+00
      21    -1     0     0   501   511  0.000000000E+00  0.000000000E+00 -1.391340594E+03  1.391340594E+03  0.000000000E+00  0.00000E+00  9.000E+00
      25     1     1     2     0     0  4.771431285E+01 -1.202174164E+02  2.844250683E+02  3.365286055E+02  1.250000000E+02  0.00000E+00  9.000E+00
      25     1     1     2     0     0 -5.246703122E+01  5.810572012E+01 -1.279078449E+03  1.287554171E+03  1.250000000E+02  0.00000E+00  9.000E+00
      21     1     1     2   502   511  4.752718366E+00  6.211169628E+01 -7.013790559E+01  9.380712631E+01  1.348699152E-06  0.00000E+00  9.000E+00
#rwgt            2          11   6.5115307615427366E-003           2      167575           0
</event>
<event>
      5   9999  3.19816E-02  2.27894E+02 -1.00000E+00  1.09622E-01
      21    -1     0     0   502   501  0.000000000E+00  0.000000000E+00  1.519375478E+03  1.519375478E+03  0.000000000E+00  0.00000E+00  9.000E+00
       2    -1     0     0   501     0  0.000000000E+00  0.000000000E+00 -9.695393783E+02  9.695393783E+02  0.000000000E+00  0.00000E+00  9.000E+00
      25     1     1     2     0     0 -7.030863636E+02 -6.869370628E+01  1.199490358E+03  1.397659250E+03  1.250000000E+02  0.00000E+00  9.000E+00
      25     1     1     2     0     0  5.242274984E+02  2.099208419E+02 -2.476649770E+02  6.291614823E+02  1.250000000E+02  0.00000E+00  9.000E+00
       2     1     1     2   502     0  1.788588652E+02 -1.412271356E+02 -4.019892812E+02  4.620941243E+02  0.000000000E+00  0.00000E+00  9.000E+00
#rwgt            2          13   1.1296793953584408E-003           2      167610           0
</event>
<event>
      5   9999  3.19816E-02  2.26532E+02 -1.00000E+00  1.09713E-01
      -1    -1     0     0     0   501  0.000000000E+00  0.000000000E+00  3.679965150E+02  3.679965150E+02  0.000000000E+00  0.00000E+00  9.000E+00
      21    -1     0     0   501   502  0.000000000E+00  0.000000000E+00 -2.708005034E+02  2.708005034E+02  0.000000000E+00  0.00000E+00  9.000E+00
      25     1     1     2     0     0  5.122286870E+01  2.682087112E+01  7.494927343E+01  1.567977519E+02  1.250000000E+02  0.00000E+00  9.000E+00
      25     1     1     2     0     0  1.500954566E+02 -1.306837914E+02 -5.731398968E+01  2.419024449E+02  1.250000000E+02  0.00000E+00  9.000E+00
      -1     1     1     2     0   502 -2.013183253E+02  1.038629202E+02  7.956072789E+01  2.400968216E+02  0.000000000E+00  0.00000E+00  9.000E+00
#rwgt            1           1   2.9229849487624041E-002           2      167629           0
</event>
<event>
      5   9999  3.19816E-02  4.62927E+01 -1.00000E+00  1.41012E-01
      21    -1     0     0   502   501  0.000000000E+00  0.000000000E+00  5.329707568E+02  5.329707568E+02  0.000000000E+00  0.00000E+00  9.000E+00
      21    -1     0     0   511   502  0.000000000E+00  0.000000000E+00 -9.666087033E+01  9.666087033E+01  0.000000000E+00  0.00000E+00  9.000E+00
      25     1     1     2     0     0  4.798767941E+01 -8.471066832E+01  4.128643308E+02  4.422224218E+02  1.250000000E+02  0.00000E+00  9.000E+00
      25     1     1     2     0     0 -8.850850450E+00  5.998576201E+01  2.465353636E+01  1.411007656E+02  1.250000000E+02  0.00000E+00  9.000E+00
      21     1     1     2   511   501 -3.913682896E+01  2.472490631E+01 -1.207980684E+00  4.630843973E+01  3.905696399E-07  0.00000E+00  9.000E+00
#rwgt            1           1   2.8520089301475801E-002           2      167683           0
</event>
<event>
      5   9999  3.19816E-02  6.23714E+00 -1.00000E+00  2.22889E-01
      21    -1     0     0   502   512  0.000000000E+00  0.000000000E+00  3.153577328E+02  3.153577328E+02  0.000000000E+00  0.00000E+00  9.000E+00
      21    -1     0     0   501   502  0.000000000E+00  0.000000000E+00 -2.329019603E+02  2.329019603E+02  0.000000000E+00  0.00000E+00  9.000E+00
      25     1     1     2     0     0 -1.279997230E+02 -3.647392298E+01  2.189206012E+02  2.850710539E+02  1.250000000E+02  0.00000E+00  9.000E+00
      25     1     1     2     0     0  1.291085396E+02  4.261171341E+01 -1.565790023E+02  2.421296287E+02  1.250000000E+02  0.00000E+00  9.000E+00
      21     1     1     2   501   512 -1.108816622E+00 -6.137790427E+00  2.011417362E+01  2.105901056E+01  0.000000000E+00  0.00000E+00  9.000E+00
#rwgt            1           1   2.8839931933855714E-002           2      167833           0
</event>
<event>
      5   9999  3.19816E-02  1.19895E+01 -1.00000E+00  1.87068E-01
      21    -1     0     0   511   501  0.000000000E+00  0.000000000E+00  2.433961721E+03  2.433961721E+03  0.000000000E+00  0.00000E+00  9.000E+00
      21    -1     0     0   501   502  0.000000000E+00  0.000000000E+00 -4.142044774E+02  4.142044774E+02  0.000000000E+00  0.00000E+00  9.000E+00
      25     1     1     2     0     0  2.050880029E+02 -2.406596498E+02  1.933835141E+03  1.963497265E+03  1.250000000E+02  0.00000E+00  9.000E+00
      25     1     1     2     0     0 -1.962112736E+02  2.326004155E+02 -3.315248572E+02  4.670498348E+02  1.250000000E+02  0.00000E+00  9.000E+00
      21     1     1     2   511   502 -8.876729279E+00  8.059234249E+00  4.174469595E+02  4.176190987E+02  5.394796609E-06  0.00000E+00  9.000E+00
#rwgt            1           1   2.9154293436004959E-002           2      168043           0
</event>
<event>
      5   9999  3.19816E-02  2.69033E+02 -1.00000E+00  1.07153E-01
       2    -1     0     0   502     0  0.000000000E+00  0.000000000E+00  2.598574892E+03  2.598574892E+03  0.000000000E+00  0.00000E+00  9.000E+00
      21    -1     0     0   501   502  0.000000000E+00  0.000000000E+00 -1.388932055E+02  1.388932055E+02  0.000000000E+00  0.00000E+00  9.000E+00
      25     1     1     2     0     0  1.567396249E+02  2.527176611E+02  2.802253420E+02  4.272993898E+02  1.250000000E+02  0.00000E+00  9.000E+00
      25     1     1     2     0     0  2.217207311E+00 -4.697699511E+02  1.580396907E+03  1.653471531E+03  1.250000000E+02  0.00000E+00  9.000E+00
       2     1     1     2   501     0 -1.589568323E+02  2.170522900E+02  5.990594380E+02  6.566971763E+02  7.629394531E-06  0.00000E+00  9.000E+00
#rwgt            1           1   2.6898091744779716E-002           2      168367           0
</event>
<event>
      5   9999  3.19816E-02  4.12764E+02 -1.00000E+00  1.01277E-01
      21    -1     0     0   502   511  0.000000000E+00  0.000000000E+00  1.749134540E+03  1.749134540E+03  0.000000000E+00  0.00000E+00  9.000E+00
      21    -1     0     0   501   502  0.000000000E+00  0.000000000E+00 -2.740062561E+02  2.740062561E+02  0.000000000E+00  0.00000E+00  9.000E+00
      25     1     1     2     0     0  4.743681881E+01 -1.087114647E+01  1.577955637E+02  2.071059476E+02  1.250000000E+02  0.00000E+00  9.000E+00
      25     1     1     2     0     0  2.900866199E+02  2.484670013E+02 -3.375814305E+01  4.032997769E+02  1.250000000E+02  0.00000E+00  9.000E+00
      21     1     1     2   501   511 -3.375234387E+02 -2.375958549E+02  1.351090863E+03  1.412735071E+03  1.525878906E-05  0.00000E+00  9.000E+00
#rwgt            1           1   2.5063135561348336E-002           2      168439           0
</event>
<event>
      5   9999  3.19816E-02  1.77690E+02 -1.00000E+00  1.13551E-01
       2    -1     0     0   502     0  0.000000000E+00  0.000000000E+00  1.762220002E+03  1.762220002E+03  0.000000000E+00  0.00000E+00  9.000E+00
      21    -1     0     0   501   502  0.000000000E+00  0.000000000E+00 -1.031076783E+02  1.031076783E+02  0.000000000E+00  0.00000E+00  9.000E+00
      25     1     1     2     0     0 -5.364575177E+01 -9.399309434E+01  1.505039683E+00  1.653476145E+02  1.250000000E+02  0.00000E+00  9.000E+00
      25     1     1     2     0     0 -9.577087314E+01 -2.175829278E+00  1.178637362E+03  1.189112201E+03  1.250000000E+02  0.00000E+00  9.000E+00
       2     1     1     2   501     0  1.494166249E+02  9.616892362E+01  4.789699221E+02  5.108678655E+02  5.394796609E-06  0.00000E+00  9.000E+00
#rwgt            1           1   2.9381507178995486E-002           2      168471           0
</event>
<event>
      5   9999  3.19816E-02  3.26676E+01 -1.00000E+00  1.50514E-01
      21    -1     0     0   502   501  0.000000000E+00  0.000000000E+00  3.381047264E+02  3.381047264E+02  0.000000000E+00  0.00000E+00  9.000E+00
      21    -1     0     0   501   511  0.000000000E+00  0.000000000E+00 -7.760705511E+02  7.760705511E+02  0.000000000E+00  0.00000E+00  9.000E+00
      25     1     1     2     0     0  8.435108932E+01 -3.361228004E+01  3.042542714E+02  3.412338690E+02  1.250000000E+02  0.00000E+00  9.000E+00
      25     1     1     2     0     0 -1.156720938E+02  4.289477268E+01 -6.839467629E+02  7.061360841E+02  1.250000000E+02  0.00000E+00  9.000E+00
      21     1     1     2   502   511  3.132100452E+01 -9.282492639E+00 -5.827333329E+01  6.680532438E+01  6.743495762E-07  0.00000E+00  9.000E+00
#rwgt            1           1   3.0389583282590532E-002           2      168512           0
</event>
<event>
      5   9999  3.19816E-02  4.70055E+01 -1.00000E+00  1.40623E-01
      21    -1     0     0   502   501  0.000000000E+00  0.000000000E+00  1.435064684E+03  1.435064684E+03  0.000000000E+00  0.00000E+00  9.000E+00
      21    -1     0     0   501   512  0.000000000E+00  0.000000000E+00 -2.697356789E+02  2.697356789E+02  0.000000000E+00  0.00000E+00  9.000E+00
      25     1     1     2     0     0 -1.802794421E+02 -2.258463565E+02  1.297905750E+03  1.335549171E+03  1.250000000E+02  0.00000E+00  9.000E+00
      25     1     1     2     0     0  1.768126810E+02  1.789688602E+02 -6.740444704E+01  2.888960654E+02  1.250000000E+02  0.00000E+00  9.000E+00
      21     1     1     2   502   512  3.466761100E+00  4.687749629E+01 -6.517229705E+01  8.035512674E+01  9.536743164E-07  0.00000E+00  9.000E+00
#rwgt            1           1   2.6959925920531976E-002           2      168621           0
</event>
<event>
      5   9999  3.19816E-02  1.01951E+02 -1.00000E+00  1.23452E-01
      21    -1     0     0   502   501  0.000000000E+00  0.000000000E+00  3.020918452E+02  3.020918452E+02  0.000000000E+00  0.00000E+00  9.000E+00
       1    -1     0     0   501     0  0.000000000E+00  0.000000000E+00 -1.118151776E+03  1.118151776E+03  0.000000000E+00  0.00000E+00  9.000E+00
      25     1     1     2     0     0  2.315317704E+02 -2.219241200E+01  2.049040244E+02  3.342306435E+02  1.250000000E+02  0.00000E+00  9.000E+00
      25     1     1     2     0     0 -1.491151435E+02 -3.782024352E+01 -3.112141257E+02  3.689782227E+02  1.250000000E+02  0.00000E+00  9.000E+00
       1     1     1     2   502     0 -8.241662691E+01  6.001265551E+01 -7.097498298E+02  7.170347552E+02  7.629394531E-06  0.00000E+00  9.000E+00
#rwgt            1           1   2.6404826603453141E-002           2      168778           0
</event>
<event>
      5   9999  3.19816E-02  1.18615E+02 -1.00000E+00  1.20583E-01
      21    -1     0     0   502   511  0.000000000E+00  0.000000000E+00  5.117944023E+02  5.117944023E+02  0.000000000E+00  0.00000E+00  9.000E+00
      21    -1     0     0   501   502  0.000000000E+00  0.000000000E+00 -5.284009396E+02  5.284009396E+02  0.000000000E+00  0.00000E+00  9.000E+00
      25     1     1     2     0     0  2.706737566E+02  2.185536091E+02 -2.510438104E+02  4.468533957E+02  1.250000000E+02  0.00000E+00  9.000E+00
      25     1     1     2     0     0 -3.691108730E+02 -1.523740191E+02  2.230805576E+02  4.741841557E+02  1.250000000E+02  0.00000E+00  9.000E+00
      21     1     1     2   501   511  9.843711647E+01 -6.617959002E+01  1.135671546E+01  1.191577904E+02  4.129530925E-07  0.00000E+00  9.000E+00
#rwgt            1           1   3.0284837962354788E-002           2      168872           0
</event>
<event>
      5   9999  3.19816E-02  1.86973E+01 -1.00000E+00  1.68819E-01
      21    -1     0     0   502   501  0.000000000E+00  0.000000000E+00  1.634461634E+02  1.634461634E+02  0.000000000E+00  0.00000E+00  9.000E+00
      21    -1     0     0   501   512  0.000000000E+00  0.000000000E+00 -5.813282710E+02  5.813282710E+02  0.000000000E+00  0.00000E+00  9.000E+00
      25     1     1     2     0     0 -2.584359468E+02 -6.548348213E+01 -1.136585144E+02  3.156271264E+02  1.250000000E+02  0.00000E+00  9.000E+00
      25     1     1     2     0     0  2.401464161E+02  6.936727986E+01 -2.624883639E+02  3.834152604E+02  1.250000000E+02  0.00000E+00  9.000E+00
      21     1     1     2   502   512  1.828953062E+01 -3.883797726E+00 -4.173522930E+01  4.573204762E+01  0.000000000E+00  0.00000E+00  9.000E+00
#rwgt            1           1   2.8500108784738073E-002           2      168972           0
</event>
<event>
      5   9999  3.19816E-02  3.71332E+01 -1.00000E+00  1.46872E-01
      21    -1     0     0   502   501  0.000000000E+00  0.000000000E+00  5.297933120E+02  5.297933120E+02  0.000000000E+00  0.00000E+00  9.000E+00
      21    -1     0     0   511   502  0.000000000E+00  0.000000000E+00 -3.318708867E+02  3.318708867E+02  0.000000000E+00  0.00000E+00  9.000E+00
      25     1     1     2     0     0 -6.832145503E+01 -2.358379273E+02  3.511805189E+02  4.463631996E+02  1.250000000E+02  0.00000E+00  9.000E+00
      25     1     1     2     0     0  7.996213790E+01  2.005765091E+02  8.193933489E+00  2.496337719E+02  1.250000000E+02  0.00000E+00  9.000E+00
      21     1     1     2   511   501 -1.164068288E+01  3.526141818E+01 -1.614520271E+02  1.656672272E+02  1.907348633E-06  0.00000E+00  9.000E+00
#rwgt            1           1   2.7735769261838836E-002           2      169150           0
</event>
<event>
      5   9999  3.19816E-02  1.69504E+01 -1.00000E+00  1.72524E-01
      21    -1     0     0   502   501  0.000000000E+00  0.000000000E+00  1.599369042E+02  1.599369042E+02  0.000000000E+00  0.00000E+00  9.000E+00
      21    -1     0     0   501   512  0.000000000E+00  0.000000000E+00 -3.547145997E+02  3.547145997E+02  0.000000000E+00  0.00000E+00  9.000E+00
      25     1     1     2     0     0  1.856731969E+02 -9.637199987E+00 -5.664108282E+01  2.310857502E+02  1.250000000E+02  0.00000E+00  9.000E+00
      25     1     1     2     0     0 -1.904993263E+02  2.588606253E+01 -1.202784120E+02  2.589439668E+02  1.250000000E+02  0.00000E+00  9.000E+00
      21     1     1     2   502   512  4.826129359E+00 -1.624886254E+01 -1.785820064E+01  2.462178687E+01  2.384185791E-07  0.00000E+00  9.000E+00
#rwgt            1           1   2.7467091059354239E-002           2      169271           0
</event>
<event>
      5   9999  3.19816E-02  1.64731E+01 -1.00000E+00  1.73635E-01
      21    -1     0     0   502   501  0.000000000E+00  0.000000000E+00  7.800871404E+02  7.800871404E+02  0.000000000E+00  0.00000E+00  9.000E+00
      21    -1     0     0   501   511  0.000000000E+00  0.000000000E+00 -4.387047421E+01  4.387047421E+01  0.000000000E+00  0.00000E+00  9.000E+00
      25     1     1     2     0     0 -8.828108716E+01 -7.824946893E+01  4.862240708E+02  5.157086162E+02  1.250000000E+02  0.00000E+00  9.000E+00
      25     1     1     2     0     0  7.188791706E+01  7.662912911E+01  2.193357210E+02  2.734466210E+02  1.250000000E+02  0.00000E+00  9.000E+00
      21     1     1     2   502   511  1.639317009E+01  1.620339824E+00  3.065687436E+01  3.480237739E+01  3.371747881E-07  0.00000E+00  9.000E+00
#rwgt            1           1   2.9042309113740269E-002           2      169472           0
</event>
<event>
      5   9999  3.19816E-02  3.07948E+01 -1.00000E+00  1.52255E-01
      21    -1     0     0   502   501  0.000000000E+00  0.000000000E+00  6.424191787E+02  6.424191787E+02  0.000000000E+00  0.00000E+00  9.000E+00
      21    -1     0     0   512   502  0.000000000E+00  0.000000000E+00 -7.088953993E+02  7.088953993E+02  0.000000000E+00  0.00000E+00  9.000E+00
      25     1     1     2     0     0  1.049649773E+02  3.487217895E+02 -1.209220235E+02  4.035736224E+02  1.250000000E+02  0.00000E+00  9.000E+00
      25     1     1     2     0     0 -1.336382749E+02 -3.374896671E+02  4.268334975E+02  5.740821357E+02  1.250000000E+02  0.00000E+00  9.000E+00
      21     1     1     2   512   501  2.867329760E+01 -1.123212239E+01 -3.723876946E+02  3.736588199E+02  5.394796609E-06  0.00000E+00  9.000E+00
#rwgt            1           1   2.7310102989385399E-002           2      169596           0
</event>
<event>
      5   9999  3.19816E-02  1.61511E+02 -1.00000E+00  1.15135E-01
      21    -1     0     0   502   501  0.000000000E+00  0.000000000E+00  5.047136117E+02  5.047136117E+02  0.000000000E+00  0.00000E+00  9.000E+00
      21    -1     0     0   501   511  0.000000000E+00  0.000000000E+00 -5.452219139E+02  5.452219139E+02  0.000000000E+00  0.00000E+00  9.000E+00
      25     1     1     2     0     0  1.902378095E+02  2.516777829E+02  3.429656717E+02  4.824754735E+02  1.250000000E+02  0.00000E+00  9.000E+00
      25     1     1     2     0     0 -7.726674860E+01 -1.362503116E+02 -3.487985148E+02  4.022681963E+02  1.250000000E+02  0.00000E+00  9.000E+00
      21     1     1     2   502   511 -1.129710609E+02 -1.154274714E+02 -3.467545904E+01  1.651918558E+02  3.090257978E-06  0.00000E+00  9.000E+00
#rwgt            1           1   2.6764872442180187E-002           2      169784           0
</event>
<event>
      5   9999  3.19816E-02  2.27339E+02 -1.00000E+00  1.09659E-01
      21    -1     0     0   502   501  0.000000000E+00  0.000000000E+00  1.508552492E+03  1.508552492E+03  0.000000000E+00  0.00000E+00  9.000E+00
      21    -1     0     0   501   512  0.000000000E+00  0.000000000E+00 -5.825199824E+02  5.825199824E+02  0.000000000E+00  0.00000E+00  9.000E+00
      25     1     1     2     0     0  5.782586499E+02  4.360268525E+02  5.395429273E+02  9.117203807E+02  1.250000000E+02  0.00000E+00  9.000E+00
      25     1     1     2     0     0 -4.797954396E+02 -2.311170183E+02  6.379427131E+02  8.403657806E+02  1.250000000E+02  0.00000E+00  9.000E+00
      21     1     1     2   502   512 -9.846321030E+01 -2.049098342E+02 -2.514531304E+02  3.389863135E+02  5.394796609E-06  0.00000E+00  9.000E+00
#rwgt            2          11   4.4170348199932498E-003           2      169861           0
</event>
<event>
      5   9999  3.19816E-02  1.61504E+02 -1.00000E+00  1.15136E-01
      21    -1     0     0   502   511  0.000000000E+00  0.000000000E+00  2.089817030E+02  2.089817030E+02  0.000000000E+00  0.00000E+00  9.000E+00
      21    -1     0     0   501   502  0.000000000E+00  0.000000000E+00 -1.027209854E+03  1.027209854E+03  0.000000000E+00  0.00000E+00  9.000E+00
      25     1     1     2     0     0 -2.264582853E+02 -8.904203763E+00 -4.777342375E+02  5.433393428E+02  1.250000000E+02  0.00000E+00  9.000E+00
      25     1     1     2     0     0  3.404408785E+02  1.233227857E+02 -3.654613389E+02  5.294294017E+02  1.250000000E+02  0.00000E+00  9.000E+00
      21     1     1     2   501   511 -1.139825932E+02 -1.144185820E+02  2.496742490E+01  1.634228128E+02  2.611744678E-06  0.00000E+00  9.000E+00
#rwgt            2          11   4.0627321257151244E-003           2      169881           0
</event>
<event>
      5   9999  3.19816E-02  4.35680E+02 -1.00000E+00  1.00581E-01
      21    -1     0     0   502   501  0.000000000E+00  0.000000000E+00  4.684573254E+02  4.684573254E+02  0.000000000E+00  0.00000E+00  9.000E+00
       1    -1     0     0   501     0  0.000000000E+00  0.000000000E+00 -1.366093514E+03  1.366093514E+03  0.000000000E+00  0.00000E+00  9.000E+00
      25     1     1     2     0     0 -1.510286644E+02 -9.780836120E+01  2.427852651E+02  3.270257145E+02  1.250000000E+02  0.00000E+00  9.000E+00
      25     1     1     2     0     0 -2.516411769E+02 -6.854782097E+01 -2.693824178E+00  2.892306041E+02  1.250000000E+02  0.00000E+00  9.000E+00
       1     1     1     2   502     0  4.026698413E+02  1.663561822E+02 -1.137727629E+03  1.218294521E+03  1.525878906E-05  0.00000E+00  9.000E+00
#rwgt            2          12   2.8172310831627080E-003           2      170006           0
</event>
<event>
      5   9999  3.19816E-02  3.72979E+01 -1.00000E+00  1.46749E-01
      21    -1     0     0   511   501  0.000000000E+00  0.000000000E+00  4.817775964E+02  4.817775964E+02  0.000000000E+00  0.00000E+00  9.000E+00
      21    -1     0     0   501   502  0.000000000E+00  0.000000000E+00 -3.578600833E+02  3.578600833E+02  0.000000000E+00  0.00000E+00  9.000E+00
      25     1     1     2     0     0  6.164864029E+01  8.940917703E+01  3.815127916E+02  4.158985044E+02  1.250000000E+02  0.00000E+00  9.000E+00
      25     1     1     2     0     0 -5.878596745E+01 -1.265970890E+02 -3.083131512E+02  3.607833312E+02  1.250000000E+02  0.00000E+00  9.000E+00
      21     1     1     2   511   502 -2.862672842E+00  3.718791199E+01  5.071787266E+01  6.295584406E+01  9.536743164E-07  0.00000E+00  9.000E+00
#rwgt            1           1   2.5046351984520637E-002           2      170025           0
</event>
<event>
      5   9999  3.19816E-02  7.82173E+01 -1.00000E+00  1.28825E-01
      21    -1     0     0   502   501  0.000000000E+00  0.000000000E+00  8.011346993E+02  8.011346993E+02  0.000000000E+00  0.00000E+00  9.000E+00
      21    -1     0     0   501   512  0.000000000E+00  0.000000000E+00 -1.758484135E+03  1.758484135E+03  0.000000000E+00  0.00000E+00  9.000E+00
      25     1     1     2     0     0  8.878000002E+02 -2.993448804E+02 -9.296843799E+02  1.325795702E+03  1.250000000E+02  0.00000E+00  9.000E+00
      25     1     1     2     0     0 -9.581638497E+02  3.335045151E+02  1.561345793E+02  1.034072643E+03  1.250000000E+02  0.00000E+00  9.000E+00
      21     1     1     2   502   512  7.036384949E+01 -3.415963478E+01 -1.837996356E+02  1.997504893E+02  0.000000000E+00  0.00000E+00  9.000E+00
#rwgt            1           1   3.0463025967189746E-002           2      170097           0
</event>
<event>
      5   9999  3.19816E-02  2.92512E+02 -1.00000E+00  1.05950E-01
       2    -1     0     0   502     0  0.000000000E+00  0.000000000E+00  1.750193591E+03  1.750193591E+03  0.000000000E+00  0.00000E+00  9.000E+00
      21    -1     0     0   501   502  0.000000000E+00  0.000000000E+00 -1.505703032E+02  1.505703032E+02  0.000000000E+00  0.00000E+00  9.000E+00
      25     1     1     2     0     0  4.191537895E+02  6.094285772E+00  4.350929859E+02  6.169748341E+02  1.250000000E+02  0.00000E+00  9.000E+00
      25     1     1     2     0     0 -1.621813826E+02  1.336504934E+02  4.600795001E+02  5.210214983E+02  1.250000000E+02  0.00000E+00  9.000E+00
       2     1     1     2   501     0 -2.569724068E+02 -1.397447792E+02  7.044508022E+02  7.627675622E+02  0.000000000E+00  0.00000E+00  9.000E+00
#rwgt            1           1   3.2105893444273809E-002           2      170271           0
</event>
<event>
      5   9999  3.47599E-02  5.38640E+02 -1.00000E+00  9.79422E-02
      21    -1     0     0   502   501  0.000000000E+00  0.000000000E+00  3.094276746E+03  3.094276746E+03  0.000000000E+00  0.00000E+00  9.000E+00
      21    -1     0     0   511   502  0.000000000E+00  0.000000000E+00 -3.098078762E+02  3.098078762E+02  0.000000000E+00  0.00000E+00  9.000E+00
      25     1     1     2     0     0  2.145280781E+02 -2.315294438E+02  2.149143702E+03  2.175792231E+03  1.250000000E+02  0.00000E+00  9.000E+00
      25     1     1     2     0     0 -2.859146172E+02 -3.023594862E+02  5.196528841E+02  6.773717939E+02  1.250000000E+02  0.00000E+00  9.000E+00
      21     1     1     2   511   501  7.138653916E+01  5.338889299E+02  1.156722834E+02  5.509205974E+02  1.279488360E-05  0.00000E+00  9.000E+00
#rwgt            1           1   9.5461550293813702E-002           2      170314           0
</event>
<event>
      5   9999  3.78694E-02  4.77942E+01 -1.00000E+00  1.40203E-01
      21    -1     0     0   502   501  0.000000000E+00  0.000000000E+00  2.096404891E+03  2.096404891E+03  0.000000000E+00  0.00000E+00  9.000E+00
      21    -1     0     0   512   502  0.000000000E+00  0.000000000E+00 -3.593504621E+01  3.593504621E+01  0.000000000E+00  0.00000E+00  9.000E+00
      25     1     1     2     0     0 -1.907430420E+02 -3.586481793E+01  1.547628932E+03  1.564752218E+03  1.250000000E+02  0.00000E+00  9.000E+00
      25     1     1     2     0     0  1.483503006E+02  1.379354018E+01  3.906858094E+02  4.364154845E+02  1.250000000E+02  0.00000E+00  9.000E+00
      21     1     1     2   512   501  4.239274137E+01  2.207127775E+01  1.221551035E+02  1.311722346E+02  3.015782986E-06  0.00000E+00  9.000E+00
#rwgt            1           1  0.10999956911116048                2      170359           0
</event>
<event>
      5   9999  3.19816E-02  4.21131E+01 -1.00000E+00  1.43467E-01
      21    -1     0     0   502   511  0.000000000E+00  0.000000000E+00  7.973527890E+02  7.973527890E+02  0.000000000E+00  0.00000E+00  9.000E+00
      21    -1     0     0   501   502  0.000000000E+00  0.000000000E+00 -1.924570546E+02  1.924570546E+02  0.000000000E+00  0.00000E+00  9.000E+00
      25     1     1     2     0     0 -4.505830827E+00 -2.554765692E+02  4.800547590E+02  5.580019279E+02  1.250000000E+02  0.00000E+00  9.000E+00
      25     1     1     2     0     0  4.661529682E+01  2.549217003E+02 -1.266353055E+01  2.879990003E+02  1.250000000E+02  0.00000E+00  9.000E+00
      21     1     1     2   501   511 -4.210946599E+01  5.548688915E-01  1.375045059E+02  1.438089154E+02  0.000000000E+00  0.00000E+00  9.000E+00
#rwgt            1           1   2.9764306867931280E-002           2      170456           0
</event>
<event>
      5   9999  3.19816E-02  7.29346E+01 -1.00000E+00  1.30324E-01
      21    -1     0     0   502   512  0.000000000E+00  0.000000000E+00  1.345994940E+02  1.345994940E+02  0.000000000E+00  0.00000E+00  9.000E+00
      21    -1     0     0   501   502  0.000000000E+00  0.000000000E+00 -1.051827773E+03  1.051827773E+03  0.000000000E+00  0.00000E+00  9.000E+00
      25     1     1     2     0     0 -3.778055038E+01 -2.778576940E+02 -4.529468211E+02  5.471910917E+02  1.250000000E+02  0.00000E+00  9.000E+00
      25     1     1     2     0     0  4.524516531E+00  2.129462796E+02 -5.002681354E+02  5.579066199E+02  1.250000000E+02  0.00000E+00  9.000E+00
      21     1     1     2   501   512  3.325603385E+01  6.491141446E+01  3.598667796E+01  8.132955493E+01  2.336015456E-06  0.00000E+00  9.000E+00
#rwgt            1           1   2.7535679757946768E-002           2      170588           0
</event>
<event>
      5   9999  3.19816E-02  2.06956E+02 -1.00000E+00  1.11110E-01
      -2    -1     0     0     0   501  0.000000000E+00  0.000000000E+00  1.738043638E+03  1.738043638E+03  0.000000000E+00  0.00000E+00  9.000E+00
      21    -1     0     0   501   502  0.000000000E+00  0.000000000E+00 -1.677105540E+02  1.677105540E+02  0.000000000E+00  0.00000E+00  9.000E+00
      25     1     1     2     0     0  1.923781310E+02  1.413854339E+02  6.555952032E+02  7.088224437E+02  1.250000000E+02  0.00000E+00  9.000E+00
      25     1     1     2     0     0 -3.022791691E+02 -3.167496879E+02  2.925201759E+02  5.411987751E+02  1.250000000E+02  0.00000E+00  9.000E+00
      -2     1     1     2     0   502  1.099010380E+02  1.753642540E+02  6.222177046E+02  6.557329728E+02  7.629394531E-06  0.00000E+00  9.000E+00
#rwgt            2           4   4.6829427063181221E-005           2      170783           0
</event>
<event>
      5   9999  3.19816E-02  1.62134E+02 -1.00000E+00  1.15070E-01
      21    -1     0     0   502   501  0.000000000E+00  0.000000000E+00  5.109941107E+02  5.109941107E+02  0.000000000E+00  0.00000E+00  9.000E+00
      21    -1     0     0   511   502  0.000000000E+00  0.000000000E+00 -5.266584775E+02  5.266584775E+02  0.000000000E+00  0.00000E+00  9.000E+00
      25     1     1     2     0     0  8.383265199E+01  9.298254994E+01  3.640370364E+02  4.047488506E+02  1.250000000E+02  0.00000E+00  9.000E+00
      25     1     1     2     0     0 -2.458182267E+02 -8.604693462E+01 -3.714440452E+02  4.705596182E+02  1.250000000E+02  0.00000E+00  9.000E+00
      21     1     1     2   511   501  1.619855747E+02 -6.935615317E+00 -8.257358066E+00  1.623441195E+02  5.960464478E-07  0.00000E+00  9.000E+00
#rwgt            1           1   2.9093535927867314E-002           2      170817           0
</event>
<event>
      5   9999  3.19816E-02  9.24337E+01 -1.00000E+00  1.25385E-01
      21    -1     0     0   502   501  0.000000000E+00  0.000000000E+00  5.027215255E+02  5.027215255E+02  0.000000000E+00  0.00000E+00  9.000E+00
      21    -1     0     0   501   512  0.000000000E+00  0.000000000E+00 -3.079268375E+02  3.079268375E+02  0.000000000E+00  0.00000E+00  9.000E+00
      25     1     1     2     0     0  5.366220022E+01 -1.669096668E+02  1.184182177E+02  2.457363280E+02  1.250000000E+02  0.00000E+00  9.000E+00
      25     1     1     2     0     0 -6.282528583E+01  2.588881012E+02  2.381697592E+02  3.785761478E+02  1.250000000E+02  0.00000E+00  9.000E+00
      21     1     1     2   502   512  9.163085616E+00 -9.197843441E+01 -1.617932889E+02  1.863358872E+02  3.303624740E-06  0.00000E+00  9.000E+00
#rwgt            1           1   2.9093033042831805E-002           2      170880           0
</event>
<event>
      5   9999  3.19816E-02  6.37179E+02 -1.00000E+00  9.59501E-02
      21    -1     0     0   502   511  0.000000000E+00  0.000000000E+00  9.357304555E+02  9.357304555E+02  0.000000000E+00  0.00000E+00  9.000E+00
      21    -1     0     0   501   502  0.000000000E+00  0.000000000E+00 -1.453204037E+03  1.453204037E+03  0.000000000E+00  0.00000E+00  9.000E+00
      25     1     1     2     0     0 -4.416615278E+02  4.108973900E+01 -1.504474173E+02  4.847810817E+02  1.250000000E+02  0.00000E+00  9.000E+00
      25     1     1     2     0     0  7.195420578E+02  5.323026827E+02 -7.380680186E+02  1.166814604E+03  1.250000000E+02  0.00000E+00  9.000E+00
      21     1     1     2   501   511 -2.778805300E+02 -5.733924217E+02  3.710418547E+02  7.373388069E+02  1.206313194E-05  0.00000E+00  9.000E+00
#rwgt            2          11   1.9150828235166861E-003           2      170954           0
</event>
<event>
      5   9999  3.19816E-02  6.76830E+01 -1.00000E+00  1.31965E-01
      21    -1     0     0   502   501  0.000000000E+00  0.000000000E+00  5.099191997E+02  5.099191997E+02  0.000000000E+00  0.00000E+00  9.000E+00
      21    -1     0     0   501   512  0.000000000E+00  0.000000000E+00 -5.723590379E+02  5.723590379E+02  0.000000000E+00  0.00000E+00  9.000E+00
      25     1     1     2     0     0  2.852952149E+02 -4.160918264E+02 -4.009636847E+01  5.213046004E+02  1.250000000E+02  0.00000E+00  9.000E+00
      25     1     1     2     0     0 -2.181236146E+02  4.077871266E+02  2.283329130E+01  4.795983851E+02  1.250000000E+02  0.00000E+00  9.000E+00
      21     1     1     2   502   512 -6.717160030E+01  8.304699816E+00 -4.517676100E+01  8.137525214E+01  6.743495762E-07  0.00000E+00  9.000E+00
#rwgt            1           1   2.8711844839728055E-002           2      171004           0
</event>
<event>
      5   9999  3.19816E-02  4.96845E+01 -1.00000E+00  1.39233E-01
      21    -1     0     0   502   501  0.000000000E+00  0.000000000E+00  4.189698481E+02  4.189698481E+02  0.000000000E+00  0.00000E+00  9.000E+00
       2    -1     0     0   501     0  0.000000000E+00  0.000000000E+00 -3.503473077E+02  3.503473077E+02  0.000000000E+00  0.00000E+00  9.000E+00
      25     1     1     2     0     0 -1.154357987E+02 -1.321676208E+02 -2.618609686E+02  3.391015637E+02  1.250000000E+02  0.00000E+00  9.000E+00
      25     1     1     2     0     0  8.105457040E+01  1.680351107E+02  2.851112407E+02  3.629312075E+02  1.250000000E+02  0.00000E+00  9.000E+00
       2     1     1     2   502     0  3.438122830E+01 -3.586748990E+01  4.537226823E+01  6.728438463E+01  9.536743164E-07  0.00000E+00  9.000E+00
#rwgt            1           1   2.7596127727908832E-002           2      171072           0
</event>
<event>
      5   9999  3.19816E-02  3.79241E+01 -1.00000E+00  1.46290E-01
      21    -1     0     0   511   501  0.000000000E+00  0.000000000E+00  1.358826357E+03  1.358826357E+03  0.000000000E+00  0.00000E+00  9.000E+00
      21    -1     0     0   501   502  0.000000000E+00  0.000000000E+00 -1.693148766E+02  1.693148766E+02  0.000000000E+00  0.00000E+00  9.000E+00
      25     1     1     2     0     0  2.701107482E+02  1.238494844E+02  8.026146537E+01  3.322129044E+02  1.250000000E+02  0.00000E+00  9.000E+00
      25     1     1     2     0     0 -2.323629456E+02 -1.275023427E+02  4.589720221E+02  5.445454095E+02  1.250000000E+02  0.00000E+00  9.000E+00
      21     1     1     2   511   502 -3.774780257E+01  3.652858328E+00  6.502779928E+02  6.513829196E+02  1.321449896E-05  0.00000E+00  9.000E+00
#rwgt            2          11   1.0233276921658373E-003           2      171204           0
</event>
<event>
      5   9999  3.19816E-02  3.90710E+01 -1.00000E+00  1.45476E-01
      21    -1     0     0   502   501  0.000000000E+00  0.000000000E+00  2.972032119E+02  2.972032119E+02  0.000000000E+00  0.00000E+00  9.000E+00
      21    -1     0     0   501   512  0.000000000E+00  0.000000000E+00 -5.476541793E+02  5.476541793E+02  0.000000000E+00  0.00000E+00  9.000E+00
      25     1     1     2     0     0  3.414143171E+02  5.922506036E+01 -2.664838050E+02  4.546536726E+02  1.250000000E+02  0.00000E+00  9.000E+00
      25     1     1     2     0     0 -3.083702084E+02 -8.007279460E+01  3.968066446E+01  3.445335876E+02  1.250000000E+02  0.00000E+00  9.000E+00
      21     1     1     2   502   512 -3.304410872E+01  2.084773424E+01 -2.364782682E+01  4.567013091E+01  7.539457465E-07  0.00000E+00  9.000E+00
#rwgt            1           1   2.7802784606228825E-002           2      171224           0
</event>
<event>
      5   9999  3.19816E-02  8.01555E+01 -1.00000E+00  1.28309E-01
      21    -1     0     0   502   501  0.000000000E+00  0.000000000E+00  2.060957667E+02  2.060957667E+02  0.000000000E+00  0.00000E+00  9.000E+00
      21    -1     0     0   511   502  0.000000000E+00  0.000000000E+00 -2.127409787E+03  2.127409787E+03  0.000000000E+00  0.00000E+00  9.000E+00
      25     1     1     2     0     0  3.316114606E+02 -2.791769259E+01  7.193183560E+00  3.555591375E+02  1.250000000E+02  0.00000E+00  9.000E+00
      25     1     1     2     0     0 -3.044956486E+02  1.033473982E+02 -1.726214834E+03  1.760352504E+03  1.250000000E+02  0.00000E+00  9.000E+00
      21     1     1     2   511   501 -2.711581197E+01 -7.542970562E+01 -2.022923696E+02  2.175939120E+02  0.000000000E+00  0.00000E+00  9.000E+00
#rwgt            1           1   2.6405922653107053E-002           2      171346           0
</event>
<event>
      5   9999  3.19816E-02  8.92469E+01 -1.00000E+00  1.26092E-01
      21    -1     0     0   502   512  0.000000000E+00  0.000000000E+00  3.253133360E+02  3.253133360E+02  0.000000000E+00  0.00000E+00  9.000E+00
      21    -1     0     0   501   502  0.000000000E+00  0.000000000E+00 -7.382908717E+02  7.382908717E+02  0.000000000E+00  0.00000E+00  9.000E+00
      25     1     1     2     0     0 -2.144762627E+02  1.056914557E+02 -6.130410510E+02  6.697873404E+02  1.250000000E+02  0.00000E+00  9.000E+00
      25     1     1     2     0     0  1.876202692E+02 -2.058111666E+01  7.168212082E+01  2.374621532E+02  1.250000000E+02  0.00000E+00  9.000E+00
      21     1     1     2   501   512  2.685599356E+01 -8.511033899E+01  1.283813944E+02  1.563547141E+02  0.000000000E+00  0.00000E+00  9.000E+00
#rwgt            1           1   2.9772468190599144E-002           2      171416           0
</event>
<event>
      5   9999  3.19816E-02  2.63240E+02 -1.00000E+00  1.07470E-01
      21    -1     0     0   502   501  0.000000000E+00  0.000000000E+00  2.863694245E+03  2.863694245E+03  0.000000000E+00  0.00000E+00  9.000E+00
      21    -1     0     0   501   511  0.000000000E+00  0.000000000E+00 -1.979508543E+02  1.979508543E+02  0.000000000E+00  0.00000E+00  9.000E+00
      25     1     1     2     0     0 -5.618657216E+02  3.929419985E+02  8.542367898E+02  1.102470860E+03  1.250000000E+02  0.00000E+00  9.000E+00
      25     1     1     2     0     0  3.346915628E+02 -2.599490152E+02  1.421969544E+03  1.489031335E+03  1.250000000E+02  0.00000E+00  9.000E+00
      21     1     1     2   502   511  2.271741588E+02 -1.329929833E+02  3.895370566E+02  4.701429044E+02  0.000000000E+00  0.00000E+00  9.000E+00
#rwgt            1           1   3.0895774358888208E-002           2      171492           0
</event>
<event>
      5   9999  3.19816E-02  2.93326E+01 -1.00000E+00  1.53722E-01
       2    -1     0     0   502     0  0.000000000E+00  0.000000000E+00  3.256044907E+03  3.256044907E+03  0.000000000E+00  0.00000E+00  9.000E+00
      21    -1     0     0   501   502  0.000000000E+00  0.000000000E+00 -8.346416784E+01  8.346416784E+01  0.000000000E+00  0.00000E+00  9.000E+00
      25     1     1     2     0     0  2.202394984E+02 -8.186953285E+01  1.946486318E+02  3.297288991E+02  1.250000000E+02  0.00000E+00  9.000E+00
      25     1     1     2     0     0 -2.495688783E+02  8.230617836E+01  1.324655932E+03  1.356243809E+03  1.250000000E+02  0.00000E+00  9.000E+00
       2     1     1     2   501     0  2.932937989E+01 -4.366455074E-01  1.653276176E+03  1.653536367E+03  0.000000000E+00  0.00000E+00  9.000E+00
#rwgt            1           1   3.0166073568604113E-002           2      171561           0
</event>
<event>
      5   9999  3.19816E-02  1.87023E+01 -1.00000E+00  1.68809E-01
      21    -1     0     0   502   511  0.000000000E+00  0.000000000E+00  1.158938928E+02  1.158938928E+02  0.000000000E+00  0.00000E+00  9.000E+00
      21    -1     0     0   501   502  0.000000000E+00  0.000000000E+00 -7.124433828E+02  7.124433828E+02  0.000000000E+00  0.00000E+00  9.000E+00
      25     1     1     2     0     0 -1.489345934E+02 -8.503940066E+01 -5.103892885E+02  5.527526016E+02  1.250000000E+02  0.00000E+00  9.000E+00
      25     1     1     2     0     0  1.302324289E+02  8.512154308E+01 -1.228824762E+02  2.343742000E+02  1.250000000E+02  0.00000E+00  9.000E+00
      21     1     1     2   501   511  1.870216449E+01 -8.214242378E-02  3.672227474E+01  4.121047398E+01  1.261592536E-06  0.00000E+00  9.000E+00
#rwgt            1           1   2.7945261705518962E-002           2      171765           0
</event>
<event>
      5   9999  3.19816E-02  6.96016E+01 -1.00000E+00  1.31346E-01
      21    -1     0     0   502   501  0.000000000E+00  0.000000000E+00  4.779684344E+02  4.779684344E+02  0.000000000E+00  0.00000E+00  9.000E+00
       1    -1     0     0   501     0  0.000000000E+00  0.000000000E+00 -2.525755364E+03  2.525755364E+03  0.000000000E+00  0.00000E+00  9.000E+00
      25     1     1     2     0     0 -1.028460136E+01  1.664969314E+01  5.811578525E+01  1.392315690E+02  1.250000000E+02  0.00000E+00  9.000E+00
      25     1     1     2     0     0  3.334091730E+01 -8.232157114E+01  3.632861643E+02  3.943225773E+02  1.250000000E+02  0.00000E+00  9.000E+00
       1     1     1     2   502     0 -2.305631594E+01  6.567187800E+01 -2.469188879E+03  2.470169652E+03  3.051757812E-05  0.00000E+00  9.000E+00
#rwgt            1           1   2.0328439234881101E-002           2      171911           0
</event>
<event>
      5   9999  3.19816E-02  1.12873E+02 -1.00000E+00  1.21508E-01
      21    -1     0     0   511   501  0.000000000E+00  0.000000000E+00  2.485975881E+03  2.485975881E+03  0.000000000E+00  0.00000E+00  9.000E+00
      21    -1     0     0   501   502  0.000000000E+00  0.000000000E+00 -6.414570335E+01  6.414570335E+01  0.000000000E+00  0.00000E+00  9.000E+00
      25     1     1     2     0     0  1.201811786E+01  4.708590552E+01  4.139932691E+02  4.351746138E+02  1.250000000E+02  0.00000E+00  9.000E+00
      25     1     1     2     0     0  9.568954133E+01 -1.333153523E+01  6.828018678E+01  1.721086926E+02  1.250000000E+02  0.00000E+00  9.000E+00
      21     1     1     2   511   502 -1.077076592E+02 -3.375437029E+01  1.939556722E+03  1.942838278E+03  3.051757812E-05  0.00000E+00  9.000E+00
#rwgt            1           1   3.1662602757898541E-002           2      171954           0
</event>
<event>
      5   9999  3.19816E-02  9.66400E+01 -1.00000E+00  1.24499E-01
      21    -1     0     0   512   501  0.000000000E+00  0.000000000E+00  1.209536312E+03  1.209536312E+03  0.000000000E+00  0.00000E+00  9.000E+00
      21    -1     0     0   501   502  0.000000000E+00  0.000000000E+00 -5.412907797E+02  5.412907797E+02  0.000000000E+00  0.00000E+00  9.000E+00
      25     1     1     2     0     0 -4.896881547E+02 -4.499731580E+02 -8.425212049E+01  6.819045033E+02  1.250000000E+02  0.00000E+00  9.000E+00
      25     1     1     2     0     0  4.102400590E+02  5.049939815E+02  6.581567970E+02  9.338689398E+02  1.250000000E+02  0.00000E+00  9.000E+00
      21     1     1     2   512   502  7.944809577E+01 -5.502082341E+01  9.434085619E+01  1.350536489E+02  1.348699152E-06  0.00000E+00  9.000E+00
#rwgt            1           1   3.4016503569589122E-002           2      171984           0
</event>
<event>
      5   9999  3.19816E-02  3.39512E+01 -1.00000E+00  1.49399E-01
      21    -1     0     0   502   511  0.000000000E+00  0.000000000E+00  1.753117776E+02  1.753117776E+02  0.000000000E+00  0.00000E+00  9.000E+00
      21    -1     0     0   501   502  0.000000000E+00  0.000000000E+00 -8.878810970E+02  8.878810970E+02  0.000000000E+00  0.00000E+00  9.000E+00
      25     1     1     2     0     0 -2.286307502E+01 -2.312909314E+02 -6.642100008E+02  7.147154261E+02  1.250000000E+02  0.00000E+00  9.000E+00
      25     1     1     2     0     0 -8.935559649E+00  2.431876388E+02 -9.603838986E+01  2.899455883E+02  1.250000000E+02  0.00000E+00  9.000E+00
      21     1     1     2   501   511  3.179863467E+01 -1.189670741E+01  4.767907126E+01  5.853186013E+01  1.348699152E-06  0.00000E+00  9.000E+00
#rwgt            1           1   2.7680956095050595E-002           2      172123           0
</event>
<event>
      5   9999  3.19816E-02  1.13295E+02 -1.00000E+00  1.21438E-01
      21    -1     0     0   512   501  0.000000000E+00  0.000000000E+00  4.617655443E+02  4.617655443E+02  0.000000000E+00  0.00000E+00  9.000E+00
      21    -1     0     0   501   502  0.000000000E+00  0.000000000E+00 -1.098968006E+02  1.098968006E+02  0.000000000E+00  0.00000E+00  9.000E+00
      25     1     1     2     0     0 -2.698789296E+00 -8.251493862E+01  9.005699521E+01  1.747891900E+02  1.250000000E+02  0.00000E+00  9.000E+00
      25     1     1     2     0     0  9.713744402E+01  1.992759615E+01  7.029278630E+01  1.743527113E+02  1.250000000E+02  0.00000E+00  9.000E+00
      21     1     1     2   512   502 -9.443865473E+01  6.258734247E+01  1.915189621E+02  2.225204436E+02  3.814697266E-06  0.00000E+00  9.000E+00
#rwgt            1           1   2.7268342837869934E-002           2      172231           0
</event>
<event>
      5   9999  3.19816E-02  2.16758E+01 -1.00000E+00  1.63537E-01
      21    -1     0     0   511   501  0.000000000E+00  0.000000000E+00  2.738297397E+02  2.738297397E+02  0.000000000E+00  0.00000E+00  9.000E+00
      21    -1     0     0   501   502  0.000000000E+00  0.000000000E+00 -4.991423467E+02  4.991423467E+02  0.000000000E+00  0.00000E+00  9.000E+00
      25     1     1     2     0     0 -1.385366841E+02 -6.779027370E+01 -4.308689699E+02  4.744059478E+02  1.250000000E+02  0.00000E+00  9.000E+00
      25     1     1     2     0     0  1.234696599E+02  8.337306381E+01  1.900171009E+02  2.718957950E+02  1.250000000E+02  0.00000E+00  9.000E+00
      21     1     1     2   511   502  1.506702424E+01 -1.558279011E+01  1.553926205E+01  2.667034368E+01  1.685873940E-07  0.00000E+00  9.000E+00
#rwgt            1           1   2.9739717120183199E-002           2      172269           0
</event>
<event>
      5   9999  3.19816E-02  5.56887E+01 -1.00000E+00  1.36457E-01
      21    -1     0     0   502   501  0.000000000E+00  0.000000000E+00  1.085146051E+02  1.085146051E+02  0.000000000E+00  0.00000E+00  9.000E+00
      21    -1     0     0   512   502  0.000000000E+00  0.000000000E+00 -5.347162595E+02  5.347162595E+02  0.000000000E+00  0.00000E+00  9.000E+00
      25     1     1     2     0     0  1.100116215E+01 -8.997054001E+01 -1.984968521E+02  2.514790726E+02  1.250000000E+02  0.00000E+00  9.000E+00
      25     1     1     2     0     0  4.152623311E+01  7.147456560E+01  7.496712500E+00  1.500474667E+02  1.250000000E+02  0.00000E+00  9.000E+00
      21     1     1     2   512   501 -5.252739526E+01  1.849597442E+01 -2.352015148E+02  2.417043253E+02  2.697398305E-06  0.00000E+00  9.000E+00
#rwgt            1           1   2.1415869612003108E-002           2      172432           0
</event>
<event>
      5   9999  3.19816E-02  1.40865E+02 -1.00000E+00  1.17485E-01
      21    -1     0     0   502   501  0.000000000E+00  0.000000000E+00  1.853985106E+02  1.853985106E+02  0.000000000E+00  0.00000E+00  9.000E+00
      21    -1     0     0   501   511  0.000000000E+00  0.000000000E+00 -1.646207168E+03  1.646207168E+03  0.000000000E+00  0.00000E+00  9.000E+00
      25     1     1     2     0     0  4.022520176E+01 -2.051044103E+02 -6.227830751E+02  6.687074432E+02  1.250000000E+02  0.00000E+00  9.000E+00
      25     1     1     2     0     0 -1.805301196E+02  1.925577690E+02  2.061542716E+01  2.927791221E+02  1.250000000E+02  0.00000E+00  9.000E+00
      21     1     1     2   502   511  1.403049179E+02  1.254664131E+01 -8.586410095E+02  8.701191134E+02  1.525878906E-05  0.00000E+00  9.000E+00
#rwgt            1           1   2.6962989987452467E-002           2      172507           0
</event>
<event>
      5   9999  3.19816E-02  8.83292E+01 -1.00000E+00  1.26302E-01
      21    -1     0     0   512   501  0.000000000E+00  0.000000000E+00  1.467725479E+03  1.467725479E+03  0.000000000E+00  0.00000E+00  9.000E+00
      21    -1     0     0   501   502  0.000000000E+00  0.000000000E+00 -1.535000821E+02  1.535000821E+02  0.000000000E+00  0.00000E+00  9.000E+00
      25     1     1     2     0     0  2.899279861E+02  7.514964431E+01  9.405619769E+02  9.949811750E+02  1.250000000E+02  0.00000E+00  9.000E+00
      25     1     1     2     0     0 -3.720187479E+02 -4.254366391E+01  2.279358516E+02  4.558373225E+02  1.250000000E+02  0.00000E+00  9.000E+00
      21     1     1     2   512   502  8.209076177E+01 -3.260598040E+01  1.457275685E+02  1.704070637E+02  1.907348633E-06  0.00000E+00  9.000E+00
#rwgt            1           1   2.7728720631132953E-002           2      172561           0
</event>
<event>
      5   9999  3.19816E-02  1.87601E+02 -1.00000E+00  1.12669E-01
       1    -1     0     0   502     0  0.000000000E+00  0.000000000E+00  9.036054392E+02  9.036054392E+02  0.000000000E+00  0.00000E+00  9.000E+00
      21    -1     0     0   501   502  0.000000000E+00  0.000000000E+00 -1.883300482E+02  1.883300482E+02  0.000000000E+00  0.00000E+00  9.000E+00
      25     1     1     2     0     0  3.601228887E+01  3.508809061E+02  1.815241804E+02  4.159210542E+02  1.250000000E+02  0.00000E+00  9.000E+00
      25     1     1     2     0     0 -8.257151306E+01 -1.691490104E+02  2.648256811E+02  3.481193529E+02  1.250000000E+02  0.00000E+00  9.000E+00
       1     1     1     2   501     0  4.655922420E+01 -1.817318957E+02  2.689255295E+02  3.278950803E+02  6.607249480E-06  0.00000E+00  9.000E+00
#rwgt            2          17   2.7873252996999829E-004           2      172690           0
</event>
<event>
      5   9999  3.19816E-02  4.25524E+01 -1.00000E+00  1.43194E-01
      21    -1     0     0   502   501  0.000000000E+00  0.000000000E+00  8.475760749E+01  8.475760749E+01  0.000000000E+00  0.00000E+00  9.000E+00
      21    -1     0     0   501   511  0.000000000E+00  0.000000000E+00 -1.195384883E+03  1.195384883E+03  0.000000000E+00  0.00000E+00  9.000E+00
      25     1     1     2     0     0 -1.180090678E+02 -5.731254898E+01 -8.798525153E+02  8.983186055E+02  1.250000000E+02  0.00000E+00  9.000E+00
      25     1     1     2     0     0  1.553591929E+02  3.692450201E+01 -6.847940098E+01  2.140428135E+02  1.250000000E+02  0.00000E+00  9.000E+00
      21     1     1     2   502   511 -3.735012514E+01  2.038804697E+01 -1.622953596E+02  1.677810718E+02  0.000000000E+00  0.00000E+00  9.000E+00
#rwgt            1           1   2.8185493471557067E-002           2      172739           0
</event>
<event>
      5   9999  3.19816E-02  5.58979E+01 -1.00000E+00  1.36368E-01
      21    -1     0     0   502   501  0.000000000E+00  0.000000000E+00  4.128427961E+02  4.128427961E+02  0.000000000E+00  0.00000E+00  9.000E+00
      21    -1     0     0   512   502  0.000000000E+00  0.000000000E+00 -4.008763628E+02  4.008763628E+02  0.000000000E+00  0.00000E+00  9.000E+00
      25     1     1     2     0     0  2.494431223E+02  1.862093936E+02 -1.549388939E+01  3.357988537E+02  1.250000000E+02  0.00000E+00  9.000E+00
      25     1     1     2     0     0 -2.178909736E+02 -2.323508822E+02  1.259896081E+02  3.646392603E+02  1.250000000E+02  0.00000E+00  9.000E+00
      21     1     1     2   512   501 -3.155214872E+01  4.614148860E+01 -9.852928538E+01  1.132810449E+02  0.000000000E+00  0.00000E+00  9.000E+00
#rwgt            1           1   2.5421777750761369E-002           2      172863           0
</event>
<event>
      5   9999  3.19816E-02  1.51680E+01 -1.00000E+00  1.76929E-01
      21    -1     0     0   502   511  0.000000000E+00  0.000000000E+00  1.485367190E+02  1.485367190E+02  0.000000000E+00  0.00000E+00  9.000E+00
      21    -1     0     0   501   502  0.000000000E+00  0.000000000E+00 -3.940145882E+02  3.940145882E+02  0.000000000E+00  0.00000E+00  9.000E+00
      25     1     1     2     0     0  1.756274500E+02  7.850550750E+01 -5.484649817E+01  2.358839847E+02  1.250000000E+02  0.00000E+00  9.000E+00
      25     1     1     2     0     0 -1.738879636E+02 -6.343756853E+01 -1.864149083E+02  2.909241603E+02  1.250000000E+02  0.00000E+00  9.000E+00
      21     1     1     2   501   511 -1.739486380E+00 -1.506793897E+01 -4.216462793E+00  1.574316220E+01  1.032382731E-07  0.00000E+00  9.000E+00
#rwgt            1           1   2.8533115630353576E-002           2      172988           0
</event>
<event>
      5   9999  3.19816E-02  3.85773E+01 -1.00000E+00  1.45822E-01
      21    -1     0     0   502   512  0.000000000E+00  0.000000000E+00  1.047377269E+03  1.047377269E+03  0.000000000E+00  0.00000E+00  9.000E+00
      21    -1     0     0   501   502  0.000000000E+00  0.000000000E+00 -6.327349046E+02  6.327349046E+02  0.000000000E+00  0.00000E+00  9.000E+00
      25     1     1     2     0     0  2.617985649E+02 -3.032292588E+02  8.527644072E+01  4.282330479E+02  1.250000000E+02  0.00000E+00  9.000E+00
      25     1     1     2     0     0 -2.985992427E+02  3.148014269E+02 -3.500722390E+02  5.713466711E+02  1.250000000E+02  0.00000E+00  9.000E+00
      21     1     1     2   501   512  3.680067777E+01 -1.157216810E+01  6.794381629E+02  6.805324549E+02  7.629394531E-06  0.00000E+00  9.000E+00
#rwgt            1           1   2.9016303513476307E-002           2      173208           0
</event>
<event>
      5   9999  3.19816E-02  1.70795E+01 -1.00000E+00  1.72231E-01
      21    -1     0     0   502   501  0.000000000E+00  0.000000000E+00  4.652823205E+01  4.652823205E+01  0.000000000E+00  0.00000E+00  9.000E+00
       2    -1     0     0   501     0  0.000000000E+00  0.000000000E+00 -2.094390423E+03  2.094390423E+03  0.000000000E+00  0.00000E+00  9.000E+00
      25     1     1     2     0     0  1.199592790E+02  1.291910996E+02 -4.217757953E+02  4.739202363E+02  1.250000000E+02  0.00000E+00  9.000E+00
      25     1     1     2     0     0 -1.042588775E+02 -1.359146949E+02 -5.309714399E+02  5.717502845E+02  1.250000000E+02  0.00000E+00  9.000E+00
       2     1     1     2   502     0 -1.570040151E+01  6.723595273E+00 -1.095114956E+03  1.095248134E+03  2.642899792E-05  0.00000E+00  9.000E+00
#rwgt            1           1   3.5008912305760788E-002           2      173358           0
</event>
<event>
      5   9999  3.90433E-02  1.33008E+02 -1.00000E+00  1.18501E-01
       1    -1     0     0   502     0  0.000000000E+00  0.000000000E+00  1.497903819E+03  1.497903819E+03  0.000000000E+00  0.00000E+00  9.000E+00
      21    -1     0     0   501   502  0.000000000E+00  0.000000000E+00 -1.947329973E+03  1.947329973E+03  0.000000000E+00  0.00000E+00  9.000E+00
      25     1     1     2     0     0 -2.679651660E+02  1.097767988E+02  8.130964452E+02  8.721279178E+02  1.250000000E+02  0.00000E+00  9.000E+00
      25     1     1     2     0     0  3.850250604E+02 -4.662614251E+01 -1.889109586E+03  1.932557456E+03  1.250000000E+02  0.00000E+00  9.000E+00
       1     1     1     2   501     0 -1.170598945E+02 -6.315065626E+01  6.265869863E+02  6.405484179E+02  1.078959322E-05  0.00000E+00  9.000E+00
#rwgt            1           1   8.1525311248942717E-002           2      173537           0
</event>
<event>
      5   9999  3.19816E-02  6.24140E+01 -1.00000E+00  1.33794E-01
      21    -1     0     0   511   501  0.000000000E+00  0.000000000E+00  3.595491147E+02  3.595491147E+02  0.000000000E+00  0.00000E+00  9.000E+00
      21    -1     0     0   501   502  0.000000000E+00  0.000000000E+00 -5.552513356E+02  5.552513356E+02  0.000000000E+00  0.00000E+00  9.000E+00
      25     1     1     2     0     0  8.313126028E+01 -5.846489434E+01  6.862768259E+01  1.751105626E+02  1.250000000E+02  0.00000E+00  9.000E+00
      25     1     1     2     0     0 -1.452209325E+02  6.481918339E+01 -4.769648611E+02  5.180840901E+02  1.250000000E+02  0.00000E+00  9.000E+00
      21     1     1     2   511   502  6.208967225E+01 -6.354289051E+00  2.126349576E+02  2.216057977E+02  2.697398305E-06  0.00000E+00  9.000E+00
#rwgt            1           1   2.7867787519606335E-002           2      173601           0
</event>
<event>
      5   9999  3.19816E-02  1.46365E+02 -1.00000E+00  1.16817E-01
      21    -1     0     0   512   501  0.000000000E+00  0.000000000E+00  4.139612710E+02  4.139612710E+02  0.000000000E+00  0.00000E+00  9.000E+00
      21    -1     0     0   501   502  0.000000000E+00  0.000000000E+00 -2.407684008E+02  2.407684008E+02  0.000000000E+00  0.00000E+00  9.000E+00
      25     1     1     2     0     0  8.828428244E+01 -1.286020240E+02  1.825566234E+01  2.007258437E+02  1.250000000E+02  0.00000E+00  9.000E+00
      25     1     1     2     0     0 -7.632572903E+00  2.507414540E+02  9.694096823E+01  2.965671665E+02  1.250000000E+02  0.00000E+00  9.000E+00
      21     1     1     2   512   502 -8.065170954E+01 -1.221394300E+02  5.799623959E+01  1.574366616E+02  1.168007728E-06  0.00000E+00  9.000E+00
#rwgt            1           1   2.3629282606955827E-002           2      173700           0
</event>
<event>
      5   9999  3.19816E-02  1.67020E+01 -1.00000E+00  1.73096E-01
       2    -1     0     0   502     0  0.000000000E+00  0.000000000E+00  8.511803135E+02  8.511803135E+02  0.000000000E+00  0.00000E+00  9.000E+00
      21    -1     0     0   501   502  0.000000000E+00  0.000000000E+00 -1.304310885E+02  1.304310885E+02  0.000000000E+00  0.00000E+00  9.000E+00
      25     1     1     2     0     0 -4.016816760E+01 -2.423312933E+02  3.150096146E+02  4.185618170E+02  1.250000000E+02  0.00000E+00  9.000E+00
      25     1     1     2     0     0  2.361994532E+01  2.400701262E+02  1.570851984E+02  3.138348720E+02  1.250000000E+02  0.00000E+00  9.000E+00
       2     1     1     2   501     0  1.654822227E+01  2.261167029E+00  2.486544120E+02  2.492147130E+02  3.814697266E-06  0.00000E+00  9.000E+00
#rwgt            1           1   3.0649584560627597E-002           2      173785           0
</event>
<event>
      5   9999  3.19816E-02  4.33055E+02 -1.00000E+00  1.00658E-01
      21    -1     0     0   502   511  0.000000000E+00  0.000000000E+00  4.120208781E+02  4.120208781E+02  0.000000000E+00  0.00000E+00  9.000E+00
      21    -1     0     0   501   502  0.000000000E+00  0.000000000E+00 -9.824331883E+02  9.824331883E+02  0.000000000E+00  0.00000E+00  9.000E+00
      25     1     1     2     0     0  7.836018596E+01 -2.179125308E+01 -2.310889431E+02  2.750314111E+02  1.250000000E+02  0.00000E+00  9.000E+00
      25     1     1     2     0     0 -3.768596334E+02  3.355348507E+02 -4.327656690E+02  6.764007271E+02  1.250000000E+02  0.00000E+00  9.000E+00
      21     1     1     2   501   511  2.984994474E+02 -3.137435976E+02  9.344230197E+01  4.430219283E+02  6.325959759E-06  0.00000E+00  9.000E+00
#rwgt            2          11   3.8291080430013797E-003           2      174051           0
</event>
<event>
      5   9999  3.19816E-02  1.77873E+02 -1.00000E+00  1.13534E-01
       2    -1     0     0   502     0  0.000000000E+00  0.000000000E+00  2.132486534E+03  2.132486534E+03  0.000000000E+00  0.00000E+00  9.000E+00
      21    -1     0     0   501   502  0.000000000E+00  0.000000000E+00 -1.611516871E+02  1.611516871E+02  0.000000000E+00  0.00000E+00  9.000E+00
      25     1     1     2     0     0  1.725165720E+02  9.319527271E+01  1.597686513E+03  1.614519904E+03  1.250000000E+02  0.00000E+00  9.000E+00
      25     1     1     2     0     0 -3.501285308E+02 -8.355807896E+01  3.064049312E+02  4.889590192E+02  1.250000000E+02  0.00000E+00  9.000E+00
       2     1     1     2   501     0  1.776119588E+02 -9.637193753E+00  6.724340275E+01  1.901592980E+02  3.932099939E-06  0.00000E+00  9.000E+00
#rwgt            1           1   3.5005814989229569E-002           2      174071           0
</event>
<event>
      5   9999  3.19816E-02  5.49624E+01 -1.00000E+00  1.36771E-01
      21    -1     0     0   502   501  0.000000000E+00  0.000000000E+00  3.069574494E+02  3.069574494E+02  0.000000000E+00  0.00000E+00  9.000E+00
      -2    -1     0     0     0   502  0.000000000E+00  0.000000000E+00 -2.193893102E+03  2.193893102E+03  0.000000000E+00  0.00000E+00  9.000E+00
      25     1     1     2     0     0  3.589373387E+02  2.302262791E+02 -2.336046084E+01  4.449841164E+02  1.250000000E+02  0.00000E+00  9.000E+00
      25     1     1     2     0     0 -4.029504091E+02 -2.631460323E+02 -5.511774078E+02  7.423182615E+02  1.250000000E+02  0.00000E+00  9.000E+00
      -2     1     1     2     0   501  4.401307041E+01  3.291975325E+01 -1.312397784E+03  1.313548173E+03  1.525878906E-05  0.00000E+00  9.000E+00
#rwgt            1           1   3.0218442501420483E-002           2      174123           0
</event>
<event>
      5   9999  3.19816E-02  6.83120E+01 -1.00000E+00  1.31760E-01
      21    -1     0     0   511   501  0.000000000E+00  0.000000000E+00  2.332499782E+02  2.332499782E+02  0.000000000E+00  0.00000E+00  9.000E+00
      21    -1     0     0   501   502  0.000000000E+00  0.000000000E+00 -7.314029329E+02  7.314029329E+02  0.000000000E+00  0.00000E+00  9.000E+00
      25     1     1     2     0     0 -1.825210295E+02 -8.861611486E+01 -5.864809387E+02  6.330494716E+02  1.250000000E+02  0.00000E+00  9.000E+00
      25     1     1     2     0     0  1.810617328E+02  2.031975317E+01  1.252149794E+02  2.539685699E+02  1.250000000E+02  0.00000E+00  9.000E+00
      21     1     1     2   511   502  1.459296685E+00  6.829636170E+01 -3.688699538E+01  7.763486972E+01  8.259061849E-07  0.00000E+00  9.000E+00
#rwgt            1           1   3.0136529496788616E-002           2      174206           0
</event>
<event>
      5   9999  3.19816E-02  3.30490E+01 -1.00000E+00  1.50176E-01
      21    -1     0     0   512   501  0.000000000E+00  0.000000000E+00  6.011845138E+02  6.011845138E+02  0.000000000E+00  0.00000E+00  9.000E+00
      21    -1     0     0   501   502  0.000000000E+00  0.000000000E+00 -1.182646575E+02  1.182646575E+02  0.000000000E+00  0.00000E+00  9.000E+00
      25     1     1     2     0     0 -4.618154022E+01  1.183264944E+02  1.804474660E+02  2.536142384E+02  1.250000000E+02  0.00000E+00  9.000E+00
      25     1     1     2     0     0  1.447228257E+01 -1.090121459E+02  5.031408577E+00  1.665635314E+02  1.250000000E+02  0.00000E+00  9.000E+00
      21     1     1     2   512   502  3.170925765E+01 -9.314348413E+00  2.974409817E+02  2.992714014E+02  3.814697266E-06  0.00000E+00  9.000E+00
#rwgt            1           1   3.0648686845319850E-002           2      174274           0
</event>
<event>
      5   9999  3.19816E-02  5.01376E+01 -1.00000E+00  1.39007E-01
      21    -1     0     0   511   501  0.000000000E+00  0.000000000E+00  1.154832016E+02  1.154832016E+02  0.000000000E+00  0.00000E+00  9.000E+00
      21    -1     0     0   501   502  0.000000000E+00  0.000000000E+00 -5.620733996E+02  5.620733996E+02  0.000000000E+00  0.00000E+00  9.000E+00
      25     1     1     2     0     0 -4.374567588E+00 -4.325675225E+01  3.219951705E+01  1.362060658E+02  1.250000000E+02  0.00000E+00  9.000E+00
      25     1     1     2     0     0  3.656481980E+01  4.817647484E+00 -4.732973664E+02  4.909130196E+02  1.250000000E+02  0.00000E+00  9.000E+00
      21     1     1     2   511   502 -3.219025221E+01  3.843910476E+01 -5.492348596E+00  5.043751586E+01  1.113506656E-06  0.00000E+00  9.000E+00
#rwgt            1           1   3.3812809358338303E-002           2      174392           0
</event>
<event>
      5   9999  3.19816E-02  1.70791E+02 -1.00000E+00  1.14202E-01
      21    -1     0     0   512   501  0.000000000E+00  0.000000000E+00  2.222197181E+03  2.222197181E+03  0.000000000E+00  0.00000E+00  9.000E+00
      21    -1     0     0   501   502  0.000000000E+00  0.000000000E+00 -1.053170364E+02  1.053170364E+02  0.000000000E+00  0.00000E+00  9.000E+00
      25     1     1     2     0     0  8.982049644E+01 -5.193024704E+01  8.528962593E+02  8.682289452E+02  1.250000000E+02  0.00000E+00  9.000E+00
      25     1     1     2     0     0 -1.512905632E+02  2.112755871E+02  1.366714274E+02  3.191085823E+02  1.250000000E+02  0.00000E+00  9.000E+00
      21     1     1     2   512   502  6.147006674E+01 -1.593453400E+02  1.127312458E+03  1.140176690E+03  1.525878906E-05  0.00000E+00  9.000E+00
#rwgt            1           1   2.8341567348238537E-002           2      174446           0
</event>
<event>
      5   9999  3.19816E-02  1.88412E+02 -1.00000E+00  1.12600E-01
       2    -1     0     0   502     0  0.000000000E+00  0.000000000E+00  1.047631848E+03  1.047631848E+03  0.000000000E+00  0.00000E+00  9.000E+00
      21    -1     0     0   501   502  0.000000000E+00  0.000000000E+00 -3.972983468E+02  3.972983468E+02  0.000000000E+00  0.00000E+00  9.000E+00
      25     1     1     2     0     0 -1.785887364E+02 -2.499204378E+02  4.474154663E+02  5.569198879E+02  1.250000000E+02  0.00000E+00  9.000E+00
      25     1     1     2     0     0  3.669481120E+02  2.543730007E+02 -1.505264254E+02  4.874830716E+02  1.250000000E+02  0.00000E+00  9.000E+00
       2     1     1     2   501     0 -1.883593756E+02 -4.452562871E+00  3.534444599E+02  4.005272349E+02  3.814697266E-06  0.00000E+00  9.000E+00
#rwgt            1           1   2.3840606366084583E-002           2      174484           0
</event>
<event>
      5   9999  3.19816E-02  7.20986E+01 -1.00000E+00  1.30574E-01
      21    -1     0     0   502   511  0.000000000E+00  0.000000000E+00  4.315949537E+02  4.315949537E+02  0.000000000E+00  0.00000E+00  9.000E+00
      21    -1     0     0   501   502  0.000000000E+00  0.000000000E+00 -9.200264781E+02  9.200264781E+02  0.000000000E+00  0.00000E+00  9.000E+00
      25     1     1     2     0     0 -1.106089985E+02  1.683576854E+02 -8.163418748E+02  8.500692426E+02  1.250000000E+02  0.00000E+00  9.000E+00
      25     1     1     2     0     0  1.683179138E+02 -2.115767419E+02  3.039768638E+02  4.255849757E+02  1.250000000E+02  0.00000E+00  9.000E+00
      21     1     1     2   501   511 -5.770891526E+01  4.321905648E+01  2.393348658E+01  7.596721348E+01  1.168007728E-06  0.00000E+00  9.000E+00
#rwgt            1           1   2.4724443795379400E-002           2      174543           0
</event>
<event>
      5   9999  3.19816E-02  9.15957E+01 -1.00000E+00  1.25567E-01
      21    -1     0     0   502   501  0.000000000E+00  0.000000000E+00  2.118882867E+03  2.118882867E+03  0.000000000E+00  0.00000E+00  9.000E+00
      21    -1     0     0   501   512  0.000000000E+00  0.000000000E+00 -7.154287899E+02  7.154287899E+02  0.000000000E+00  0.00000E+00  9.000E+00
      25     1     1     2     0     0  1.435631602E+02  9.707806498E+01 -6.344077743E+02  6.694271848E+02  1.250000000E+02  0.00000E+00  9.000E+00
      25     1     1     2     0     0 -2.130840188E+02 -1.567154883E+02  2.051520898E+03  2.072275932E+03  1.250000000E+02  0.00000E+00  9.000E+00
      21     1     1     2   502   512  6.952085856E+01  5.963742336E+01 -1.365904704E+01  9.260853960E+01  1.450243599E-06  0.00000E+00  9.000E+00
#rwgt            1           1   7.1591375398982318E-002           2      174663           0
</event>
<event>
      5   9999  3.19816E-02  2.03591E+02 -1.00000E+00  1.11367E-01
      21    -1     0     0   502   501  0.000000000E+00  0.000000000E+00  2.503506953E+02  2.503506953E+02  0.000000000E+00  0.00000E+00  9.000E+00
      21    -1     0     0   511   502  0.000000000E+00  0.000000000E+00 -6.627958524E+02  6.627958524E+02  0.000000000E+00  0.00000E+00  9.000E+00
      25     1     1     2     0     0  3.919033253E+01  2.815350774E+02 -2.686601313E+02  4.106107014E+02  1.250000000E+02  0.00000E+00  9.000E+00
      25     1     1     2     0     0  1.071096973E+02 -1.399530083E+02  4.965838933E+01  2.216986410E+02  1.250000000E+02  0.00000E+00  9.000E+00
      21     1     1     2   511   501 -1.463000298E+02 -1.415820691E+02 -1.934434151E+02  2.808372052E+02  3.814697266E-06  0.00000E+00  9.000E+00
#rwgt            1           1   2.8119878976134008E-002           2      174843           0
</event>
<event>
      5   9999  3.19816E-02  5.15005E+02 -1.00000E+00  9.84886E-02
      21    -1     0     0   502   512  0.000000000E+00  0.000000000E+00  3.224166802E+03  3.224166802E+03  0.000000000E+00  0.00000E+00  9.000E+00
      21    -1     0     0   501   502  0.000000000E+00  0.000000000E+00 -1.727727382E+02  1.727727382E+02  0.000000000E+00  0.00000E+00  9.000E+00
      25     1     1     2     0     0 -3.969760753E+02 -4.475548962E+02  8.441938225E+02  1.042201324E+03  1.250000000E+02  0.00000E+00  9.000E+00
      25     1     1     2     0     0  2.143386564E+01  9.513739111E+01  1.044906012E+02  1.898784336E+02  1.250000000E+02  0.00000E+00  9.000E+00
      21     1     1     2   501   512  3.755422097E+02  3.524175050E+02  2.102709640E+03  2.164859783E+03  4.315837288E-05  0.00000E+00  9.000E+00
#rwgt            1           1   2.8238076202080520E-002           2      174887           0
</event>
<event>
      5   9999  3.19816E-02  1.13209E+02 -1.00000E+00  1.21452E-01
      21    -1     0     0   502   501  0.000000000E+00  0.000000000E+00  2.026072085E+02  2.026072085E+02  0.000000000E+00  0.00000E+00  9.000E+00
       2    -1     0     0   501     0  0.000000000E+00  0.000000000E+00 -1.207597127E+03  1.207597127E+03  0.000000000E+00  0.00000E+00  9.000E+00
      25     1     1     2     0     0 -3.992914922E+01 -1.438650650E+02 -7.910549859E+02  8.146683280E+02  1.250000000E+02  0.00000E+00  9.000E+00
      25     1     1     2     0     0  1.273753409E+02  7.196545159E+01  1.308094259E+02  2.326791989E+02  1.250000000E+02  0.00000E+00  9.000E+00
       2     1     1     2   502     0 -8.744619169E+01  7.189961338E+01 -3.447443581E+02  3.628568082E+02  3.814697266E-06  0.00000E+00  9.000E+00
#rwgt            1           1   2.6397421363620433E-002           2      174927           0
</event>
<event>
      5   9999  3.19816E-02  4.06272E+01 -1.00000E+00  1.44422E-01
      21    -1     0     0   502   501  0.000000000E+00  0.000000000E+00  6.845047508E+02  6.845047508E+02  0.000000000E+00  0.00000E+00  9.000E+00
      21    -1     0     0   511   502  0.000000000E+00  0.000000000E+00 -4.162911381E+02  4.162911381E+02  0.000000000E+00  0.00000E+00  9.000E+00
      25     1     1     2     0     0  2.051208480E+01 -4.772000096E+02  1.996651430E+02  5.325709006E+02  1.250000000E+02  0.00000E+00  9.000E+00
      25     1     1     2     0     0 -1.897651212E+00  4.410881085E+02  1.456774865E+02  4.810501539E+02  1.250000000E+02  0.00000E+00  9.000E+00
      21     1     1     2   511   501 -1.861443358E+01  3.611190111E+01 -7.712901677E+01  8.717483449E+01  1.348699152E-06  0.00000E+00  9.000E+00
#rwgt            1           1   2.8609855620593420E-002           2      175004           0
</event>
<event>
      5   9999  3.19816E-02  6.62029E+01 -1.00000E+00  1.32459E-01
      21    -1     0     0   502   512  0.000000000E+00  0.000000000E+00  1.002443494E+03  1.002443494E+03  0.000000000E+00  0.00000E+00  9.000E+00
      21    -1     0     0   501   502  0.000000000E+00  0.000000000E+00 -2.626423582E+02  2.626423582E+02  0.000000000E+00  0.00000E+00  9.000E+00
      25     1     1     2     0     0 -1.481879672E+02  1.811957334E+02 -1.038699405E+02  2.849658435E+02  1.250000000E+02  0.00000E+00  9.000E+00
      25     1     1     2     0     0  8.373282451E+01 -1.660840297E+02  1.214914120E+02  2.549122477E+02  1.250000000E+02  0.00000E+00  9.000E+00
      21     1     1     2   501   512  6.445514272E+01 -1.511170370E+01  7.221796644E+02  7.252077610E+02  0.000000000E+00  0.00000E+00  9.000E+00
#rwgt            1           1   2.8834507481047308E-002           2      175133           0
</event>
<event>
      5   9999  3.19816E-02  3.81927E+01 -1.00000E+00  1.46097E-01
      21    -1     0     0   502   501  0.000000000E+00  0.000000000E+00  5.202327640E+01  5.202327640E+01  0.000000000E+00  0.00000E+00  9.000E+00
      21    -1     0     0   501   511  0.000000000E+00  0.000000000E+00 -2.142281441E+03  2.142281441E+03  0.000000000E+00  0.00000E+00  9.000E+00
      25     1     1     2     0     0  2.258042609E+01 -1.271627262E+02 -1.667335834E+03  1.676995533E+03  1.250000000E+02  0.00000E+00  9.000E+00
      25     1     1     2     0     0 -6.065163612E+01  1.302065572E+02 -1.518195592E+02  2.435293557E+02  1.250000000E+02  0.00000E+00  9.000E+00
      21     1     1     2   502   511  3.807121003E+01 -3.043831068E+00 -2.711027720E+02  2.737798293E+02  3.814697266E-06  0.00000E+00  9.000E+00
#rwgt            1           1   2.5537787870410698E-002           2      175221           0
</event>
<event>
      5   9999  3.19816E-02  6.18637E+01 -1.00000E+00  1.33997E-01
      21    -1     0     0   502   501  0.000000000E+00  0.000000000E+00  1.824312652E+02  1.824312652E+02  0.000000000E+00  0.00000E+00  9.000E+00
      21    -1     0     0   501   512  0.000000000E+00  0.000000000E+00 -8.688073423E+02  8.688073423E+02  0.000000000E+00  0.00000E+00  9.000E+00
      25     1     1     2     0     0  2.568496851E+02  1.778483519E+02 -3.370167325E+02  4.762426640E+02  1.250000000E+02  0.00000E+00  9.000E+00
      25     1     1     2     0     0 -3.186983475E+02 -1.764839595E+02 -2.541248647E+02  4.614321960E+02  1.250000000E+02  0.00000E+00  9.000E+00
      21     1     1     2   502   512  6.184866237E+01 -1.364392472E+00 -9.523447983E+01  1.135637475E+02  1.348699152E-06  0.00000E+00  9.000E+00
#rwgt            1           1   2.9771295918879052E-002           2      175349           0
</event>
<event>
      5   9999  3.19816E-02  1.55185E+02 -1.00000E+00  1.15812E-01
      21    -1     0     0   502   501  0.000000000E+00  0.000000000E+00  3.839366661E+01  3.839366661E+01  0.000000000E+00  0.00000E+00  9.000E+00
       2    -1     0     0   501     0  0.000000000E+00  0.000000000E+00 -1.958928916E+03  1.958928916E+03  0.000000000E+00  0.00000E+00  9.000E+00
      25     1     1     2     0     0 -1.008531109E+02  3.593157683E+01 -2.472809733E+02  2.970442862E+02  1.250000000E+02  0.00000E+00  9.000E+00
      25     1     1     2     0     0 -2.465198812E+01  5.534258345E+01 -9.849382371E+02  9.946853035E+02  1.250000000E+02  0.00000E+00  9.000E+00
       2     1     1     2   502     0  1.255050990E+02 -9.127416027E+01 -6.883160390E+02  7.055929930E+02  7.629394531E-06  0.00000E+00  9.000E+00
#rwgt            1           1   3.1194042910654987E-002           2      175483           0
</event>
<event>
      5   9999  3.19816E-02  6.65308E+01 -1.00000E+00  1.32349E-01
      21    -1     0     0   502   501  0.000000000E+00  0.000000000E+00  9.134389545E+02  9.134389545E+02  0.000000000E+00  0.00000E+00  9.000E+00
       5    -1     0     0   501     0  0.000000000E+00  0.000000000E+00 -7.365486567E+02  7.365486567E+02  0.000000000E+00  0.00000E+00  9.000E+00
      25     1     1     2     0     0 -1.540622851E+02  3.296291444E+02  2.542824184E+02  4.611671160E+02  1.250000000E+02  0.00000E+00  9.000E+00
      25     1     1     2     0     0  2.011273927E+02 -3.766528555E+02  4.643020373E+02  6.430559723E+02  1.250000000E+02  0.00000E+00  9.000E+00
       5     1     1     2   502     0 -4.706510767E+01  4.702371105E+01 -5.416941579E+02  5.457645229E+02  0.000000000E+00  0.00000E+00  9.000E+00
#rwgt            1           1   2.9838309420149686E-002           2      175529           0
</event>
<event>
      5   9999  3.19816E-02  2.48196E+01 -1.00000E+00  1.58987E-01
      21    -1     0     0   502   501  0.000000000E+00  0.000000000E+00  9.137076226E+02  9.137076226E+02  0.000000000E+00  0.00000E+00  9.000E+00
      21    -1     0     0   501   511  0.000000000E+00  0.000000000E+00 -9.991488033E+01  9.991488033E+01  0.000000000E+00  0.00000E+00  9.000E+00
      25     1     1     2     0     0  6.453448299E+01  3.927841525E+01 -5.999168007E+00  1.461796272E+02  1.250000000E+02  0.00000E+00  9.000E+00
      25     1     1     2     0     0 -7.915807710E+01 -5.933246717E+01  8.265001676E+02  8.417326594E+02  1.250000000E+02  0.00000E+00  9.000E+00
      21     1     1     2   502   511  1.462359411E+01  2.005405192E+01 -6.708257382E+00  2.571021626E+01  6.529361695E-07  0.00000E+00  9.000E+00
#rwgt            1           1   2.8969943499749261E-002           2      175656           0
</event>
<event>
      5   9999  3.19816E-02  1.15997E+02 -1.00000E+00  1.20997E-01
      21    -1     0     0   502   512  0.000000000E+00  0.000000000E+00  3.136753118E+02  3.136753118E+02  0.000000000E+00  0.00000E+00  9.000E+00
      21    -1     0     0   501   502  0.000000000E+00  0.000000000E+00 -1.496492857E+03  1.496492857E+03  0.000000000E+00  0.00000E+00  9.000E+00
      25     1     1     2     0     0  2.569250095E+02 -4.592814684E+02 -1.083267164E+03  1.210802493E+03  1.250000000E+02  0.00000E+00  9.000E+00
      25     1     1     2     0     0 -2.799392625E+02  3.455904073E+02 -2.746282642E+01  4.627936119E+02  1.250000000E+02  0.00000E+00  9.000E+00
      21     1     1     2   501   512  2.301425309E+01  1.136910611E+02 -7.208755491E+01  1.365720644E+02  1.651812370E-06  0.00000E+00  9.000E+00
#rwgt            1           1   2.7489814940345032E-002           2      175850           0
</event>
<event>
      5   9999  3.19816E-02  2.14661E+01 -1.00000E+00  1.63873E-01
      -5    -1     0     0     0   501  0.000000000E+00  0.000000000E+00  3.888237594E+02  3.888237594E+02  0.000000000E+00  0.00000E+00  9.000E+00
      21    -1     0     0   501   502  0.000000000E+00  0.000000000E+00 -1.900498701E+02  1.900498701E+02  0.000000000E+00  0.00000E+00  9.000E+00
      25     1     1     2     0     0  1.813854874E+02 -5.474544044E+01  5.421214982E+01  2.333703397E+02  1.250000000E+02  0.00000E+00  9.000E+00
      25     1     1     2     0     0 -1.602260600E+02  5.836117396E+01  1.259991849E+01  2.118069283E+02  1.250000000E+02  0.00000E+00  9.000E+00
      -5     1     1     2     0   502 -2.115942735E+01 -3.615733525E+00  1.319618210E+02  1.336963616E+02  1.907348633E-06  0.00000E+00  9.000E+00
#rwgt            1           1   2.6405007120835215E-002           2      175931           0
</event>
<event>
      5   9999  3.19816E-02  5.32432E+01 -1.00000E+00  1.37536E-01
      21    -1     0     0   502   501  0.000000000E+00  0.000000000E+00  9.523997891E+02  9.523997891E+02  0.000000000E+00  0.00000E+00  9.000E+00
      21    -1     0     0   501   511  0.000000000E+00  0.000000000E+00 -8.110920270E+02  8.110920270E+02  0.000000000E+00  0.00000E+00  9.000E+00
      25     1     1     2     0     0 -4.584943194E+02  5.422433429E+02  5.036557318E+02  8.795106481E+02  1.250000000E+02  0.00000E+00  9.000E+00
      25     1     1     2     0     0  4.429726325E+02 -5.931737938E+02 -3.540540967E+02  8.300959018E+02  1.250000000E+02  0.00000E+00  9.000E+00
      21     1     1     2   502   511  1.552168691E+01  5.093045085E+01 -8.293873088E+00  5.388526626E+01  9.684608465E-07  0.00000E+00  9.000E+00
#rwgt            1           1   2.3306761895705026E-002           2      176138           0
</event>
<event>
      5   9999  3.19816E-02  8.33606E+01 -1.00000E+00  1.27490E-01
       2    -1     0     0   502     0  0.000000000E+00  0.000000000E+00  2.412780184E+03  2.412780184E+03  0.000000000E+00  0.00000E+00  9.000E+00
      21    -1     0     0   501   502  0.000000000E+00  0.000000000E+00 -3.618846772E+02  3.618846772E+02  0.000000000E+00  0.00000E+00  9.000E+00
      25     1     1     2     0     0 -4.584465568E+02  7.089188051E+01 -8.092510552E+01  4.872091715E+02  1.250000000E+02  0.00000E+00  9.000E+00
      25     1     1     2     0     0  5.306410717E+02 -2.921522623E+01  8.987814379E+02  1.051601897E+03  1.250000000E+02  0.00000E+00  9.000E+00
       2     1     1     2   501     0 -7.219451491E+01 -4.167665428E+01  1.233039175E+03  1.235853793E+03  2.642899792E-05  0.00000E+00  9.000E+00
#rwgt            1           1   2.8223606303980481E-002           2      176296           0
</event>
<event>
      5   9999  3.19816E-02  4.78054E+01 -1.00000E+00  1.40197E-01
      21    -1     0     0   511   501  0.000000000E+00  0.000000000E+00  2.910747546E+02  2.910747546E+02  0.000000000E+00  0.00000E+00  9.000E+00
      21    -1     0     0   501   502  0.000000000E+00  0.000000000E+00 -3.152387052E+02  3.152387052E+02  0.000000000E+00  0.00000E+00  9.000E+00
      25     1     1     2     0     0  5.163465602E+01 -2.093355919E+02 -9.606114736E+01  2.670959973E+02  1.250000000E+02  0.00000E+00  9.000E+00
      25     1     1     2     0     0 -9.029922404E+01  1.812214740E+02 -1.671094294E+01  2.385360101E+02  1.250000000E+02  0.00000E+00  9.000E+00
      21     1     1     2   511   502  3.866456802E+01  2.811411790E+01  8.860813968E+01  1.006814524E+02  2.132480600E-06  0.00000E+00  9.000E+00
#rwgt            2          11   1.4038649631288782E-003           2      176432           0
</event>
<event>
      5   9999  3.19816E-02  5.85150E+01 -1.00000E+00  1.35288E-01
      21    -1     0     0   502   501  0.000000000E+00  0.000000000E+00  1.549939710E+02  1.549939710E+02  0.000000000E+00  0.00000E+00  9.000E+00
      21    -1     0     0   512   502  0.000000000E+00  0.000000000E+00 -8.065249071E+02  8.065249071E+02  0.000000000E+00  0.00000E+00  9.000E+00
      25     1     1     2     0     0 -1.370563195E+02 -2.588431334E+02 -3.194174011E+02  4.510395532E+02  1.250000000E+02  0.00000E+00  9.000E+00
      25     1     1     2     0     0  8.718019097E+01  2.894434820E+02 -2.616265818E+02  4.188691721E+02  1.250000000E+02  0.00000E+00  9.000E+00
      21     1     1     2   512   501  4.987612858E+01 -3.060034862E+01 -7.048695319E+01  9.161015287E+01  9.536743164E-07  0.00000E+00  9.000E+00
#rwgt            1           1   2.1915251203955485E-002           2      176467           0
</event>
<event>
      5   9999  3.19816E-02  1.19759E+01 -1.00000E+00  1.87120E-01
      21    -1     0     0   511   501  0.000000000E+00  0.000000000E+00  5.597328309E+02  5.597328309E+02  0.000000000E+00  0.00000E+00  9.000E+00
      21    -1     0     0   501   502  0.000000000E+00  0.000000000E+00 -1.288898214E+02  1.288898214E+02  0.000000000E+00  0.00000E+00  9.000E+00
      25     1     1     2     0     0  1.494733681E+02 -1.504064396E+02  1.420180241E+02  2.841804075E+02  1.250000000E+02  0.00000E+00  9.000E+00
      25     1     1     2     0     0 -1.607256674E+02  1.545060458E+02  2.281953939E+02  3.426412062E+02  1.250000000E+02  0.00000E+00  9.000E+00
      21     1     1     2   511   502  1.125229929E+01 -4.099606204E+00  6.062959147E+01  6.180103860E+01  6.743495762E-07  0.00000E+00  9.000E+00
#rwgt            1           1   2.8928019268692769E-002           2      176562           0
</event>
<event>
      5   9999  3.19816E-02  7.71964E+01 -1.00000E+00  1.29104E-01
      21    -1     0     0   502   512  0.000000000E+00  0.000000000E+00  1.667209174E+03  1.667209174E+03  0.000000000E+00  0.00000E+00  9.000E+00
      21    -1     0     0   501   502  0.000000000E+00  0.000000000E+00 -6.898360239E+02  6.898360239E+02  0.000000000E+00  0.00000E+00  9.000E+00
      25     1     1     2     0     0 -5.591441488E+02  2.949945735E+02 -4.521969557E+02  7.872553996E+02  1.250000000E+02  0.00000E+00  9.000E+00
      25     1     1     2     0     0  4.843534629E+02 -2.758729648E+02  1.266444866E+03  1.389320614E+03  1.250000000E+02  0.00000E+00  9.000E+00
      21     1     1     2   501   512  7.479068589E+01 -1.912160865E+01  1.631252399E+02  1.804691844E+02  3.303624740E-06  0.00000E+00  9.000E+00
#rwgt            1           1   4.1925500167631316E-002           2      176790           0
</event>
<event>
      5   9999  3.19816E-02  3.78116E+01 -1.00000E+00  1.46372E-01
       2    -1     0     0   502     0  0.000000000E+00  0.000000000E+00  1.180056198E+03  1.180056198E+03  0.000000000E+00  0.00000E+00  9.000E+00
      21    -1     0     0   501   502  0.000000000E+00  0.000000000E+00 -8.197865061E+02  8.197865061E+02  0.000000000E+00  0.00000E+00  9.000E+00
      25     1     1     2     0     0 -6.084436260E+01 -3.049202833E+02  4.290004850E+02  5.443756348E+02  1.250000000E+02  0.00000E+00  9.000E+00
      25     1     1     2     0     0  9.171006204E+01  3.267612036E+02 -7.186077938E+02  8.044910074E+02  1.250000000E+02  0.00000E+00  9.000E+00
       2     1     1     2   501     0 -3.086569943E+01 -2.184092036E+01  6.498770002E+02  6.509760615E+02  0.000000000E+00  0.00000E+00  9.000E+00
#rwgt            1           1   3.5067357284294345E-002           2      176913           0
</event>
<event>
      5   9999  3.19816E-02  4.43336E+01 -1.00000E+00  1.42123E-01
      21    -1     0     0   502   501  0.000000000E+00  0.000000000E+00  1.298188943E+03  1.298188943E+03  0.000000000E+00  0.00000E+00  9.000E+00
      21    -1     0     0   501   511  0.000000000E+00  0.000000000E+00 -4.417358156E+02  4.417358156E+02  0.000000000E+00  0.00000E+00  9.000E+00
      25     1     1     2     0     0 -1.275750308E+02  7.052770148E+02  6.327848882E+02  9.642265143E+02  1.250000000E+02  0.00000E+00  9.000E+00
      25     1     1     2     0     0  9.233636863E+01 -6.783752276E+02  2.247878754E+02  7.313504928E+02  1.250000000E+02  0.00000E+00  9.000E+00
      21     1     1     2   502   511  3.523866217E+01 -2.690178726E+01 -1.119636413E+00  4.434775140E+01  5.035622492E-07  0.00000E+00  9.000E+00
#rwgt            1           1   2.6564368299975456E-002           2      177043           0
</event>
<event>
      5   9999  3.19816E-02  5.58783E+02 -1.00000E+00  9.74997E-02
       1    -1     0     0   502     0  0.000000000E+00  0.000000000E+00  1.660762615E+03  1.660762615E+03  0.000000000E+00  0.00000E+00  9.000E+00
      21    -1     0     0   501   502  0.000000000E+00  0.000000000E+00 -8.544320345E+02  8.544320345E+02  0.000000000E+00  0.00000E+00  9.000E+00
      25     1     1     2     0     0  5.654228948E+01 -1.333841474E+02 -1.151110070E+02  2.233022732E+02  1.250000000E+02  0.00000E+00  9.000E+00
      25     1     1     2     0     0 -3.945382096E+02 -3.115846260E+02 -5.272540388E+02  7.391665573E+02  1.250000000E+02  0.00000E+00  9.000E+00
       1     1     1     2   501     0  3.379959201E+02  4.449687734E+02  1.448695626E+03  1.552725819E+03  3.051757812E-05  0.00000E+00  9.000E+00
#rwgt            2          17   1.1442095997839581E-002           2      177310           0
</event>
<event>
      5   9999  3.19816E-02  9.21652E+01 -1.00000E+00  1.25443E-01
      21    -1     0     0   511   501  0.000000000E+00  0.000000000E+00  1.674170089E+03  1.674170089E+03  0.000000000E+00  0.00000E+00  9.000E+00
      21    -1     0     0   501   502  0.000000000E+00  0.000000000E+00 -7.385936159E+02  7.385936159E+02  0.000000000E+00  0.00000E+00  9.000E+00
      25     1     1     2     0     0 -6.049409822E+02  8.347943593E+02  8.025125472E+02  1.312435371E+03  1.250000000E+02  0.00000E+00  9.000E+00
      25     1     1     2     0     0  6.095769896E+02 -7.427458028E+02  4.064953211E+01  9.698107126E+02  1.250000000E+02  0.00000E+00  9.000E+00
      21     1     1     2   511   502 -4.636007333E+00 -9.204855644E+01  9.241439371E+01  1.305176213E+02  2.336015456E-06  0.00000E+00  9.000E+00
#rwgt            1           1   1.5350953765207724E-002           2      177344           0
</event>
<event>
      5   9999  3.19816E-02  7.16244E+01 -1.00000E+00  1.30718E-01
      21    -1     0     0   502   501  0.000000000E+00  0.000000000E+00  3.316764151E+02  3.316764151E+02  0.000000000E+00  0.00000E+00  9.000E+00
      21    -1     0     0   512   502  0.000000000E+00  0.000000000E+00 -2.990841290E+02  2.990841290E+02  0.000000000E+00  0.00000E+00  9.000E+00
      25     1     1     2     0     0  1.552071539E+02 -1.796062907E+02  1.341203682E+02  2.999349154E+02  1.250000000E+02  0.00000E+00  9.000E+00
      25     1     1     2     0     0 -8.363710103E+01  1.823971909E+02 -4.755970952E+01  2.411448235E+02  1.250000000E+02  0.00000E+00  9.000E+00
      21     1     1     2   512   501 -7.157005288E+01 -2.790900191E+00 -5.396837254E+01  8.968080524E+01  6.743495762E-07  0.00000E+00  9.000E+00
#rwgt            1           1   2.7692470423247340E-002           2      177438           0
</event>
<event>
      5   9999  3.19816E-02  6.64535E+01 -1.00000E+00  1.32375E-01
      21    -1     0     0   502   501  0.000000000E+00  0.000000000E+00  9.301224924E+02  9.301224924E+02  0.000000000E+00  0.00000E+00  9.000E+00
      21    -1     0     0   511   502  0.000000000E+00  0.000000000E+00 -1.713430798E+03  1.713430798E+03  0.000000000E+00  0.00000E+00  9.000E+00
      25     1     1     2     0     0 -8.375322089E+02 -3.536921206E+02  4.739602406E+02  1.032870576E+03  1.250000000E+02  0.00000E+00  9.000E+00
      25     1     1     2     0     0  8.317401370E+02  4.198927354E+02 -1.182800389E+03  1.510875020E+03  1.250000000E+02  0.00000E+00  9.000E+00
      21     1     1     2   511   501  5.792071930E+00 -6.620061478E+01 -7.446815664E+01  9.980769434E+01  1.348699152E-06  0.00000E+00  9.000E+00
#rwgt            2          11   3.2355114345831160E-002           2      177527           0
</event>
<event>
      5   9999  3.19816E-02  2.10622E+02 -1.00000E+00  1.10836E-01
      21    -1     0     0   502   501  0.000000000E+00  0.000000000E+00  1.082011258E+03  1.082011258E+03  0.000000000E+00  0.00000E+00  9.000E+00
      21    -1     0     0   501   512  0.000000000E+00  0.000000000E+00 -2.999953551E+02  2.999953551E+02  0.000000000E+00  0.00000E+00  9.000E+00
      25     1     1     2     0     0  3.298001067E+02  4.131699332E+02  5.385218673E+02  7.649237254E+02  1.250000000E+02  0.00000E+00  9.000E+00
      25     1     1     2     0     0 -2.343989019E+02 -2.253923386E+02  2.010311678E+02  4.022226771E+02  1.250000000E+02  0.00000E+00  9.000E+00
      21     1     1     2   502   512 -9.540120475E+01 -1.877775946E+02  4.246286756E+01  2.148602104E+02  3.600041597E-06  0.00000E+00  9.000E+00
#rwgt            1           1   2.6231138763588523E-002           2      177547           0
</event>
<event>
      5   9999  3.19816E-02  8.36548E+01 -1.00000E+00  1.27417E-01
      21    -1     0     0   502   501  0.000000000E+00  0.000000000E+00  5.983868583E+02  5.983868583E+02  0.000000000E+00  0.00000E+00  9.000E+00
       2    -1     0     0   501     0  0.000000000E+00  0.000000000E+00 -1.455504284E+03  1.455504284E+03  0.000000000E+00  0.00000E+00  9.000E+00
      25     1     1     2     0     0  1.432807948E+02 -2.457438412E+02  5.282100788E+02  6.128215964E+02  1.250000000E+02  0.00000E+00  9.000E+00
      25     1     1     2     0     0 -7.660110452E+01  1.952270421E+02 -5.523431297E+02  6.038950738E+02  1.250000000E+02  0.00000E+00  9.000E+00
       2     1     1     2   502     0 -6.667969024E+01  5.051679911E+01 -8.329843747E+02  8.371744720E+02  0.000000000E+00  0.00000E+00  9.000E+00
#rwgt            1           1   3.1405075374810375E-002           2      177658           0
</event>
<event>
      5   9999  3.19816E-02  7.68596E+01 -1.00000E+00  1.29197E-01
      21    -1     0     0   502   501  0.000000000E+00  0.000000000E+00  1.420836345E+03  1.420836345E+03  0.000000000E+00  0.00000E+00  9.000E+00
      21    -1     0     0   511   502  0.000000000E+00  0.000000000E+00 -7.564333744E+01  7.564333744E+01  0.000000000E+00  0.00000E+00  9.000E+00
      25     1     1     2     0     0 -1.130564916E+02 -1.189444220E+02  4.009051731E+02  4.508652832E+02  1.250000000E+02  0.00000E+00  9.000E+00
      25     1     1     2     0     0  1.856857504E+02  1.440918122E+02  9.301125585E+02  9.674585365E+02  1.250000000E+02  0.00000E+00  9.000E+00
      21     1     1     2   511   501 -7.262925879E+01 -2.514739017E+01  1.417527622E+01  7.815586300E+01  7.725644944E-07  0.00000E+00  9.000E+00
#rwgt            1           1   2.8232408488790627E-002           2      177724           0
</event>
<event>
      5   9999  3.19816E-02  5.67020E+01 -1.00000E+00  1.36029E-01
      21    -1     0     0   502   512  0.000000000E+00  0.000000000E+00  3.808391766E+03  3.808391766E+03  0.000000000E+00  0.00000E+00  9.000E+00
      21    -1     0     0   501   502  0.000000000E+00  0.000000000E+00 -5.639282533E+01  5.639282533E+01  0.000000000E+00  0.00000E+00  9.000E+00
      25     1     1     2     0     0  1.696821507E+02  1.351076181E+02  4.313211922E+02  4.987074008E+02  1.250000000E+02  0.00000E+00  9.000E+00
      25     1     1     2     0     0 -2.028617001E+02 -1.810884450E+02  9.792645450E+02  1.023977511E+03  1.250000000E+02  0.00000E+00  9.000E+00
      21     1     1     2   501   512  3.317954946E+01  4.598082691E+01  2.341413203E+03  2.342099679E+03  3.051757812E-05  0.00000E+00  9.000E+00
#rwgt            1           1   2.6021495416534077E-002           2      177822           0
</event>
<event>
      5   9999  3.19816E-02  1.27619E+01 -1.00000E+00  1.84260E-01
      21    -1     0     0   502   501  0.000000000E+00  0.000000000E+00  6.120237905E+01  6.120237905E+01  0.000000000E+00  0.00000E+00  9.000E+00
       1    -1     0     0   501     0  0.000000000E+00  0.000000000E+00 -2.222586336E+03  2.222586336E+03  0.000000000E+00  0.00000E+00  9.000E+00
      25     1     1     2     0     0  1.785644444E+02  3.402360522E+01 -1.729195389E+02  2.803016829E+02  1.250000000E+02  0.00000E+00  9.000E+00
      25     1     1     2     0     0 -1.913208199E+02 -3.364656471E+01 -1.832679230E+03  1.847179988E+03  1.250000000E+02  0.00000E+00  9.000E+00
       1     1     1     2   502     0  1.275637555E+01 -3.770405152E-01 -1.557851878E+02  1.563070440E+02  0.000000000E+00  0.00000E+00  9.000E+00
#rwgt            2          12   9.5281256073702144E-005           2      177993           0
</event>
<event>
      5   9999  3.19816E-02  3.54287E+01 -1.00000E+00  1.48186E-01
      21    -1     0     0   511   501  0.000000000E+00  0.000000000E+00  1.960838353E+03  1.960838353E+03  0.000000000E+00  0.00000E+00  9.000E+00
      21    -1     0     0   501   502  0.000000000E+00  0.000000000E+00 -1.278667968E+02  1.278667968E+02  0.000000000E+00  0.00000E+00  9.000E+00
      25     1     1     2     0     0  2.438181909E+02  3.076718754E+02  4.293167102E+02  5.950185970E+02  1.250000000E+02  0.00000E+00  9.000E+00
      25     1     1     2     0     0 -2.649353781E+02 -3.361193108E+02  1.084554075E+03  1.172625041E+03  1.250000000E+02  0.00000E+00  9.000E+00
      21     1     1     2   511   502  2.111718726E+01  2.844743537E+01  3.191007703E+02  3.210615109E+02  3.814697266E-06  0.00000E+00  9.000E+00
#rwgt            1           1   2.7683987304730678E-002           2      178012           0
</event>
<event>
      5   9999  3.19816E-02  1.88037E+01 -1.00000E+00  1.68610E-01
      21    -1     0     0   502   512  0.000000000E+00  0.000000000E+00  1.057362850E+03  1.057362850E+03  0.000000000E+00  0.00000E+00  9.000E+00
      21    -1     0     0   501   502  0.000000000E+00  0.000000000E+00 -4.180552731E+01  4.180552731E+01  0.000000000E+00  0.00000E+00  9.000E+00
      25     1     1     2     0     0  1.053401813E+02 -1.277991899E+02  5.019707572E+02  5.431655620E+02  1.250000000E+02  0.00000E+00  9.000E+00
      25     1     1     2     0     0 -9.152231854E+01  1.150458512E+02  4.484206620E+02  4.881782182E+02  1.250000000E+02  0.00000E+00  9.000E+00
      21     1     1     2   501   512 -1.381786274E+01  1.275333871E+01  6.516590348E+01  6.782459698E+01  0.000000000E+00  0.00000E+00  9.000E+00
#rwgt            1           1   3.3513854282515729E-002           2      178154           0
</event>
<event>
      5   9999  3.19816E-02  1.02969E+02 -1.00000E+00  1.23259E-01
      21    -1     0     0   502   501  0.000000000E+00  0.000000000E+00  7.372223145E+01  7.372223145E+01  0.000000000E+00  0.00000E+00  9.000E+00
      21    -1     0     0   511   502  0.000000000E+00  0.000000000E+00 -1.617424061E+03  1.617424061E+03  0.000000000E+00  0.00000E+00  9.000E+00
      25     1     1     2     0     0 -1.331382985E+02 -1.537018412E+02 -5.852638809E+02  6.320671427E+02  1.250000000E+02  0.00000E+00  9.000E+00
      25     1     1     2     0     0  2.354663124E+02  1.651707969E+02 -5.078624028E+02  5.968877588E+02  1.250000000E+02  0.00000E+00  9.000E+00
      21     1     1     2   511   501 -1.023280139E+02 -1.146895579E+01 -4.505755454E+02  4.621913906E+02  5.394796609E-06  0.00000E+00  9.000E+00
#rwgt            2          11   1.9560418282781292E-003           2      178351           0
</event>
<event>
      5   9999  3.19816E-02  1.18646E+02 -1.00000E+00  1.20578E-01
      21    -1     0     0   512   501  0.000000000E+00  0.000000000E+00  1.852425790E+03  1.852425790E+03  0.000000000E+00  0.00000E+00  9.000E+00
      21    -1     0     0   501   502  0.000000000E+00  0.000000000E+00 -1.469692333E+02  1.469692333E+02  0.000000000E+00  0.00000E+00  9.000E+00
      25     1     1     2     0     0  3.047783722E+02 -1.643718129E+02  9.401968566E+02  1.009704451E+03  1.250000000E+02  0.00000E+00  9.000E+00
      25     1     1     2     0     0 -2.195890636E+02  2.469529658E+02  1.877126694E+02  4.000827045E+02  1.250000000E+02  0.00000E+00  9.000E+00
      21     1     1     2   512   502 -8.518930864E+01 -8.258115296E+01  5.775470307E+02  5.896078678E+02  1.525878906E-05  0.00000E+00  9.000E+00
#rwgt            1           1   3.3916132755857462E-002           2      178371           0
</event>
<event>
      5   9999  3.19816E-02  1.49118E+01 -1.00000E+00  1.77625E-01
      21    -1     0     0   502   501  0.000000000E+00  0.000000000E+00  6.700255889E+02  6.700255889E+02  0.000000000E+00  0.00000E+00  9.000E+00
      21    -1     0     0   511   502  0.000000000E+00  0.000000000E+00 -1.635896969E+02  1.635896969E+02  0.000000000E+00  0.00000E+00  9.000E+00
      25     1     1     2     0     0 -1.090625719E+02 -1.999591859E+02  1.105646186E+02  2.823612146E+02  1.250000000E+02  0.00000E+00  9.000E+00
      25     1     1     2     0     0  9.900533510E+01  1.889494963E+02  4.399819453E+02  5.046910746E+02  1.250000000E+02  0.00000E+00  9.000E+00
      21     1     1     2   511   501  1.005723678E+01  1.100968958E+01 -4.411067200E+01  4.656299668E+01  0.000000000E+00  0.00000E+00  9.000E+00
#rwgt            1           1   2.8096759945326070E-002           2      178503           0
</event>
<event>
      5   9999  3.19816E-02  3.05996E+02 -1.00000E+00  1.05314E-01
       1    -1     0     0   502     0  0.000000000E+00  0.000000000E+00  6.579201533E+02  6.579201533E+02  0.000000000E+00  0.00000E+00  9.000E+00
      21    -1     0     0   501   502  0.000000000E+00  0.000000000E+00 -1.554779972E+03  1.554779972E+03  0.000000000E+00  0.00000E+00  9.000E+00
      25     1     1     2     0     0  5.840843869E+02  6.085379417E+02 -3.013400135E+02  9.043803411E+02  1.250000000E+02  0.00000E+00  9.000E+00
      25     1     1     2     0     0 -2.788025920E+02 -6.294290762E+02 -6.953685781E+02  9.864452882E+02  1.250000000E+02  0.00000E+00  9.000E+00
       1     1     1     2   501     0 -3.052817949E+02  2.089113450E+01  9.984877285E+01  3.218744961E+02  5.722045898E-06  0.00000E+00  9.000E+00
#rwgt            1           1   2.1762283181844595E-002           2      178675           0
</event>
<event>
      5   9999  3.19816E-02  3.24410E+02 -1.00000E+00  1.04500E-01
      21    -1     0     0   502   511  0.000000000E+00  0.000000000E+00  6.468830487E+02  6.468830487E+02  0.000000000E+00  0.00000E+00  9.000E+00
      21    -1     0     0   501   502  0.000000000E+00  0.000000000E+00 -3.089804302E+03  3.089804302E+03  0.000000000E+00  0.00000E+00  9.000E+00
      25     1     1     2     0     0  1.279668986E+02 -7.100507366E+02 -2.144484487E+03  2.266050814E+03  1.250000000E+02  0.00000E+00  9.000E+00
      25     1     1     2     0     0 -1.763725152E+02  1.030829014E+03 -4.060963111E+02  1.128829010E+03  1.250000000E+02  0.00000E+00  9.000E+00
      21     1     1     2   501   511  4.840561662E+01 -3.207782777E+02  1.076595453E+02  3.418075260E+02  1.907348633E-06  0.00000E+00  9.000E+00
#rwgt            2          11   4.3094683053765282E-003           2      178756           0
</event>
<event>
      5   9999  3.19816E-02  2.04808E+01 -1.00000E+00  1.65522E-01
      21    -1     0     0   502   501  0.000000000E+00  0.000000000E+00  1.954145222E+02  1.954145222E+02  0.000000000E+00  0.00000E+00  9.000E+00
      21    -1     0     0   501   512  0.000000000E+00  0.000000000E+00 -8.965039480E+02  8.965039480E+02  0.000000000E+00  0.00000E+00  9.000E+00
      25     1     1     2     0     0  2.143574230E+02  5.850359909E+01  7.411572198E+01  2.654993712E+02  1.250000000E+02  0.00000E+00  9.000E+00
      25     1     1     2     0     0 -2.290470299E+02 -4.423199651E+01 -7.368547117E+02  7.829424484E+02  1.250000000E+02  0.00000E+00  9.000E+00
      21     1     1     2   502   512  1.468960690E+01 -1.427160258E+01 -3.835043613E+01  4.347665054E+01  1.168007728E-06  0.00000E+00  9.000E+00
#rwgt            1           1   2.9263691362415807E-002           2      178806           0
</event>
<event>
      5   9999  3.19816E-02  3.79807E+01 -1.00000E+00  1.46249E-01
      21    -1     0     0   502   501  0.000000000E+00  0.000000000E+00  7.340380913E+02  7.340380913E+02  0.000000000E+00  0.00000E+00  9.000E+00
      21    -1     0     0   501   511  0.000000000E+00  0.000000000E+00 -1.222172319E+03  1.222172319E+03  0.000000000E+00  0.00000E+00  9.000E+00
      25     1     1     2     0     0 -7.773797760E+01 -1.648764726E+02 -4.215048891E+02  4.759399289E+02  1.250000000E+02  0.00000E+00  9.000E+00
      25     1     1     2     0     0  9.937052810E+01  1.960945393E+02  6.837050627E+02  7.289754337E+02  1.250000000E+02  0.00000E+00  9.000E+00
      21     1     1     2   502   511 -2.163255050E+01 -3.121806669E+01 -7.503344017E+02  7.512950481E+02  1.525878906E-05  0.00000E+00  9.000E+00
#rwgt            1           1   2.8806118997025395E-002           2      179014           0
</event>
<event>
      5   9999  3.19816E-02  6.45566E+01 -1.00000E+00  1.33026E-01
      21    -1     0     0   512   501  0.000000000E+00  0.000000000E+00  1.669339580E+02  1.669339580E+02  0.000000000E+00  0.00000E+00  9.000E+00
      21    -1     0     0   501   502  0.000000000E+00  0.000000000E+00 -6.084631889E+02  6.084631889E+02  0.000000000E+00  0.00000E+00  9.000E+00
      25     1     1     2     0     0 -2.426075138E+02 -7.353623204E+01 -3.573686100E+02  4.556350586E+02  1.250000000E+02  0.00000E+00  9.000E+00
      25     1     1     2     0     0  1.804148748E+02  9.084590422E+01 -9.198583171E+01  2.547329947E+02  1.250000000E+02  0.00000E+00  9.000E+00
      21     1     1     2   512   502  6.219263906E+01 -1.730967218E+01  7.825210788E+00  6.502909370E+01  1.348699152E-06  0.00000E+00  9.000E+00
#rwgt            1           1   2.6632981474028008E-002           2      179148           0
</event>
<event>
      5   9999  3.19816E-02  9.04507E+01 -1.00000E+00  1.25821E-01
      21    -1     0     0   502   501  0.000000000E+00  0.000000000E+00  1.443734061E+03  1.443734061E+03  0.000000000E+00  0.00000E+00  9.000E+00
      21    -1     0     0   511   502  0.000000000E+00  0.000000000E+00 -1.154665001E+03  1.154665001E+03  0.000000000E+00  0.00000E+00  9.000E+00
      25     1     1     2     0     0  1.654246271E+02  7.201923007E+02  1.150337406E+03  1.372932411E+03  1.250000000E+02  0.00000E+00  9.000E+00
      25     1     1     2     0     0 -7.536266942E+01 -7.118151660E+02 -5.791200549E+02  9.291745802E+02  1.250000000E+02  0.00000E+00  9.000E+00
      21     1     1     2   511   501 -9.006195769E+01 -8.377134709E+00 -2.821482911E+02  2.962920700E+02  5.394796609E-06  0.00000E+00  9.000E+00
#rwgt            1           1   2.6931198679690977E-002           2      179235           0
</event>
<event>
      5   9999  3.19816E-02  1.01670E+02 -1.00000E+00  1.23505E-01
      21    -1     0     0   502   501  0.000000000E+00  0.000000000E+00  6.914895992E+02  6.914895992E+02  0.000000000E+00  0.00000E+00  9.000E+00
      21    -1     0     0   501   512  0.000000000E+00  0.000000000E+00 -1.039272262E+02  1.039272262E+02  0.000000000E+00  0.00000E+00  9.000E+00
      25     1     1     2     0     0 -1.383022615E+02 -5.153715912E+01  9.072390256E+01  2.136338475E+02  1.250000000E+02  0.00000E+00  9.000E+00
      25     1     1     2     0     0  6.797028481E+01  1.249546710E+02  3.941460714E+02  4.372753767E+02  1.250000000E+02  0.00000E+00  9.000E+00
      21     1     1     2   502   512  7.033197672E+01 -7.341751186E+01  1.026923990E+02  1.445076012E+02  1.348699152E-06  0.00000E+00  9.000E+00
#rwgt            1           1   2.8258380333518549E-002           2      179340           0
</event>
<event>
      5   9999  3.19816E-02  1.44446E+02 -1.00000E+00  1.17047E-01
      21    -1     0     0   502   501  0.000000000E+00  0.000000000E+00  4.857962612E+02  4.857962612E+02  0.000000000E+00  0.00000E+00  9.000E+00
      21    -1     0     0   511   502  0.000000000E+00  0.000000000E+00 -4.517416088E+02  4.517416088E+02  0.000000000E+00  0.00000E+00  9.000E+00
      25     1     1     2     0     0  2.803712526E+02 -2.823164174E+02  1.229023117E+02  4.347879679E+02  1.250000000E+02  0.00000E+00  9.000E+00
      25     1     1     2     0     0 -2.540744387E+02  1.402846798E+02  2.760573557E+01  3.172076424E+02  1.250000000E+02  0.00000E+00  9.000E+00
      21     1     1     2   511   501 -2.629681390E+01  1.420317376E+02 -1.164533949E+02  1.855422596E+02  1.348699152E-06  0.00000E+00  9.000E+00
#rwgt            1           1   2.9836537857384691E-002           2      179396           0
</event>
<event>
      5   9999  3.19816E-02  2.55824E+02 -1.00000E+00  1.07890E-01
      21    -1     0     0   502   501  0.000000000E+00  0.000000000E+00  6.109249902E+02  6.109249902E+02  0.000000000E+00  0.00000E+00  9.000E+00
      21    -1     0     0   501   512  0.000000000E+00  0.000000000E+00 -8.356919177E+02  8.356919177E+02  0.000000000E+00  0.00000E+00  9.000E+00
      25     1     1     2     0     0  2.937189919E+02  2.978955230E+02  1.044911233E+02  4.489498676E+02  1.250000000E+02  0.00000E+00  9.000E+00
      25     1     1     2     0     0 -4.731977498E+02 -4.801955747E+02 -2.506713998E+02  7.300445542E+02  1.250000000E+02  0.00000E+00  9.000E+00
      21     1     1     2   502   512  1.794787579E+02  1.823000518E+02 -7.858665100E+01  2.676224862E+02  5.046370146E-06  0.00000E+00  9.000E+00
#rwgt            1           1   3.0704469293264133E-002           2      179518           0
</event>
<event>
      5   9999  3.19816E-02  9.16684E+01 -1.00000E+00  1.25551E-01
      21    -1     0     0   502   501  0.000000000E+00  0.000000000E+00  4.762350208E+02  4.762350208E+02  0.000000000E+00  0.00000E+00  9.000E+00
      21    -1     0     0   501   511  0.000000000E+00  0.000000000E+00 -1.789498725E+03  1.789498725E+03  0.000000000E+00  0.00000E+00  9.000E+00
      25     1     1     2     0     0 -3.699418285E+02  3.984145956E+02 -4.248313665E+02  7.012116915E+02  1.250000000E+02  0.00000E+00  9.000E+00
      25     1     1     2     0     0  3.450816553E+02 -4.866476107E+02  5.925838236E+01  6.124081986E+02  1.250000000E+02  0.00000E+00  9.000E+00
      21     1     1     2   502   511  2.486017322E+01  8.823301512E+01 -9.476907199E+02  9.521138555E+02  1.868812365E-05  0.00000E+00  9.000E+00
#rwgt            1           1   2.7561712439071101E-002           2      179616           0
</event>
<event>
      5   9999  3.19816E-02  3.88178E+01 -1.00000E+00  1.45653E-01
      21    -1     0     0   512   501  0.000000000E+00  0.000000000E+00  4.822123756E+02  4.822123756E+02  0.000000000E+00  0.00000E+00  9.000E+00
      21    -1     0     0   501   502  0.000000000E+00  0.000000000E+00 -8.111444190E+01  8.111444190E+01  0.000000000E+00  0.00000E+00  9.000E+00
      25     1     1     2     0     0 -4.320970203E+01  1.114654985E+02  2.418723247E+02  2.973530850E+02  1.250000000E+02  0.00000E+00  9.000E+00
      25     1     1     2     0     0  7.290369563E+01 -8.646365924E+01  1.026611068E+02  1.973707578E+02  1.250000000E+02  0.00000E+00  9.000E+00
      21     1     1     2   512   502 -2.969399361E+01 -2.500183924E+01  5.656450227E+01  6.860297470E+01  0.000000000E+00  0.00000E+00  9.000E+00
#rwgt            1           1   2.8430932157889693E-002           2      179716           0
</event>
<event>
      5   9999  3.19816E-02  1.87827E+02 -1.00000E+00  1.12650E-01
      21    -1     0     0   502   501  0.000000000E+00  0.000000000E+00  8.389771978E+02  8.389771978E+02  0.000000000E+00  0.00000E+00  9.000E+00
      21    -1     0     0   501   511  0.000000000E+00  0.000000000E+00 -4.810845074E+02  4.810845074E+02  0.000000000E+00  0.00000E+00  9.000E+00
      25     1     1     2     0     0 -1.093100028E+02  4.612294745E+02  1.047886844E+02  5.012853211E+02  1.250000000E+02  0.00000E+00  9.000E+00
      25     1     1     2     0     0  2.963983121E+02 -4.778736874E+02  2.572893148E+02  6.309025377E+02  1.250000000E+02  0.00000E+00  9.000E+00
      21     1     1     2   502   511 -1.870883093E+02  1.664421296E+01 -4.185308817E+00  1.878738463E+02  2.423352164E-06  0.00000E+00  9.000E+00
#rwgt            1           1   3.0713364700965452E-002           2      179816           0
</event>
<event>
      5   9999  3.72882E-02  4.11699E+01 -1.00000E+00  1.44068E-01
      21    -1     0     0   502   501  0.000000000E+00  0.000000000E+00  1.700493295E+03  1.700493295E+03  0.000000000E+00  0.00000E+00  9.000E+00
      21    -1     0     0   501   512  0.000000000E+00  0.000000000E+00 -7.025186437E+01  7.025186437E+01  0.000000000E+00  0.00000E+00  9.000E+00
      25     1     1     2     0     0  9.877228914E+01 -3.086646694E+01  4.592048774E+02  4.870347250E+02  1.250000000E+02  0.00000E+00  9.000E+00
      25     1     1     2     0     0 -1.378289670E+02  1.784589285E+01  1.211588386E+03  1.225922802E+03  1.250000000E+02  0.00000E+00  9.000E+00
      21     1     1     2   502   512  3.905667787E+01  1.302057408E+01 -4.055183202E+01  5.778763290E+01  1.261592536E-06  0.00000E+00  9.000E+00
#rwgt            1           1  0.10359627631447621                2      179898           0
</event>
<event>
      5   9999  3.19816E-02  2.01028E+01 -1.00000E+00  1.66186E-01
      21    -1     0     0   502   501  0.000000000E+00  0.000000000E+00  1.866045606E+02  1.866045606E+02  0.000000000E+00  0.00000E+00  9.000E+00
      21    -1     0     0   511   502  0.000000000E+00  0.000000000E+00 -6.209045518E+02  6.209045518E+02  0.000000000E+00  0.00000E+00  9.000E+00
      25     1     1     2     0     0 -8.902224825E+01 -2.064625484E+02  3.837278357E+01  2.600946272E+02  1.250000000E+02  0.00000E+00  9.000E+00
      25     1     1     2     0     0  6.924132897E+01  2.100453263E+02 -4.177810266E+02  4.889574490E+02  1.250000000E+02  0.00000E+00  9.000E+00
      21     1     1     2   511   501  1.978091928E+01 -3.582777885E+00 -5.489174821E+01  5.845703625E+01  6.743495762E-07  0.00000E+00  9.000E+00
#rwgt            1           1   2.5833591743150624E-002           2      179988           0
</event>
<event>
      5   9999  3.19816E-02  1.85173E+01 -1.00000E+00  1.69177E-01
      21    -1     0     0   512   501  0.000000000E+00  0.000000000E+00  3.968953441E+02  3.968953441E+02  0.000000000E+00  0.00000E+00  9.000E+00
      21    -1     0     0   501   502  0.000000000E+00  0.000000000E+00 -1.536517548E+02  1.536517548E+02  0.000000000E+00  0.00000E+00  9.000E+00
      25     1     1     2     0     0  9.467268656E+01 -3.569212188E+01  3.110996897E+02  3.502068847E+02  1.250000000E+02  0.00000E+00  9.000E+00
      25     1     1     2     0     0 -8.518642909E+01  5.159500140E+01 -7.946035587E+01  1.784873105E+02  1.250000000E+02  0.00000E+00  9.000E+00
      21     1     1     2   512   502 -9.486257464E+00 -1.590287952E+01  1.160425546E+01  2.185290376E+01  2.384185791E-07  0.00000E+00  9.000E+00
#rwgt            1           1   2.5870187138247160E-002           2      180167           0
</event>
<event>
      5   9999  3.19816E-02  4.84565E+01 -1.00000E+00  1.39857E-01
      21    -1     0     0   502   501  0.000000000E+00  0.000000000E+00  5.200429465E+02  5.200429465E+02  0.000000000E+00  0.00000E+00  9.000E+00
      21    -1     0     0   501   511  0.000000000E+00  0.000000000E+00 -1.693795329E+02  1.693795329E+02  0.000000000E+00  0.00000E+00  9.000E+00
      25     1     1     2     0     0 -5.453080376E+01 -2.090673818E+01 -3.574993912E+01  1.425263429E+02  1.250000000E+02  0.00000E+00  9.000E+00
      25     1     1     2     0     0  9.169749090E+01  5.199806797E+01  4.431078238E+02  4.723153316E+02  1.250000000E+02  0.00000E+00  9.000E+00
      21     1     1     2   502   511 -3.716668713E+01 -3.109132979E+01 -5.669447111E+01  7.458080500E+01  1.168007728E-06  0.00000E+00  9.000E+00
#rwgt            1           1   2.6950300159892880E-002           2      180313           0
</event>
<event>
      5   9999  3.19816E-02  1.19865E+01 -1.00000E+00  1.87079E-01
      21    -1     0     0   502   512  0.000000000E+00  0.000000000E+00  5.074136113E+02  5.074136113E+02  0.000000000E+00  0.00000E+00  9.000E+00
      21    -1     0     0   501   502  0.000000000E+00  0.000000000E+00 -3.993553852E+02  3.993553852E+02  0.000000000E+00  0.00000E+00  9.000E+00
      25     1     1     2     0     0 -5.596833382E+00  6.210563561E+01  8.896676436E+01  1.656155780E+02  1.250000000E+02  0.00000E+00  9.000E+00
      25     1     1     2     0     0  1.737483460E+01 -6.433154868E+01 -3.470345865E+02  3.748312117E+02  1.250000000E+02  0.00000E+00  9.000E+00
      21     1     1     2   501   512 -1.177800121E+01  2.225913062E+00  3.661260482E+02  3.663222068E+02  5.394796609E-06  0.00000E+00  9.000E+00
#rwgt            1           1   2.7688264016176335E-002           2      180369           0
</event>
<event>
      5   9999  3.19816E-02  1.54429E+02 -1.00000E+00  1.15895E-01
      21    -1     0     0   502   501  0.000000000E+00  0.000000000E+00  2.675227855E+02  2.675227855E+02  0.000000000E+00  0.00000E+00  9.000E+00
       2    -1     0     0   501     0  0.000000000E+00  0.000000000E+00 -2.668138613E+03  2.668138613E+03  0.000000000E+00  0.00000E+00  9.000E+00
      25     1     1     2     0     0  5.085434486E+01  2.585478210E+02 -3.030679648E+02  4.206047211E+02  1.250000000E+02  0.00000E+00  9.000E+00
      25     1     1     2     0     0 -1.986520300E+02 -3.033160221E+02  2.740591289E+01  3.844987937E+02  1.250000000E+02  0.00000E+00  9.000E+00
       2     1     1     2   502     0  1.477976851E+02  4.476820109E+01 -2.124953776E+03  2.130557884E+03  3.051757812E-05  0.00000E+00  9.000E+00
#rwgt            2          13   2.8202006035502897E-003           2      180685           0
</event>
<event>
      5   9999  3.19816E-02  6.63449E+01 -1.00000E+00  1.32411E-01
      21    -1     0     0   502   501  0.000000000E+00  0.000000000E+00  5.037313979E+02  5.037313979E+02  0.000000000E+00  0.00000E+00  9.000E+00
      21    -1     0     0   511   502  0.000000000E+00  0.000000000E+00 -6.718423086E+02  6.718423086E+02  0.000000000E+00  0.00000E+00  9.000E+00
      25     1     1     2     0     0  4.820657860E+02  4.871737558E+01  5.058120016E+01  5.029356446E+02  1.250000000E+02  0.00000E+00  9.000E+00
      25     1     1     2     0     0 -5.482709809E+02 -5.302001249E+01 -1.684536343E+02  5.894182022E+02  1.250000000E+02  0.00000E+00  9.000E+00
      21     1     1     2   511   501  6.620519485E+01  4.302636912E+00 -5.023847660E+01  8.321985966E+01  9.536743164E-07  0.00000E+00  9.000E+00
#rwgt            1           1   2.3324595620812568E-002           2      180719           0
</event>
<event>
      5   9999  3.19816E-02  3.43860E+01 -1.00000E+00  1.49035E-01
      21    -1     0     0   502   512  0.000000000E+00  0.000000000E+00  1.262037812E+03  1.262037812E+03  0.000000000E+00  0.00000E+00  9.000E+00
      21    -1     0     0   501   502  0.000000000E+00  0.000000000E+00 -3.734439032E+02  3.734439032E+02  0.000000000E+00  0.00000E+00  9.000E+00
      25     1     1     2     0     0 -3.442946000E+02 -6.605087831E+01 -2.309868175E+02  4.380426920E+02  1.250000000E+02  0.00000E+00  9.000E+00
      25     1     1     2     0     0  3.531723964E+02  9.927110773E+01  9.842579774E+02  1.057815797E+03  1.250000000E+02  0.00000E+00  9.000E+00
      21     1     1     2   501   512 -8.877796428E+00 -3.322022943E+01  1.353227485E+02  1.396232258E+02  0.000000000E+00  0.00000E+00  9.000E+00
#rwgt            1           1   2.9361728795474280E-002           2      180829           0
</event>
<event>
      5   9999  3.19816E-02  1.26511E+01 -1.00000E+00  1.84647E-01
      21    -1     0     0   502   501  0.000000000E+00  0.000000000E+00  6.249534735E+02  6.249534735E+02  0.000000000E+00  0.00000E+00  9.000E+00
      -2    -1     0     0     0   502  0.000000000E+00  0.000000000E+00 -5.439998966E+02  5.439998966E+02  0.000000000E+00  0.00000E+00  9.000E+00
      25     1     1     2     0     0 -3.782931254E+01 -2.759716620E+02  4.960393958E+02  5.824701686E+02  1.250000000E+02  0.00000E+00  9.000E+00
      25     1     1     2     0     0  2.551347797E+01  2.788650611E+02 -1.893847844E+02  3.604278797E+02  1.250000000E+02  0.00000E+00  9.000E+00
      -2     1     1     2     0   501  1.231583457E+01 -2.893399099E+00 -2.257010346E+02  2.260553219E+02  2.697398305E-06  0.00000E+00  9.000E+00
#rwgt            1           1   2.8599680907098607E-002           2      180996           0
</event>
<event>
      5   9999  3.19816E-02  1.68111E+02 -1.00000E+00  1.14465E-01
      21    -1     0     0   502   501  0.000000000E+00  0.000000000E+00  5.057629119E+02  5.057629119E+02  0.000000000E+00  0.00000E+00  9.000E+00
      21    -1     0     0   511   502  0.000000000E+00  0.000000000E+00 -3.518179918E+02  3.518179918E+02  0.000000000E+00  0.00000E+00  9.000E+00
      25     1     1     2     0     0 -3.382881935E+02  4.709269335E+01  2.105360615E+02  4.202464239E+02  1.250000000E+02  0.00000E+00  9.000E+00
      25     1     1     2     0     0  1.927018611E+02 -1.311508422E+02 -1.975408910E+01  2.652353195E+02  1.250000000E+02  0.00000E+00  9.000E+00
      21     1     1     2   511   501  1.455863324E+02  8.405814880E+01 -3.683705220E+01  1.720991603E+02  4.074098466E-06  0.00000E+00  9.000E+00
#rwgt            1           1   2.8808571037637249E-002           2      181209           0
</event>
<event>
      5   9999  3.19816E-02  6.16037E+01 -1.00000E+00  1.34094E-01
      21    -1     0     0   512   501  0.000000000E+00  0.000000000E+00  3.200793132E+02  3.200793132E+02  0.000000000E+00  0.00000E+00  9.000E+00
      21    -1     0     0   501   502  0.000000000E+00  0.000000000E+00 -6.990448113E+02  6.990448113E+02  0.000000000E+00  0.00000E+00  9.000E+00
      25     1     1     2     0     0 -2.396859861E+02 -2.305477273E+02  1.148578154E+02  3.733884630E+02  1.250000000E+02  0.00000E+00  9.000E+00
      25     1     1     2     0     0  1.794461808E+02  2.434390200E+02 -4.826465920E+02  5.831262479E+02  1.250000000E+02  0.00000E+00  9.000E+00
      21     1     1     2   512   502  6.023980539E+01 -1.289129275E+01 -1.117672155E+01  6.260941372E+01  9.902267293E-07  0.00000E+00  9.000E+00
#rwgt            1           1   3.0162408277079267E-002           2      181309           0
</event>
<event>
      5   9999  3.19816E-02  1.54976E+02 -1.00000E+00  1.15835E-01
      21    -1     0     0   502   501  0.000000000E+00  0.000000000E+00  1.581347197E+02  1.581347197E+02  0.000000000E+00  0.00000E+00  9.000E+00
       2    -1     0     0   501     0  0.000000000E+00  0.000000000E+00 -1.154171240E+03  1.154171240E+03  0.000000000E+00  0.00000E+00  9.000E+00
      25     1     1     2     0     0  1.586463478E+02  1.086840037E+02 -2.531597437E+02  3.416075704E+02  1.250000000E+02  0.00000E+00  9.000E+00
      25     1     1     2     0     0 -3.135442028E+02 -1.037703831E+02 -1.993657115E+02  4.055242859E+02  1.250000000E+02  0.00000E+00  9.000E+00
       2     1     1     2   502     0  1.548978550E+02 -4.913620580E+00 -5.435110656E+02  5.651741038E+02  7.629394531E-06  0.00000E+00  9.000E+00
#rwgt            2          13   7.1065239506935254E-004           2      181552           0
</event>
<event>
      5   9999  3.19816E-02  7.12939E+01 -1.00000E+00  1.30819E-01
      21    -1     0     0   502   501  0.000000000E+00  0.000000000E+00  9.377468580E+02  9.377468580E+02  0.000000000E+00  0.00000E+00  9.000E+00
       2    -1     0     0   501     0  0.000000000E+00  0.000000000E+00 -2.645143913E+03  2.645143913E+03  0.000000000E+00  0.00000E+00  9.000E+00
      25     1     1     2     0     0 -2.489691984E+02 -6.213226111E+01  3.713339538E+02  4.683588206E+02  1.250000000E+02  0.00000E+00  9.000E+00
      25     1     1     2     0     0  3.172824235E+02  4.173298986E+01  4.603674731E+02  5.744327541E+02  1.250000000E+02  0.00000E+00  9.000E+00
       2     1     1     2   502     0 -6.831322516E+01  2.039927126E+01 -2.539098482E+03  2.540099196E+03  0.000000000E+00  0.00000E+00  9.000E+00
#rwgt            1           1   2.8815249344858029E-002           2      181661           0
</event>
<event>
      5   9999  3.19816E-02  4.49481E+01 -1.00000E+00  1.41767E-01
      21    -1     0     0   502   501  0.000000000E+00  0.000000000E+00  8.596901075E+02  8.596901075E+02  0.000000000E+00  0.00000E+00  9.000E+00
      21    -1     0     0   501   511  0.000000000E+00  0.000000000E+00 -6.617931341E+02  6.617931341E+02  0.000000000E+00  0.00000E+00  9.000E+00
      25     1     1     2     0     0 -1.588153246E+02  7.249478556E+01  7.799817253E+02  8.089958548E+02  1.250000000E+02  0.00000E+00  9.000E+00
      25     1     1     2     0     0  1.785913957E+02 -1.128586179E+02 -1.714964741E+02  2.994461469E+02  1.250000000E+02  0.00000E+00  9.000E+00
      21     1     1     2   502   511 -1.977607104E+01  4.036383235E+01 -4.105882779E+02  4.130412399E+02  5.394796609E-06  0.00000E+00  9.000E+00
#rwgt            1           1   2.8432108130415711E-002           2      181748           0
</event>
<event>
      5   9999  3.19816E-02  2.17258E+01 -1.00000E+00  1.63457E-01
      21    -1     0     0   502   512  0.000000000E+00  0.000000000E+00  2.760890177E+02  2.760890177E+02  0.000000000E+00  0.00000E+00  9.000E+00
      21    -1     0     0   501   502  0.000000000E+00  0.000000000E+00 -4.745903935E+02  4.745903935E+02  0.000000000E+00  0.00000E+00  9.000E+00
      25     1     1     2     0     0 -1.927939668E+02 -1.602199564E+02 -3.343018072E+02  4.361452124E+02  1.250000000E+02  0.00000E+00  9.000E+00
      25     1     1     2     0     0  1.746505816E+02  1.482689289E+02  1.320499484E+02  2.924870763E+02  1.250000000E+02  0.00000E+00  9.000E+00
      21     1     1     2   501   512  1.814338516E+01  1.195102751E+01  3.750483052E+00  2.204712241E+01  1.737759082E-07  0.00000E+00  9.000E+00
#rwgt            1           1   2.8321171592541380E-002           2      181830           0
</event>
<event>
      5   9999  3.19816E-02  3.50494E+00 -1.00000E+00  2.77767E-01
      21    -1     0     0   502   511  0.000000000E+00  0.000000000E+00  1.068482344E+03  1.068482344E+03  0.000000000E+00  0.00000E+00  9.000E+00
      21    -1     0     0   501   502  0.000000000E+00  0.000000000E+00 -4.637833196E+02  4.637833196E+02  0.000000000E+00  0.00000E+00  9.000E+00
      25     1     1     2     0     0  5.021952521E+02 -1.704501812E+01  8.138259516E+02  9.645871051E+02  1.250000000E+02  0.00000E+00  9.000E+00
      25     1     1     2     0     0 -4.991045475E+02  1.539209294E+01 -2.173375165E+02  5.587511628E+02  1.250000000E+02  0.00000E+00  9.000E+00
      21     1     1     2   501   511 -3.090704617E+00  1.652925183E+00  8.210589325E+00  8.927395687E+00  1.192092896E-07  0.00000E+00  9.000E+00
#rwgt            1           1   2.9064255072173417E-002           2      182014           0
</event>
<event>
      5   9999  3.19816E-02  2.78896E+02 -1.00000E+00  1.06632E-01
      21    -1     0     0   502   501  0.000000000E+00  0.000000000E+00  1.227923411E+03  1.227923411E+03  0.000000000E+00  0.00000E+00  9.000E+00
      21    -1     0     0   501   512  0.000000000E+00  0.000000000E+00 -1.612602659E+02  1.612602659E+02  0.000000000E+00  0.00000E+00  9.000E+00
      25     1     1     2     0     0 -2.866827301E+01  3.600011741E+02  4.243112654E+02  5.710409488E+02  1.250000000E+02  0.00000E+00  9.000E+00
      25     1     1     2     0     0 -2.698427413E+01 -8.671447296E+01  4.591704624E+02  4.844688477E+02  1.250000000E+02  0.00000E+00  9.000E+00
      21     1     1     2   502   512  5.565254714E+01 -2.732867011E+02  1.831814177E+02  3.336738809E+02  4.672030912E-06  0.00000E+00  9.000E+00
#rwgt            1           1   3.3013055055180110E-002           2      182727           0
</event>
<event>
      5   9999  3.19816E-02  1.71762E+02 -1.00000E+00  1.14109E-01
      -3    -1     0     0     0   501  0.000000000E+00  0.000000000E+00  1.050989965E+03  1.050989965E+03  0.000000000E+00  0.00000E+00  9.000E+00
      21    -1     0     0   501   502  0.000000000E+00  0.000000000E+00 -1.645019993E+02  1.645019993E+02  0.000000000E+00  0.00000E+00  9.000E+00
      25     1     1     2     0     0  5.284197097E+01 -1.818019132E+02  1.572860798E+02  2.760581830E+02  1.250000000E+02  0.00000E+00  9.000E+00
      25     1     1     2     0     0 -3.970136777E+01  3.530601292E+02  3.148788919E+02  4.909189037E+02  1.250000000E+02  0.00000E+00  9.000E+00
      -3     1     1     2     0   502 -1.314060320E+01 -1.712582161E+02  4.143229936E+02  4.485148772E+02  7.629394531E-06  0.00000E+00  9.000E+00
#rwgt            1           1   2.9063621637869758E-002           2      182772           0
</event>
<event>
      5   9999  3.19816E-02  5.49709E+01 -1.00000E+00  1.36767E-01
      21    -1     0     0   502   511  0.000000000E+00  0.000000000E+00  7.722341438E+02  7.722341438E+02  0.000000000E+00  0.00000E+00  9.000E+00
      21    -1     0     0   501   502  0.000000000E+00  0.000000000E+00 -2.437136321E+02  2.437136321E+02  0.000000000E+00  0.00000E+00  9.000E+00
      25     1     1     2     0     0 -2.832309858E+02  1.413450712E+02 -3.819028282E+01  3.424641853E+02  1.250000000E+02  0.00000E+00  9.000E+00
      25     1     1     2     0     0  2.647166509E+02 -8.958583365E+01  5.074919944E+02  5.926834326E+02  1.250000000E+02  0.00000E+00  9.000E+00
      21     1     1     2   501   511  1.851433494E+01 -5.175923755E+01  5.921880003E+01  8.080015809E+01  6.743495762E-07  0.00000E+00  9.000E+00
#rwgt            1           1   2.9121217287276773E-002           2      182827           0
</event>
<event>
      5   9999  3.19816E-02  5.95972E+01 -1.00000E+00  1.34860E-01
      21    -1     0     0   502   501  0.000000000E+00  0.000000000E+00  3.672084775E+02  3.672084775E+02  0.000000000E+00  0.00000E+00  9.000E+00
      21    -1     0     0   501   512  0.000000000E+00  0.000000000E+00 -8.409523343E+02  8.409523343E+02  0.000000000E+00  0.00000E+00  9.000E+00
      25     1     1     2     0     0  4.733247488E+01 -1.460682521E+02  1.090576693E+02  2.260417499E+02  1.250000000E+02  0.00000E+00  9.000E+00
      25     1     1     2     0     0  4.768376644E+00  1.171315465E+02  1.614747702E+02  2.354604808E+02  1.250000000E+02  0.00000E+00  9.000E+00
      21     1     1     2   502   512 -5.210085153E+01  2.893670555E+01 -7.442762963E+02  7.466585812E+02  0.000000000E+00  0.00000E+00  9.000E+00
#rwgt            1           1   2.7679627775452107E-002           2      182955           0
</event>
<event>
      5   9999  3.19816E-02  2.09448E+02 -1.00000E+00  1.10923E-01
      21    -1     0     0   502   501  0.000000000E+00  0.000000000E+00  2.617584382E+02  2.617584382E+02  0.000000000E+00  0.00000E+00  9.000E+00
      21    -1     0     0   501   511  0.000000000E+00  0.000000000E+00 -1.147944423E+03  1.147944423E+03  0.000000000E+00  0.00000E+00  9.000E+00
      25     1     1     2     0     0 -3.509277712E+02 -7.306424628E+00 -3.387490291E+02  5.035668666E+02  1.250000000E+02  0.00000E+00  9.000E+00
      25     1     1     2     0     0  2.306665248E+02  1.787878089E+02  2.678771241E+00  3.174969324E+02  1.250000000E+02  0.00000E+00  9.000E+00
      21     1     1     2   502   511  1.202612464E+02 -1.714813843E+02 -5.501157270E+02  5.886390623E+02  7.629394531E-06  0.00000E+00  9.000E+00
#rwgt            1           1   2.8059780249831835E-002           2      183068           0
</event>
<event>
      5   9999  3.68186E-02  1.38924E+02 -1.00000E+00  1.17729E-01
      21    -1     0     0   502   501  0.000000000E+00  0.000000000E+00  3.977865842E+01  3.977865842E+01  0.000000000E+00  0.00000E+00  9.000E+00
       2    -1     0     0   501     0  0.000000000E+00  0.000000000E+00 -2.232061579E+03  2.232061579E+03  0.000000000E+00  0.00000E+00  9.000E+00
      25     1     1     2     0     0 -1.249646812E+02 -1.814716161E+02 -7.972348550E+02  8.365145145E+02  1.250000000E+02  0.00000E+00  9.000E+00
      25     1     1     2     0     0  1.272177137E+02  4.256617891E+01 -9.972558862E+02  1.013972647E+03  1.250000000E+02  0.00000E+00  9.000E+00
       2     1     1     2   502     0 -2.253032498E+00  1.389054372E+02 -3.977921798E+02  4.213530763E+02  5.394796609E-06  0.00000E+00  9.000E+00
#rwgt            1           1  0.10946264179346321                2      183145           0
</event>
<event>
      5   9999  3.19816E-02  2.03474E+01 -1.00000E+00  1.65754E-01
      21    -1     0     0   511   501  0.000000000E+00  0.000000000E+00  2.672745997E+02  2.672745997E+02  0.000000000E+00  0.00000E+00  9.000E+00
      21    -1     0     0   501   502  0.000000000E+00  0.000000000E+00 -1.562387138E+03  1.562387138E+03  0.000000000E+00  0.00000E+00  9.000E+00
      25     1     1     2     0     0 -1.133033163E+01  3.328595294E+02 -1.395498216E+03  1.440126423E+03  1.250000000E+02  0.00000E+00  9.000E+00
      25     1     1     2     0     0  3.116012797E+01 -3.282991323E+02  1.063062988E+02  3.683440009E+02  1.250000000E+02  0.00000E+00  9.000E+00
      21     1     1     2   511   502 -1.982979634E+01 -4.560397115E+00 -5.920621429E+00  2.119131432E+01  4.129530925E-07  0.00000E+00  9.000E+00
#rwgt            1           1   2.9604193263297274E-002           2      183203           0
</event>
<event>
      5   9999  3.19816E-02  3.14695E+02 -1.00000E+00  1.04922E-01
      21    -1     0     0   502   501  0.000000000E+00  0.000000000E+00  2.884252465E+02  2.884252465E+02  0.000000000E+00  0.00000E+00  9.000E+00
       1    -1     0     0   501     0  0.000000000E+00  0.000000000E+00 -2.423632289E+03  2.423632289E+03  0.000000000E+00  0.00000E+00  9.000E+00
      25     1     1     2     0     0 -2.214582395E+02  2.538587796E+02 -5.083273549E+02  6.225027964E+02  1.250000000E+02  0.00000E+00  9.000E+00
      25     1     1     2     0     0  8.235908205E+01  2.842574725E+01  1.911741163E+02  2.444659164E+02  1.250000000E+02  0.00000E+00  9.000E+00
       1     1     1     2   502     0  1.390991575E+02 -2.822845268E+02 -1.818053804E+03  1.845088823E+03  3.737624730E-05  0.00000E+00  9.000E+00
#rwgt            1           1   2.7504039013403713E-002           2      183378           0
</event>
<event>
      5   9999  3.19816E-02  4.82664E+01 -1.00000E+00  1.39956E-01
      21    -1     0     0   502   501  0.000000000E+00  0.000000000E+00  3.575696403E+02  3.575696403E+02  0.000000000E+00  0.00000E+00  9.000E+00
      21    -1     0     0   501   511  0.000000000E+00  0.000000000E+00 -1.287592028E+03  1.287592028E+03  0.000000000E+00  0.00000E+00  9.000E+00
      25     1     1     2     0     0 -5.336967671E+02 -2.836723803E+01  9.403033905E+00  5.489538746E+02  1.250000000E+02  0.00000E+00  9.000E+00
      25     1     1     2     0     0  5.012652283E+02 -7.379666754E+00 -8.592226454E+02  1.002601537E+03  1.250000000E+02  0.00000E+00  9.000E+00
      21     1     1     2   502   511  3.243153877E+01  3.574690478E+01 -8.020277670E+01  9.360625673E+01  0.000000000E+00  0.00000E+00  9.000E+00
#rwgt            1           1   3.0137780398508524E-002           2      183443           0
</event>
<event>
      5   9999  3.19816E-02  5.12491E+01 -1.00000E+00  1.38467E-01
      -1    -1     0     0     0   501  0.000000000E+00  0.000000000E+00  4.926678879E+02  4.926678879E+02  0.000000000E+00  0.00000E+00  9.000E+00
      21    -1     0     0   501   502  0.000000000E+00  0.000000000E+00 -1.072672915E+03  1.072672915E+03  0.000000000E+00  0.00000E+00  9.000E+00
      25     1     1     2     0     0  3.006817493E+02  3.047444999E+02  2.684932213E+02  5.205692408E+02  1.250000000E+02  0.00000E+00  9.000E+00
      25     1     1     2     0     0 -3.475583462E+02 -3.254581501E+02 -8.611990827E+02  9.919721123E+02  1.250000000E+02  0.00000E+00  9.000E+00
      -1     1     1     2     0   502  4.687659693E+01  2.071365020E+01  1.270083474E+01  5.279944931E+01  3.769728732E-07  0.00000E+00  9.000E+00
#rwgt            1           1   3.0092693644180900E-002           2      183557           0
</event>
<event>
      5   9999  3.19816E-02  1.61238E+02 -1.00000E+00  1.15164E-01
      21    -1     0     0   502   511  0.000000000E+00  0.000000000E+00  1.323727160E+03  1.323727160E+03  0.000000000E+00  0.00000E+00  9.000E+00
      21    -1     0     0   501   502  0.000000000E+00  0.000000000E+00 -5.907900773E+02  5.907900773E+02  0.000000000E+00  0.00000E+00  9.000E+00
      25     1     1     2     0     0 -5.630239273E+02 -3.491133797E+02 -1.648194770E+02  6.940220130E+02  1.250000000E+02  0.00000E+00  9.000E+00
      25     1     1     2     0     0  5.257166766E+02  1.922508770E+02  4.052727040E+02  7.022886788E+02  1.250000000E+02  0.00000E+00  9.000E+00
      21     1     1     2   501   511  3.730725064E+01  1.568625027E+02  4.924838557E+02  5.182065456E+02  7.629394531E-06  0.00000E+00  9.000E+00
#rwgt            1           1   2.6348206636407488E-002           2      183747           0
</event>
<event>
      5   9999  3.19816E-02  7.37255E+01 -1.00000E+00  1.30090E-01
       1    -1     0     0   502     0  0.000000000E+00  0.000000000E+00  1.844551060E+02  1.844551060E+02  0.000000000E+00  0.00000E+00  9.000E+00
      21    -1     0     0   501   502  0.000000000E+00  0.000000000E+00 -1.200805359E+03  1.200805359E+03  0.000000000E+00  0.00000E+00  9.000E+00
      25     1     1     2     0     0  9.638998518E+01 -1.042995013E+02 -1.790821696E+02  2.605088073E+02  1.250000000E+02  0.00000E+00  9.000E+00
      25     1     1     2     0     0 -1.312389569E+02  1.692687404E+02 -9.545408670E+02  9.862296067E+02  1.250000000E+02  0.00000E+00  9.000E+00
       1     1     1     2   501     0  3.484897171E+01 -6.496923911E+01  1.172727835E+02  1.385220510E+02  5.223489356E-06  0.00000E+00  9.000E+00
#rwgt            1           1   2.7800403802615184E-002           2      183795           0
</event>
<event>
      5   9999  3.25961E-02  9.94793E+00 -1.00000E+00  1.96020E-01
      21    -1     0     0   502   511  0.000000000E+00  0.000000000E+00  1.971348185E+03  1.971348185E+03  0.000000000E+00  0.00000E+00  9.000E+00
      21    -1     0     0   501   502  0.000000000E+00  0.000000000E+00 -2.238114536E+01  2.238114536E+01  0.000000000E+00  0.00000E+00  9.000E+00
      25     1     1     2     0     0  6.045011065E+01 -1.326400500E+02  7.260978378E+02  7.510596972E+02  1.250000000E+02  0.00000E+00  9.000E+00
      25     1     1     2     0     0 -6.063741920E+01  1.425862188E+02  1.002489365E+03  1.022065387E+03  1.250000000E+02  0.00000E+00  9.000E+00
      21     1     1     2   501   511  1.873085503E-01 -9.946168776E+00  2.203798364E+02  2.206042467E+02  0.000000000E+00  0.00000E+00  9.000E+00
#rwgt            1           1   9.1830994967563889E-002           2      183879           0
</event>
<event>
      5   9999  3.19816E-02  5.36511E+01 -1.00000E+00  1.37351E-01
      21    -1     0     0   512   501  0.000000000E+00  0.000000000E+00  9.511004697E+02  9.511004697E+02  0.000000000E+00  0.00000E+00  9.000E+00
      21    -1     0     0   501   502  0.000000000E+00  0.000000000E+00 -4.943630167E+02  4.943630167E+02  0.000000000E+00  0.00000E+00  9.000E+00
      25     1     1     2     0     0 -2.915759469E+02 -3.039572877E+02 -2.718224187E+02  5.166420355E+02  1.250000000E+02  0.00000E+00  9.000E+00
      25     1     1     2     0     0  3.074361644E+02  2.527040140E+02  3.444101557E+02  5.409433142E+02  1.250000000E+02  0.00000E+00  9.000E+00
      21     1     1     2   512   502 -1.586021746E+01  5.125327374E+01  3.841497161E+02  3.878781367E+02  5.394796609E-06  0.00000E+00  9.000E+00
#rwgt            1           1   2.8569509532216736E-002           2      184090           0
</event>
<event>
      5   9999  3.19816E-02  8.17510E+00 -1.00000E+00  2.06449E-01
      21    -1     0     0   502   501  0.000000000E+00  0.000000000E+00  1.328222731E+02  1.328222731E+02  0.000000000E+00  0.00000E+00  9.000E+00
       2    -1     0     0   501     0  0.000000000E+00  0.000000000E+00 -2.073992256E+03  2.073992256E+03  0.000000000E+00  0.00000E+00  9.000E+00
      25     1     1     2     0     0 -2.633574693E+01 -6.965546527E+01  5.821258074E+01  1.567136241E+02  1.250000000E+02  0.00000E+00  9.000E+00
      25     1     1     2     0     0  3.252821179E+01  6.431827083E+01 -1.799748134E+02  2.306747884E+02  1.250000000E+02  0.00000E+00  9.000E+00
       2     1     1     2   502     0 -6.192464862E+00  5.337194439E+00 -1.819407751E+03  1.819426117E+03  0.000000000E+00  0.00000E+00  9.000E+00
#rwgt            1           1   2.2449485637416233E-002           2      184211           0
</event>
<event>
      5   9999  3.19816E-02  2.00511E+02 -1.00000E+00  1.11608E-01
      21    -1     0     0   502   501  0.000000000E+00  0.000000000E+00  3.345721903E+02  3.345721903E+02  0.000000000E+00  0.00000E+00  9.000E+00
      21    -1     0     0   511   502  0.000000000E+00  0.000000000E+00 -1.450919700E+03  1.450919700E+03  0.000000000E+00  0.00000E+00  9.000E+00
      25     1     1     2     0     0 -6.558416840E+01  5.791974370E+02 -4.349468581E+02  7.379530633E+02  1.250000000E+02  0.00000E+00  9.000E+00
      25     1     1     2     0     0  2.293979973E+02 -4.635695854E+02 -2.857620922E+02  6.039910389E+02  1.250000000E+02  0.00000E+00  9.000E+00
      21     1     1     2   511   501 -1.638138289E+02 -1.156278516E+02 -3.956385593E+02  4.435477880E+02  0.000000000E+00  0.00000E+00  9.000E+00
#rwgt            1           1   2.8774712951138717E-002           2      184412           0
</event>
<event>
      5   9999  3.89261E-02  3.94065E+01 -1.00000E+00  1.45244E-01
      21    -1     0     0   502   512  0.000000000E+00  0.000000000E+00  6.067558169E+01  6.067558169E+01  0.000000000E+00  0.00000E+00  9.000E+00
      21    -1     0     0   501   502  0.000000000E+00  0.000000000E+00 -2.081047356E+03  2.081047356E+03  0.000000000E+00  0.00000E+00  9.000E+00
      25     1     1     2     0     0 -1.975589906E+02 -8.439052453E+01 -3.763008700E+02  4.509752323E+02  1.250000000E+02  0.00000E+00  9.000E+00
      25     1     1     2     0     0  2.336793963E+02  1.001444724E+02 -1.619969909E+03  1.644555406E+03  1.250000000E+02  0.00000E+00  9.000E+00
      21     1     1     2   501   512 -3.612040573E+01 -1.575394783E+01 -2.410099498E+01  4.619229959E+01  3.371747881E-07  0.00000E+00  9.000E+00
#rwgt            1           1  0.12183173285665949                2      184505           0
</event>
<event>
      5   9999  3.19816E-02  3.11070E+01 -1.00000E+00  1.51955E-01
      21    -1     0     0   502   511  0.000000000E+00  0.000000000E+00  9.765847674E+01  9.765847674E+01  0.000000000E+00  0.00000E+00  9.000E+00
      21    -1     0     0   501   502  0.000000000E+00  0.000000000E+00 -5.353313580E+02  5.353313580E+02  0.000000000E+00  0.00000E+00  9.000E+00
      25     1     1     2     0     0 -7.069475386E+01  1.599327657E+02 -1.380870290E+02  2.554785027E+02  1.250000000E+02  0.00000E+00  9.000E+00
      25     1     1     2     0     0  7.196686048E+01 -1.288517595E+02 -2.814664615E+02  3.415118942E+02  1.250000000E+02  0.00000E+00  9.000E+00
      21     1     1     2   501   511 -1.272106622E+00 -3.108100621E+01 -1.811939075E+01  3.599943782E+01  3.371747881E-07  0.00000E+00  9.000E+00
#rwgt            1           1   2.6867003176212347E-002           2      184674           0
</event>
<event>
      5   9999  3.19816E-02  4.07470E+01 -1.00000E+00  1.44344E-01
      21    -1     0     0   502   501  0.000000000E+00  0.000000000E+00  3.589488262E+02  3.589488262E+02  0.000000000E+00  0.00000E+00  9.000E+00
      21    -1     0     0   501   512  0.000000000E+00  0.000000000E+00 -1.236485593E+03  1.236485593E+03  0.000000000E+00  0.00000E+00  9.000E+00
      25     1     1     2     0     0 -1.966350277E+02 -4.065189942E+02 -3.887408601E+02  6.088246735E+02  1.250000000E+02  0.00000E+00  9.000E+00
      25     1     1     2     0     0  1.911612861E+02  4.468966311E+02 -5.816340158E+00  5.019144011E+02  1.250000000E+02  0.00000E+00  9.000E+00
      21     1     1     2   502   512  5.473741596E+00 -4.037763690E+01 -4.829795665E+02  4.846953446E+02  5.394796609E-06  0.00000E+00  9.000E+00
#rwgt            1           1   2.9247126838922291E-002           2      184762           0
</event>
<event>
      5   9999  3.19816E-02  8.57326E+01 -1.00000E+00  1.26911E-01
      21    -1     0     0   502   511  0.000000000E+00  0.000000000E+00  7.370823046E+02  7.370823046E+02  0.000000000E+00  0.00000E+00  9.000E+00
      21    -1     0     0   501   502  0.000000000E+00  0.000000000E+00 -1.762944650E+02  1.762944650E+02  0.000000000E+00  0.00000E+00  9.000E+00
      25     1     1     2     0     0  1.649768977E+02 -7.018525219E+01 -3.952906936E+01  2.221055914E+02  1.250000000E+02  0.00000E+00  9.000E+00
      25     1     1     2     0     0 -9.013934239E+01  2.835926618E+01  1.050826842E+02  1.886709293E+02  1.250000000E+02  0.00000E+00  9.000E+00
      21     1     1     2   501   511 -7.483755534E+01  4.182598601E+01  4.952342247E+02  5.026002488E+02  5.394796609E-06  0.00000E+00  9.000E+00
#rwgt            1           1   2.4740150413577518E-002           2      184967           0
</event>
<event>
      5   9999  3.19816E-02  1.61735E+02 -1.00000E+00  1.15112E-01
      21    -1     0     0   502   501  0.000000000E+00  0.000000000E+00  1.175234017E+03  1.175234017E+03  0.000000000E+00  0.00000E+00  9.000E+00
      21    -1     0     0   501   512  0.000000000E+00  0.000000000E+00 -2.540485491E+02  2.540485491E+02  0.000000000E+00  0.00000E+00  9.000E+00
      25     1     1     2     0     0  3.798546111E+02 -1.064043404E+01  4.403664890E+01  4.024512031E+02  1.250000000E+02  0.00000E+00  9.000E+00
      25     1     1     2     0     0 -2.375924293E+02 -6.629831621E+01  8.022938137E+02  8.486141601E+02  1.250000000E+02  0.00000E+00  9.000E+00
      21     1     1     2   502   512 -1.422621818E+02  7.693875025E+01  7.485500559E+01  1.782172033E+02  3.568322551E-06  0.00000E+00  9.000E+00
#rwgt            1           1   2.7120325534431024E-002           2      185025           0
</event>
<event>
      5   9999  3.19816E-02  1.47572E+02 -1.00000E+00  1.16675E-01
      21    -1     0     0   502   511  0.000000000E+00  0.000000000E+00  3.374697076E+03  3.374697076E+03  0.000000000E+00  0.00000E+00  9.000E+00
      21    -1     0     0   501   502  0.000000000E+00  0.000000000E+00 -3.774158649E+01  3.774158649E+01  0.000000000E+00  0.00000E+00  9.000E+00
      25     1     1     2     0     0 -4.259462048E+01 -1.042638510E+02  2.982047828E+02  3.423979334E+02  1.250000000E+02  0.00000E+00  9.000E+00
      25     1     1     2     0     0 -1.157375852E+01  2.415348676E+02  1.524093062E+03  1.548211131E+03  1.250000000E+02  0.00000E+00  9.000E+00
      21     1     1     2   501   511  5.416837899E+01 -1.372710167E+02  1.514657645E+03  1.521829598E+03  3.051757812E-05  0.00000E+00  9.000E+00
#rwgt            1           1   3.5295009509937567E-002           2      185088           0
</event>
<event>
      5   9999  3.19816E-02  1.05163E+02 -1.00000E+00  1.22852E-01
      21    -1     0     0   502   501  0.000000000E+00  0.000000000E+00  2.861000898E+02  2.861000898E+02  0.000000000E+00  0.00000E+00  9.000E+00
      21    -1     0     0   501   512  0.000000000E+00  0.000000000E+00 -1.700867480E+03  1.700867480E+03  0.000000000E+00  0.00000E+00  9.000E+00
      25     1     1     2     0     0  3.968161411E+02 -4.253181984E+02 -1.022716517E+03  1.183187514E+03  1.250000000E+02  0.00000E+00  9.000E+00
      25     1     1     2     0     0 -2.954064518E+02  3.974731160E+02 -1.383773941E+02  5.291721392E+02  1.250000000E+02  0.00000E+00  9.000E+00
      21     1     1     2   502   512 -1.014096893E+02  2.784508240E+01 -2.536734789E+02  2.746079161E+02  4.672030912E-06  0.00000E+00  9.000E+00
#rwgt            1           1   2.8548331370666223E-002           2      185125           0
</event>
<event>
      5   9999  3.19816E-02  2.28090E+02 -1.00000E+00  1.09609E-01
      21    -1     0     0   502   501  0.000000000E+00  0.000000000E+00  8.961412102E+02  8.961412102E+02  0.000000000E+00  0.00000E+00  9.000E+00
      21    -1     0     0   511   502  0.000000000E+00  0.000000000E+00 -7.727471149E+02  7.727471149E+02  0.000000000E+00  0.00000E+00  9.000E+00
      25     1     1     2     0     0  3.554249378E+01  1.266366387E+02  7.484851213E+02  7.701656211E+02  1.250000000E+02  0.00000E+00  9.000E+00
      25     1     1     2     0     0 -2.534424247E+02 -5.922326889E+01 -6.783298009E+01  2.965919274E+02  1.250000000E+02  0.00000E+00  9.000E+00
      21     1     1     2   511   501  2.178999309E+02 -6.741336979E+01 -5.572580459E+02  6.021307766E+02  7.629394531E-06  0.00000E+00  9.000E+00
#rwgt            1           1   2.9058083539593244E-002           2      185191           0
</event>
<event>
      5   9999  3.19816E-02  2.07669E+02 -1.00000E+00  1.11056E-01
      21    -1     0     0   502   501  0.000000000E+00  0.000000000E+00  1.417913651E+02  1.417913651E+02  0.000000000E+00  0.00000E+00  9.000E+00
      -4    -1     0     0     0   502  0.000000000E+00  0.000000000E+00 -6.227433522E+02  6.227433522E+02  0.000000000E+00  0.00000E+00  9.000E+00
      25     1     1     2     0     0  7.389694656E+01 -1.347708208E+02 -4.168508083E+01  2.024514234E+02  1.250000000E+02  0.00000E+00  9.000E+00
      25     1     1     2     0     0  6.715441367E+01 -1.764636923E+01 -1.755682971E+02  2.264295400E+02  1.250000000E+02  0.00000E+00  9.000E+00
      -4     1     1     2     0   501 -1.410513602E+02  1.524171901E+02 -2.636986092E+02  3.356537540E+02  6.607249480E-06  0.00000E+00  9.000E+00
#rwgt            1           1   5.4154749759710609E-002           2      185235           0
</event>
<event>
      5   9999  3.19816E-02  4.49687E+01 -1.00000E+00  1.41755E-01
      21    -1     0     0   502   501  0.000000000E+00  0.000000000E+00  2.668451881E+03  2.668451881E+03  0.000000000E+00  0.00000E+00  9.000E+00
      21    -1     0     0   501   511  0.000000000E+00  0.000000000E+00 -2.705742026E+02  2.705742026E+02  0.000000000E+00  0.00000E+00  9.000E+00
      25     1     1     2     0     0 -2.287473098E+01 -9.675153311E+01  2.521096935E+03  2.526150999E+03  1.250000000E+02  0.00000E+00  9.000E+00
      25     1     1     2     0     0  4.800745434E+01  1.340413396E+02  7.932404269E+01  2.053998543E+02  1.250000000E+02  0.00000E+00  9.000E+00
      21     1     1     2   502   511 -2.513272336E+01 -3.728980645E+01 -2.025432991E+02  2.074752309E+02  7.629394531E-06  0.00000E+00  9.000E+00
#rwgt            1           1   7.0832356590084758E-002           2      185266           0
</event>
<event>
      5   9999  3.19816E-02  9.20926E+01 -1.00000E+00  1.25459E-01
      21    -1     0     0   502   501  0.000000000E+00  0.000000000E+00  2.427703628E+03  2.427703628E+03  0.000000000E+00  0.00000E+00  9.000E+00
      21    -1     0     0   501   512  0.000000000E+00  0.000000000E+00 -6.654433891E+02  6.654433891E+02  0.000000000E+00  0.00000E+00  9.000E+00
      25     1     1     2     0     0  1.011678640E+03  3.404032849E+01  1.439424332E+03  1.764148469E+03  1.250000000E+02  0.00000E+00  9.000E+00
      25     1     1     2     0     0 -1.009505776E+03  5.802660045E+01  4.957600054E+02  1.133080748E+03  1.250000000E+02  0.00000E+00  9.000E+00
      21     1     1     2   502   512 -2.172863934E+00 -9.206692893E+01 -1.729240983E+02  1.959178004E+02  2.697398305E-06  0.00000E+00  9.000E+00
#rwgt            1           1   2.7131041963250887E-002           2      185386           0
</event>
<event>
      5   9999  3.19816E-02  1.74534E+01 -1.00000E+00  1.71402E-01
      21    -1     0     0   502   501  0.000000000E+00  0.000000000E+00  3.433416242E+02  3.433416242E+02  0.000000000E+00  0.00000E+00  9.000E+00
      21    -1     0     0   511   502  0.000000000E+00  0.000000000E+00 -2.230107485E+02  2.230107485E+02  0.000000000E+00  0.00000E+00  9.000E+00
      25     1     1     2     0     0  4.555051907E+01 -1.511681270E+02  2.007831184E+02  2.843686218E+02  1.250000000E+02  0.00000E+00  9.000E+00
      25     1     1     2     0     0 -2.810802692E+01  1.505506820E+02  2.006385468E+00  1.976982413E+02  1.250000000E+02  0.00000E+00  9.000E+00
      21     1     1     2   511   501 -1.744249215E+01  6.174450179E-01 -8.245862822E+01  8.428550966E+01  1.348699152E-06  0.00000E+00  9.000E+00
#rwgt            1           1   2.5217896359216709E-002           2      185541           0
</event>
<event>
      5   9999  3.19816E-02  2.06186E+01 -1.00000E+00  1.65285E-01
      21    -1     0     0   502   501  0.000000000E+00  0.000000000E+00  6.495071849E+01  6.495071849E+01  0.000000000E+00  0.00000E+00  9.000E+00
      21    -1     0     0   512   502  0.000000000E+00  0.000000000E+00 -9.814451585E+02  9.814451585E+02  0.000000000E+00  0.00000E+00  9.000E+00
      25     1     1     2     0     0  1.313378156E+02  3.167373409E+01 -1.163869209E+02  2.177699764E+02  1.250000000E+02  0.00000E+00  9.000E+00
      25     1     1     2     0     0 -1.203639034E+02 -4.912941941E+01 -5.760627786E+02  6.036344043E+02  1.250000000E+02  0.00000E+00  9.000E+00
      21     1     1     2   512   501 -1.097391219E+01  1.745568532E+01 -2.240447405E+02  2.249914964E+02  2.697398305E-06  0.00000E+00  9.000E+00
#rwgt            1           1   2.8208024550663447E-002           2      185655           0
</event>
<event>
      5   9999  3.19816E-02  1.60727E+02 -1.00000E+00  1.15217E-01
      21    -1     0     0   511   501  0.000000000E+00  0.000000000E+00  5.749281383E+02  5.749281383E+02  0.000000000E+00  0.00000E+00  9.000E+00
      21    -1     0     0   501   502  0.000000000E+00  0.000000000E+00 -5.566383797E+02  5.566383797E+02  0.000000000E+00  0.00000E+00  9.000E+00
      25     1     1     2     0     0  3.944019976E+00  1.056724705E+02  1.968688392E+02  2.560557872E+02  1.250000000E+02  0.00000E+00  9.000E+00
      25     1     1     2     0     0 -7.422574186E+01  3.887425151E+01 -4.967521426E+02  5.190456236E+02  1.250000000E+02  0.00000E+00  9.000E+00
      21     1     1     2   511   502  7.028172188E+01 -1.445467220E+02  3.181730620E+02  3.564651072E+02  3.814697266E-06  0.00000E+00  9.000E+00
#rwgt            2          11   3.1422654305371294E-003           2      185765           0
</event>
<event>
      5   9999  3.19816E-02  3.87473E+01 -1.00000E+00  1.45702E-01
      21    -1     0     0   502   501  0.000000000E+00  0.000000000E+00  6.341572950E+02  6.341572950E+02  0.000000000E+00  0.00000E+00  9.000E+00
      21    -1     0     0   501   512  0.000000000E+00  0.000000000E+00 -4.909232924E+02  4.909232924E+02  0.000000000E+00  0.00000E+00  9.000E+00
      25     1     1     2     0     0 -1.640602808E+02 -2.509345667E+02 -3.585251250E+02  4.837863141E+02  1.250000000E+02  0.00000E+00  9.000E+00
      25     1     1     2     0     0  1.541765383E+02  2.134690756E+02  5.217817654E+02  5.976793973E+02  1.250000000E+02  0.00000E+00  9.000E+00
      21     1     1     2   502   512  9.883742570E+00  3.746549104E+01 -2.002263782E+01  4.361487604E+01  8.596304120E-07  0.00000E+00  9.000E+00
#rwgt            1           1   2.4442399523772963E-002           2      185845           0
</event>
<event>
      5   9999  3.19816E-02  4.32088E+02 -1.00000E+00  1.00687E-01
      21    -1     0     0   502   501  0.000000000E+00  0.000000000E+00  1.511672260E+03  1.511672260E+03  0.000000000E+00  0.00000E+00  9.000E+00
       1    -1     0     0   501     0  0.000000000E+00  0.000000000E+00 -2.325988176E+03  2.325988176E+03  0.000000000E+00  0.00000E+00  9.000E+00
      25     1     1     2     0     0  4.890553666E+02  2.339531104E+02 -1.975409521E+02  5.903868539E+02  1.250000000E+02  0.00000E+00  9.000E+00
      25     1     1     2     0     0 -6.936809432E+02  1.466103081E+02  1.189299033E+03  1.390232004E+03  1.250000000E+02  0.00000E+00  9.000E+00
       1     1     1     2   502     0  2.046255766E+02 -3.805634185E+02 -1.806073997E+03  1.857041578E+03  0.000000000E+00  0.00000E+00  9.000E+00
#rwgt            2          12   9.9108595421073436E-004           2      186030           0
</event>
<event>
      5   9999  3.19816E-02  1.79977E+01 -1.00000E+00  1.70240E-01
      21    -1     0     0   511   501  0.000000000E+00  0.000000000E+00  2.980656239E+02  2.980656239E+02  0.000000000E+00  0.00000E+00  9.000E+00
      21    -1     0     0   501   502  0.000000000E+00  0.000000000E+00 -2.728167755E+02  2.728167755E+02  0.000000000E+00  0.00000E+00  9.000E+00
      25     1     1     2     0     0  5.781144531E+01  7.602667831E+01 -2.128665364E+02  2.646873275E+02  1.250000000E+02  0.00000E+00  9.000E+00
      25     1     1     2     0     0 -6.358736253E+01 -9.307234896E+01  1.849916162E+02  2.501054035E+02  1.250000000E+02  0.00000E+00  9.000E+00
      21     1     1     2   511   502  5.775917226E+00  1.704567065E+01  5.312376861E+01  5.608966838E+01  9.536743164E-07  0.00000E+00  9.000E+00
#rwgt            1           1   2.7448549130733215E-002           2      186049           0
</event>
<event>
      5   9999  3.19816E-02  6.75584E+01 -1.00000E+00  1.32006E-01
      21    -1     0     0   502   501  0.000000000E+00  0.000000000E+00  6.477690365E+02  6.477690365E+02  0.000000000E+00  0.00000E+00  9.000E+00
      21    -1     0     0   512   502  0.000000000E+00  0.000000000E+00 -1.463743686E+02  1.463743686E+02  0.000000000E+00  0.00000E+00  9.000E+00
      25     1     1     2     0     0 -1.471953774E+02  1.029341217E+02  4.809098012E+02  5.283570284E+02  1.250000000E+02  0.00000E+00  9.000E+00
      25     1     1     2     0     0  1.304609872E+02 -3.748113440E+01 -2.222496060E+01  1.858597684E+02  1.250000000E+02  0.00000E+00  9.000E+00
      21     1     1     2   512   501  1.673439018E+01 -6.545298733E+01  4.270982734E+01  7.992660831E+01  8.259061849E-07  0.00000E+00  9.000E+00
#rwgt            1           1   2.9553418796168802E-002           2      186191           0
</event>
<event>
      5   9999  3.19816E-02  2.37132E+01 -1.00000E+00  1.60489E-01
      21    -1     0     0   502   501  0.000000000E+00  0.000000000E+00  3.481176982E+02  3.481176982E+02  0.000000000E+00  0.00000E+00  9.000E+00
       2    -1     0     0   501     0  0.000000000E+00  0.000000000E+00 -5.804455907E+02  5.804455907E+02  0.000000000E+00  0.00000E+00  9.000E+00
      25     1     1     2     0     0 -3.663600513E+01  1.500079831E+02  2.234627116E+02  2.990069821E+02  1.250000000E+02  0.00000E+00  9.000E+00
      25     1     1     2     0     0  4.143470159E+01 -1.267853854E+02 -9.935718783E+00  1.830712619E+02  1.250000000E+02  0.00000E+00  9.000E+00
       2     1     1     2   502     0 -4.798696453E+00 -2.322259773E+01 -4.458548854E+02  4.464850449E+02  5.394796609E-06  0.00000E+00  9.000E+00
#rwgt            1           1   2.6967259089522480E-002           2      186286           0
</event>
<event>
      5   9999  3.19816E-02  1.68707E+02 -1.00000E+00  1.14406E-01
      21    -1     0     0   511   501  0.000000000E+00  0.000000000E+00  4.656186150E+02  4.656186150E+02  0.000000000E+00  0.00000E+00  9.000E+00
      21    -1     0     0   501   502  0.000000000E+00  0.000000000E+00 -6.864539948E+02  6.864539948E+02  0.000000000E+00  0.00000E+00  9.000E+00
      25     1     1     2     0     0 -4.205708527E+02  1.329202350E+02  6.068902762E+01  4.624454444E+02  1.250000000E+02  0.00000E+00  9.000E+00
      25     1     1     2     0     0  2.670675582E+02 -6.292920812E+01 -3.870541653E+02  4.906333588E+02  1.250000000E+02  0.00000E+00  9.000E+00
      21     1     1     2   511   502  1.535032945E+02 -6.999102684E+01  1.055297579E+02  1.989938066E+02  4.046097457E-06  0.00000E+00  9.000E+00
#rwgt            1           1   2.9481080401537883E-002           2      186427           0
</event>
<event>
      5   9999  3.19816E-02  5.83763E+01 -1.00000E+00  1.35343E-01
      21    -1     0     0   502   501  0.000000000E+00  0.000000000E+00  2.380714229E+02  2.380714229E+02  0.000000000E+00  0.00000E+00  9.000E+00
      21    -1     0     0   512   502  0.000000000E+00  0.000000000E+00 -3.804454095E+02  3.804454095E+02  0.000000000E+00  0.00000E+00  9.000E+00
      25     1     1     2     0     0  1.459521893E+02  1.271077125E+02 -1.238013603E+02  2.615534151E+02  1.250000000E+02  0.00000E+00  9.000E+00
      25     1     1     2     0     0 -1.726949843E+02 -1.789981755E+02  3.138080861E+01  2.801315041E+02  1.250000000E+02  0.00000E+00  9.000E+00
      21     1     1     2   512   501  2.674279498E+01  5.189046296E+01 -4.995343488E+01  7.683191319E+01  1.168007728E-06  0.00000E+00  9.000E+00
#rwgt            1           1   2.7347089135973810E-002           2      186487           0
</event>
<event>
      5   9999  3.19816E-02  2.72824E+01 -1.00000E+00  1.55960E-01
      21    -1     0     0   502   511  0.000000000E+00  0.000000000E+00  1.382613161E+02  1.382613161E+02  0.000000000E+00  0.00000E+00  9.000E+00
      21    -1     0     0   501   502  0.000000000E+00  0.000000000E+00 -1.235329752E+03  1.235329752E+03  0.000000000E+00  0.00000E+00  9.000E+00
      25     1     1     2     0     0  8.345467361E+01 -7.664896485E+01  5.890195009E+01  1.787013880E+02  1.250000000E+02  0.00000E+00  9.000E+00
      25     1     1     2     0     0 -1.106509251E+02  7.881571738E+01 -1.152726026E+03  1.167415023E+03  1.250000000E+02  0.00000E+00  9.000E+00
      21     1     1     2   501   511  2.719625149E+01 -2.166752532E+00 -3.244359802E+00  2.747465709E+01  5.179091453E-07  0.00000E+00  9.000E+00
#rwgt            1           1   2.9623062085594128E-002           2      186551           0
</event>
<event>
      5   9999  3.19816E-02  5.68957E+01 -1.00000E+00  1.35948E-01
      21    -1     0     0   502   501  0.000000000E+00  0.000000000E+00  6.372062592E+02  6.372062592E+02  0.000000000E+00  0.00000E+00  9.000E+00
      21    -1     0     0   501   512  0.000000000E+00  0.000000000E+00 -3.991851731E+02  3.991851731E+02  0.000000000E+00  0.00000E+00  9.000E+00
      25     1     1     2     0     0  9.624395215E+01  1.723775483E+02  5.342468288E+02  5.831137038E+02  1.250000000E+02  0.00000E+00  9.000E+00
      25     1     1     2     0     0 -1.106669196E+02 -2.274147879E+02 -2.179023157E+02  3.564702961E+02  1.250000000E+02  0.00000E+00  9.000E+00
      21     1     1     2   502   512  1.442296746E+01  5.503723958E+01 -7.832342707E+01  9.680743236E+01  1.651812370E-06  0.00000E+00  9.000E+00
#rwgt            1           1   2.9469991690945520E-002           2      186668           0
</event>
<event>
      5   9999  3.19816E-02  1.01764E+02 -1.00000E+00  1.23487E-01
      21    -1     0     0   502   511  0.000000000E+00  0.000000000E+00  1.469831889E+03  1.469831889E+03  0.000000000E+00  0.00000E+00  9.000E+00
      21    -1     0     0   501   502  0.000000000E+00  0.000000000E+00 -2.106798050E+02  2.106798050E+02  0.000000000E+00  0.00000E+00  9.000E+00
      25     1     1     2     0     0  1.554456128E+02  1.616513967E+02  2.776737692E+02  3.781828059E+02  1.250000000E+02  0.00000E+00  9.000E+00
      25     1     1     2     0     0 -2.207954217E+02 -8.364300202E+01 -4.491399138E+01  2.709041097E+02  1.250000000E+02  0.00000E+00  9.000E+00
      21     1     1     2   501   511  6.534980894E+01 -7.800839464E+01  1.026392307E+03  1.031424779E+03  0.000000000E+00  0.00000E+00  9.000E+00
#rwgt            1           1   2.5833909335933564E-002           2      186795           0
</event>
<event>
      5   9999  3.19816E-02  2.43362E+01 -1.00000E+00  1.59631E-01
      21    -1     0     0   512   501  0.000000000E+00  0.000000000E+00  2.596519832E+02  2.596519832E+02  0.000000000E+00  0.00000E+00  9.000E+00
      21    -1     0     0   501   502  0.000000000E+00  0.000000000E+00 -2.889343421E+02  2.889343421E+02  0.000000000E+00  0.00000E+00  9.000E+00
      25     1     1     2     0     0 -1.689011013E+02 -1.239562854E+02 -1.284070676E+02  2.756920704E+02  1.250000000E+02  0.00000E+00  9.000E+00
      25     1     1     2     0     0  1.621998137E+02  1.005609442E+02  9.865380414E+01  2.485535277E+02  1.250000000E+02  0.00000E+00  9.000E+00
      21     1     1     2   512   502  6.701287571E+00  2.339534125E+01  4.709044658E-01  2.434072715E+01  2.086827692E-07  0.00000E+00  9.000E+00
#rwgt            1           1   2.6580800006418222E-002           2      186841           0
</event>
<event>
      5   9999  3.19816E-02  7.01807E+01 -1.00000E+00  1.31164E-01
      21    -1     0     0   502   501  0.000000000E+00  0.000000000E+00  1.768470699E+03  1.768470699E+03  0.000000000E+00  0.00000E+00  9.000E+00
      21    -1     0     0   501   511  0.000000000E+00  0.000000000E+00 -3.406781748E+01  3.406781748E+01  0.000000000E+00  0.00000E+00  9.000E+00
      25     1     1     2     0     0  9.825043276E+00 -5.196355678E+00  1.125402036E+03  1.132377268E+03  1.250000000E+02  0.00000E+00  9.000E+00
      25     1     1     2     0     0 -7.739282346E+01 -1.377519504E+01  5.721425978E+02  5.908904783E+02  1.250000000E+02  0.00000E+00  9.000E+00
      21     1     1     2   502   511  6.756778019E+01  1.897155072E+01  3.685824788E+01  7.927077073E+01  1.348699152E-06  0.00000E+00  9.000E+00
#rwgt            1           1   7.1146718677109491E-002           2      187007           0
</event>
<event>
      5   9999  3.19816E-02  5.50461E+01 -1.00000E+00  1.36734E-01
      21    -1     0     0   502   501  0.000000000E+00  0.000000000E+00  1.304982477E+02  1.304982477E+02  0.000000000E+00  0.00000E+00  9.000E+00
      21    -1     0     0   512   502  0.000000000E+00  0.000000000E+00 -9.793013636E+02  9.793013636E+02  0.000000000E+00  0.00000E+00  9.000E+00
      25     1     1     2     0     0  2.252731635E+02  3.253826374E+01 -1.041621086E+02  2.797882801E+02  1.250000000E+02  0.00000E+00  9.000E+00
      25     1     1     2     0     0 -1.945875574E+02 -7.823797495E+01 -3.235274300E+02  4.053153046E+02  1.250000000E+02  0.00000E+00  9.000E+00
      21     1     1     2   512   501 -3.068560613E+01  4.569971121E+01 -4.211135773E+02  4.246960266E+02  0.000000000E+00  0.00000E+00  9.000E+00
#rwgt            1           1   3.1789119411164309E-002           2      187060           0
</event>
<event>
      5   9999  3.19816E-02  3.42403E+01 -1.00000E+00  1.49156E-01
      21    -1     0     0   502   501  0.000000000E+00  0.000000000E+00  1.455072955E+03  1.455072955E+03  0.000000000E+00  0.00000E+00  9.000E+00
      21    -1     0     0   511   502  0.000000000E+00  0.000000000E+00 -1.166418799E+02  1.166418799E+02  0.000000000E+00  0.00000E+00  9.000E+00
      25     1     1     2     0     0  7.044164087E+01 -1.453679833E+01  1.361949794E+03  1.369564013E+03  1.250000000E+02  0.00000E+00  9.000E+00
      25     1     1     2     0     0 -4.777750572E+01  4.020269853E+01 -6.004659773E+01  1.520839930E+02  1.250000000E+02  0.00000E+00  9.000E+00
      21     1     1     2   511   501 -2.266413514E+01 -2.566590020E+01  3.652787834E+01  5.006682885E+01  4.768371582E-07  0.00000E+00  9.000E+00
#rwgt            1           1   2.5664739103693719E-002           2      187138           0
</event>
<event>
      5   9999  3.19816E-02  2.91869E+01 -1.00000E+00  1.53873E-01
      21    -1     0     0   502   512  0.000000000E+00  0.000000000E+00  1.163532159E+02  1.163532159E+02  0.000000000E+00  0.00000E+00  9.000E+00
      21    -1     0     0   501   502  0.000000000E+00  0.000000000E+00 -1.552654753E+03  1.552654753E+03  0.000000000E+00  0.00000E+00  9.000E+00
      25     1     1     2     0     0 -1.721169150E+02 -8.416656217E+01 -1.351417574E+03  1.370643171E+03  1.250000000E+02  0.00000E+00  9.000E+00
      25     1     1     2     0     0  2.012967177E+02  8.481095768E+01 -9.261518772E+01  2.681712887E+02  1.250000000E+02  0.00000E+00  9.000E+00
      21     1     1     2   501   512 -2.917980268E+01 -6.443955135E-01  7.731225104E+00  3.019350877E+01  6.364034565E-07  0.00000E+00  9.000E+00
#rwgt            1           1   2.5711473215171643E-002           2      187231           0
</event>
<event>
      5   9999  3.19816E-02  4.06100E+01 -1.00000E+00  1.44434E-01
       2    -1     0     0   502     0  0.000000000E+00  0.000000000E+00  1.986555952E+03  1.986555952E+03  0.000000000E+00  0.00000E+00  9.000E+00
      21    -1     0     0   501   502  0.000000000E+00  0.000000000E+00 -1.163169191E+02  1.163169191E+02  0.000000000E+00  0.00000E+00  9.000E+00
      25     1     1     2     0     0 -5.749653016E+01  1.613472042E+02  9.502176776E+02  9.735899579E+02  1.250000000E+02  0.00000E+00  9.000E+00
      25     1     1     2     0     0  4.003839367E+01 -1.246813416E+02 -2.555989324E+01  1.828300250E+02  1.250000000E+02  0.00000E+00  9.000E+00
       2     1     1     2   501     0  1.745813649E+01 -3.666586257E+01  9.455812487E+02  9.464528883E+02  1.525878906E-05  0.00000E+00  9.000E+00
#rwgt            1           1   2.7742360266300004E-002           2      187355           0
</event>
<event>
      5   9999  3.19816E-02  2.96437E+02 -1.00000E+00  1.05761E-01
      21    -1     0     0   502   501  0.000000000E+00  0.000000000E+00  1.795575514E+03  1.795575514E+03  0.000000000E+00  0.00000E+00  9.000E+00
      21    -1     0     0   501   511  0.000000000E+00  0.000000000E+00 -2.278396872E+02  2.278396872E+02  0.000000000E+00  0.00000E+00  9.000E+00
      25     1     1     2     0     0 -2.484951323E+02  9.357817534E+01  4.932967641E+02  5.739977379E+02  1.250000000E+02  0.00000E+00  9.000E+00
      25     1     1     2     0     0  2.691180525E+02  2.021408840E+02  1.094908907E+03  1.152274263E+03  1.250000000E+02  0.00000E+00  9.000E+00
      21     1     1     2   502   511 -2.062292017E+01 -2.957190593E+02 -2.046984408E+01  2.971432001E+02  5.035093327E-06  0.00000E+00  9.000E+00
#rwgt            2          11   7.1024709776064043E-003           2      187496           0
</event>
<event>
      5   9999  3.19816E-02  5.65082E+01 -1.00000E+00  1.36110E-01
       1    -1     0     0   502     0  0.000000000E+00  0.000000000E+00  1.832340603E+03  1.832340603E+03  0.000000000E+00  0.00000E+00  9.000E+00
      21    -1     0     0   501   502  0.000000000E+00  0.000000000E+00 -6.991380193E+02  6.991380193E+02  0.000000000E+00  0.00000E+00  9.000E+00
      25     1     1     2     0     0 -3.132164385E+02  4.775551128E+02 -3.683402382E+02  6.909869421E+02  1.250000000E+02  0.00000E+00  9.000E+00
      25     1     1     2     0     0  2.733796559E+02 -4.374775862E+02  2.483498873E+02  5.860253759E+02  1.250000000E+02  0.00000E+00  9.000E+00
       1     1     1     2   501     0  3.983678259E+01 -4.007752662E+01  1.253192935E+03  1.254466304E+03  0.000000000E+00  0.00000E+00  9.000E+00
#rwgt            1           1   2.8739412327784118E-002           2      187561           0
</event>
<event>
      5   9999  3.19816E-02  3.33109E+02 -1.00000E+00  1.04136E-01
      21    -1     0     0   502   501  0.000000000E+00  0.000000000E+00  1.724800400E+03  1.724800400E+03  0.000000000E+00  0.00000E+00  9.000E+00
      21    -1     0     0   511   502  0.000000000E+00  0.000000000E+00 -8.910335822E+02  8.910335822E+02  0.000000000E+00  0.00000E+00  9.000E+00
      25     1     1     2     0     0  1.348738985E+02  6.437274793E+02 -3.622543754E+02  7.612025148E+02  1.250000000E+02  0.00000E+00  9.000E+00
      25     1     1     2     0     0 -3.878694348E+02 -8.604182553E+02  1.186695440E+03  1.521391909E+03  1.250000000E+02  0.00000E+00  9.000E+00
      21     1     1     2   511   501  2.529955363E+02  2.166907760E+02  9.325753198E+00  3.332395587E+02  1.903619697E-06  0.00000E+00  9.000E+00
#rwgt            2          11   6.3590426847235319E-003           2      187699           0
</event>
<event>
      5   9999  3.19816E-02  2.92867E+01 -1.00000E+00  1.53769E-01
      21    -1     0     0   502   501  0.000000000E+00  0.000000000E+00  5.137629678E+02  5.137629678E+02  0.000000000E+00  0.00000E+00  9.000E+00
      21    -1     0     0   512   502  0.000000000E+00  0.000000000E+00 -7.459416056E+02  7.459416056E+02  0.000000000E+00  0.00000E+00  9.000E+00
      25     1     1     2     0     0  2.212209075E+02  3.006430537E+02 -5.054421074E+02  6.406415999E+02  1.250000000E+02  0.00000E+00  9.000E+00
      25     1     1     2     0     0 -2.156802330E+02 -3.294008559E+02  3.471439510E+02  5.395894823E+02  1.250000000E+02  0.00000E+00  9.000E+00
      21     1     1     2   512   501 -5.540674505E+00  2.875780222E+01 -7.388048140E+01  7.947349114E+01  0.000000000E+00  0.00000E+00  9.000E+00
#rwgt            1           1   2.6156097004428468E-002           2      187734           0
</event>
<event>
      5   9999  3.19816E-02  3.33997E+01 -1.00000E+00  1.49871E-01
      21    -1     0     0   511   501  0.000000000E+00  0.000000000E+00  1.619186587E+03  1.619186587E+03  0.000000000E+00  0.00000E+00  9.000E+00
      21    -1     0     0   501   502  0.000000000E+00  0.000000000E+00 -2.611134085E+02  2.611134085E+02  0.000000000E+00  0.00000E+00  9.000E+00
      25     1     1     2     0     0 -5.809581820E+01  4.583305739E+02  8.693575326E+02  9.923958678E+02  1.250000000E+02  0.00000E+00  9.000E+00
      25     1     1     2     0     0  3.596845553E+01 -4.833490035E+02  1.161497159E+02  5.138440868E+02  1.250000000E+02  0.00000E+00  9.000E+00
      21     1     1     2   511   502  2.212736267E+01  2.501842966E+01  3.725659301E+02  3.740600410E+02  0.000000000E+00  0.00000E+00  9.000E+00
#rwgt            1           1   2.6014493567352543E-002           2      187898           0
</event>
<event>
      5   9999  3.19816E-02  5.50793E+01 -1.00000E+00  1.36720E-01
      21    -1     0     0   502   501  0.000000000E+00  0.000000000E+00  1.746283297E+02  1.746283297E+02  0.000000000E+00  0.00000E+00  9.000E+00
      21    -1     0     0   501   512  0.000000000E+00  0.000000000E+00 -2.272134310E+03  2.272134310E+03  0.000000000E+00  0.00000E+00  9.000E+00
      25     1     1     2     0     0 -5.549783796E+02 -1.530032768E+02 -9.412654959E+02  1.110412868E+03  1.250000000E+02  0.00000E+00  9.000E+00
      25     1     1     2     0     0  5.913608450E+02  1.116505818E+02 -1.049793043E+03  1.216496582E+03  1.250000000E+02  0.00000E+00  9.000E+00
      21     1     1     2   502   512 -3.638246542E+01  4.135269491E+01 -1.064474416E+02  1.198531894E+02  0.000000000E+00  0.00000E+00  9.000E+00
#rwgt            1           1   2.6417173780313948E-002           2      188120           0
</event>
<event>
      5   9999  3.19816E-02  1.15738E+02 -1.00000E+00  1.21039E-01
      21    -1     0     0   502   501  0.000000000E+00  0.000000000E+00  9.427277037E+02  9.427277037E+02  0.000000000E+00  0.00000E+00  9.000E+00
      21    -1     0     0   511   502  0.000000000E+00  0.000000000E+00 -5.661477669E+02  5.661477669E+02  0.000000000E+00  0.00000E+00  9.000E+00
      25     1     1     2     0     0 -4.610982499E+02 -4.107910572E+02  4.411245271E+02  7.691402584E+02  1.250000000E+02  0.00000E+00  9.000E+00
      25     1     1     2     0     0  3.524225764E+02  4.506021112E+02  3.567555297E+01  5.866359007E+02  1.250000000E+02  0.00000E+00  9.000E+00
      21     1     1     2   511   501  1.086756735E+02 -3.981105401E+01 -1.002201434E+02  1.530993115E+02  1.907348633E-06  0.00000E+00  9.000E+00
#rwgt            2          11   4.6891892985846673E-003           2      188350           0
</event>
<event>
      5   9999  3.19816E-02  1.25484E+02 -1.00000E+00  1.19550E-01
      21    -1     0     0   502   501  0.000000000E+00  0.000000000E+00  5.137561247E+02  5.137561247E+02  0.000000000E+00  0.00000E+00  9.000E+00
      21    -1     0     0   501   512  0.000000000E+00  0.000000000E+00 -3.044420578E+03  3.044420578E+03  0.000000000E+00  0.00000E+00  9.000E+00
      25     1     1     2     0     0 -2.495441468E+02  6.107850039E+02 -1.622431695E+02  6.908534202E+02  1.250000000E+02  0.00000E+00  9.000E+00
      25     1     1     2     0     0  3.623168308E+02 -6.658174090E+02 -3.486599019E+02  8.436676094E+02  1.250000000E+02  0.00000E+00  9.000E+00
      21     1     1     2   502   512 -1.127726840E+02  5.503240504E+01 -2.019761382E+03  2.023655673E+03  3.051757812E-05  0.00000E+00  9.000E+00
#rwgt            1           1   2.7108822453702434E-002           2      188370           0
</event>
<event>
      5   9999  3.19816E-02  8.40923E+01 -1.00000E+00  1.27310E-01
      21    -1     0     0   502   501  0.000000000E+00  0.000000000E+00  9.451714712E+02  9.451714712E+02  0.000000000E+00  0.00000E+00  9.000E+00
      21    -1     0     0   511   502  0.000000000E+00  0.000000000E+00 -4.929665560E+02  4.929665560E+02  0.000000000E+00  0.00000E+00  9.000E+00
      25     1     1     2     0     0  4.532773851E+02  2.108722659E+02  4.137928204E+02  6.608910640E+02  1.250000000E+02  0.00000E+00  9.000E+00
      25     1     1     2     0     0 -3.983195973E+02 -1.472235718E+02  2.784093291E+02  5.229436262E+02  1.250000000E+02  0.00000E+00  9.000E+00
      21     1     1     2   511   501 -5.495778779E+01 -6.364869414E+01 -2.399972343E+02  2.543033369E+02  2.697398305E-06  0.00000E+00  9.000E+00
#rwgt            1           1   3.3917795867512500E-002           2      188476           0
</event>
<event>
      5   9999  3.43929E-02  2.41680E+02 -1.00000E+00  1.08735E-01
      21    -1     0     0   512   501  0.000000000E+00  0.000000000E+00  9.060879535E+02  9.060879535E+02  0.000000000E+00  0.00000E+00  9.000E+00
      21    -1     0     0   501   502  0.000000000E+00  0.000000000E+00 -3.076041439E+02  3.076041439E+02  0.000000000E+00  0.00000E+00  9.000E+00
      25     1     1     2     0     0 -1.430406406E+02  9.000310138E+01  8.164998720E+01  2.255058836E+02  1.250000000E+02  0.00000E+00  9.000E+00
      25     1     1     2     0     0  2.939583984E+02 -2.787705807E+02  7.063756055E+00  4.240276799E+02  1.250000000E+02  0.00000E+00  9.000E+00
      21     1     1     2   512   502 -1.509177578E+02  1.887674793E+02  5.097700664E+02  5.641585339E+02  5.394796609E-06  0.00000E+00  9.000E+00
#rwgt            1           1   3.3058064395178027E-002           2      188566           0
</event>
<event>
      5   9999  3.19816E-02  4.95285E+01 -1.00000E+00  1.39311E-01
      21    -1     0     0   502   501  0.000000000E+00  0.000000000E+00  3.190052965E+02  3.190052965E+02  0.000000000E+00  0.00000E+00  9.000E+00
      21    -1     0     0   501   511  0.000000000E+00  0.000000000E+00 -3.551786085E+02  3.551786085E+02  0.000000000E+00  0.00000E+00  9.000E+00
      25     1     1     2     0     0 -2.552375643E+01 -6.979683809E+00  2.712525980E+02  2.998385400E+02  1.250000000E+02  0.00000E+00  9.000E+00
      25     1     1     2     0     0  6.056230662E+01  4.198503776E+01 -1.474359650E+02  2.068644487E+02  1.250000000E+02  0.00000E+00  9.000E+00
      21     1     1     2   502   511 -3.503855019E+01 -3.500535395E+01 -1.599899451E+02  1.674809163E+02  1.907348633E-06  0.00000E+00  9.000E+00
#rwgt            1           1   3.0529786225044184E-002           2      188660           0
</event>
<event>
      5   9999  3.19816E-02  1.05911E+02 -1.00000E+00  1.22717E-01
      21    -1     0     0   512   501  0.000000000E+00  0.000000000E+00  1.953767015E+02  1.953767015E+02  0.000000000E+00  0.00000E+00  9.000E+00
      21    -1     0     0   501   502  0.000000000E+00  0.000000000E+00 -1.220270787E+03  1.220270787E+03  0.000000000E+00  0.00000E+00  9.000E+00
      25     1     1     2     0     0  7.116683138E+01 -1.634670615E+00 -1.136205819E+03  1.145275536E+03  1.250000000E+02  0.00000E+00  9.000E+00
      25     1     1     2     0     0  1.906362684E+01  5.709199606E+01  4.708738444E+01  1.465098620E+02  1.250000000E+02  0.00000E+00  9.000E+00
      21     1     1     2   512   502 -9.023045822E+01 -5.545732544E+01  6.422434892E+01  1.238620908E+02  9.536743164E-07  0.00000E+00  9.000E+00
#rwgt            1           1   2.8359095237088024E-002           2      188856           0
</event>
<event>
      5   9999  3.19816E-02  5.82367E+01 -1.00000E+00  1.35399E-01
      21    -1     0     0   502   501  0.000000000E+00  0.000000000E+00  4.135260681E+02  4.135260681E+02  0.000000000E+00  0.00000E+00  9.000E+00
      21    -1     0     0   501   511  0.000000000E+00  0.000000000E+00 -6.065945248E+02  6.065945248E+02  0.000000000E+00  0.00000E+00  9.000E+00
      25     1     1     2     0     0 -3.726700701E+02 -8.609447359E+01 -2.809015767E+02  4.907401912E+02  1.250000000E+02  0.00000E+00  9.000E+00
      25     1     1     2     0     0  4.047908040E+02  1.346719691E+02  1.231341494E+02  4.612799075E+02  1.250000000E+02  0.00000E+00  9.000E+00
      21     1     1     2   502   511 -3.212073395E+01 -4.857749556E+01 -3.530102948E+01  6.810049417E+01  1.507891493E-06  0.00000E+00  9.000E+00
#rwgt            1           1   2.6905207954555272E-002           2      188998           0
</event>
<event>
      5   9999  3.19816E-02  1.83641E+01 -1.00000E+00  1.69486E-01
      21    -1     0     0   502   512  0.000000000E+00  0.000000000E+00  6.308247987E+01  6.308247987E+01  0.000000000E+00  0.00000E+00  9.000E+00
      21    -1     0     0   501   502  0.000000000E+00  0.000000000E+00 -4.939029606E+02  4.939029606E+02  0.000000000E+00  0.00000E+00  9.000E+00
      25     1     1     2     0     0  3.325218482E+00  5.281172814E+01 -3.230637820E+02  3.504216644E+02  1.250000000E+02  0.00000E+00  9.000E+00
      25     1     1     2     0     0 -1.965681523E+01 -6.120928323E+01 -1.197280237E+02  1.846422660E+02  1.250000000E+02  0.00000E+00  9.000E+00
      21     1     1     2   501   512  1.633159675E+01  8.397555090E+00  1.197132488E+01  2.192151005E+01  6.951036328E-07  0.00000E+00  9.000E+00
#rwgt            1           1   5.6575924351165104E-002           2      189100           0
</event>
<event>
      5   9999  3.19816E-02  8.69063E+00 -1.00000E+00  2.03077E-01
      21    -1     0     0   502   501  0.000000000E+00  0.000000000E+00  1.298495988E+02  1.298495988E+02  0.000000000E+00  0.00000E+00  9.000E+00
      -1    -1     0     0     0   502  0.000000000E+00  0.000000000E+00 -1.713970913E+03  1.713970913E+03  0.000000000E+00  0.00000E+00  9.000E+00
      25     1     1     2     0     0 -9.730359529E+00 -1.589423197E+02  1.253736742E+01  2.028288108E+02  1.250000000E+02  0.00000E+00  9.000E+00
      25     1     1     2     0     0  4.255527752E+00  1.521929990E+02 -4.158281259E+02  4.601291653E+02  1.250000000E+02  0.00000E+00  9.000E+00
      -1     1     1     2     0   501  5.474831778E+00  6.749320698E+00 -1.180830555E+03  1.180862535E+03  0.000000000E+00  0.00000E+00  9.000E+00
#rwgt            1           1   2.6273189052819442E-002           2      189186           0
</event>
<event>
      5   9999  3.19816E-02  1.19243E+02 -1.00000E+00  1.20485E-01
       2    -1     0     0   502     0  0.000000000E+00  0.000000000E+00  3.026032020E+03  3.026032020E+03  0.000000000E+00  0.00000E+00  9.000E+00
      21    -1     0     0   501   502  0.000000000E+00  0.000000000E+00 -1.243649455E+02  1.243649455E+02  0.000000000E+00  0.00000E+00  9.000E+00
      25     1     1     2     0     0 -4.444056229E+02 -2.386425303E+02  6.790049400E+02  8.550551581E+02  1.250000000E+02  0.00000E+00  9.000E+00
      25     1     1     2     0     0  3.297095117E+02  2.712579242E+02  1.567107097E+03  1.629030042E+03  1.250000000E+02  0.00000E+00  9.000E+00
       2     1     1     2   501     0  1.146961112E+02 -3.261539387E+01  6.555550374E+02  6.663117656E+02  7.629394531E-06  0.00000E+00  9.000E+00
#rwgt            1           1   2.6087740445967889E-002           2      189476           0
</event>
<event>
      5   9999  3.19816E-02  5.34017E+01 -1.00000E+00  1.37464E-01
      21    -1     0     0   502   511  0.000000000E+00  0.000000000E+00  4.889049969E+02  4.889049969E+02  0.000000000E+00  0.00000E+00  9.000E+00
      21    -1     0     0   501   502  0.000000000E+00  0.000000000E+00 -1.502521209E+03  1.502521209E+03  0.000000000E+00  0.00000E+00  9.000E+00
      25     1     1     2     0     0  2.349175823E+02  6.067204599E+02 -1.131899183E+03  1.311532213E+03  1.250000000E+02  0.00000E+00  9.000E+00
      25     1     1     2     0     0 -2.218407574E+02 -5.549446087E+02  8.373189933E+01  6.162896002E+02  1.250000000E+02  0.00000E+00  9.000E+00
      21     1     1     2   501   511 -1.307682490E+01 -5.177585119E+01  3.455107169E+01  6.360439192E+01  4.768371582E-07  0.00000E+00  9.000E+00
#rwgt            1           1   2.8680436095459654E-002           2      189579           0
</event>
<event>
      5   9999  3.19816E-02  1.44384E+02 -1.00000E+00  1.17054E-01
      21    -1     0     0   502   512  0.000000000E+00  0.000000000E+00  4.331995045E+02  4.331995045E+02  0.000000000E+00  0.00000E+00  9.000E+00
      21    -1     0     0   501   502  0.000000000E+00  0.000000000E+00 -6.136999732E+02  6.136999732E+02  0.000000000E+00  0.00000E+00  9.000E+00
      25     1     1     2     0     0 -1.300446150E+02 -3.047987891E+02 -1.871420963E+02  4.005759203E+02  1.250000000E+02  0.00000E+00  9.000E+00
      25     1     1     2     0     0  2.171328405E+02  4.199611519E+02 -4.926498451E+01  4.914937215E+02  1.250000000E+02  0.00000E+00  9.000E+00
      21     1     1     2   501   512 -8.708822554E+01 -1.151623628E+02  5.590661206E+01  1.548298360E+02  2.236564522E-06  0.00000E+00  9.000E+00
#rwgt            1           1   2.9375492769624260E-002           2      189679           0
</event>
<event>
      5   9999  3.19816E-02  5.80148E+02 -1.00000E+00  9.70517E-02
      21    -1     0     0   511   501  0.000000000E+00  0.000000000E+00  2.915906778E+02  2.915906778E+02  0.000000000E+00  0.00000E+00  9.000E+00
      21    -1     0     0   501   502  0.000000000E+00  0.000000000E+00 -1.861247359E+03  1.861247359E+03  0.000000000E+00  0.00000E+00  9.000E+00
      25     1     1     2     0     0  1.326009015E+02 -1.169242191E+02 -1.233121256E+02  2.491689235E+02  1.250000000E+02  0.00000E+00  9.000E+00
      25     1     1     2     0     0  4.455074973E+02  6.832314000E+01 -1.172078344E+03  1.261957854E+03  1.250000000E+02  0.00000E+00  9.000E+00
      21     1     1     2   511   502 -5.781083988E+02  4.860107907E+01 -2.742662123E+02  6.417112597E+02  0.000000000E+00  0.00000E+00  9.000E+00
#rwgt            2          11   3.0009298986173219E-003           2      189822           0
</event>
<event>
      5   9999  3.19816E-02  1.01547E+02 -1.00000E+00  1.23529E-01
      21    -1     0     0   502   501  0.000000000E+00  0.000000000E+00  1.950290202E+02  1.950290202E+02  0.000000000E+00  0.00000E+00  9.000E+00
      21    -1     0     0   501   512  0.000000000E+00  0.000000000E+00 -6.332679423E+02  6.332679423E+02  0.000000000E+00  0.00000E+00  9.000E+00
      25     1     1     2     0     0  8.245734159E+01  1.843039323E+02  3.605954683E+01  2.401925135E+02  1.250000000E+02  0.00000E+00  9.000E+00
      25     1     1     2     0     0  1.813556823E+01 -1.981913124E+02 -3.934757633E+02  4.583196171E+02  1.250000000E+02  0.00000E+00  9.000E+00
      21     1     1     2   502   512 -1.005929098E+02  1.388738012E+01 -8.082270558E+01  1.297848318E+02  1.907348633E-06  0.00000E+00  9.000E+00
#rwgt            1           1   3.4932912568014986E-002           2      189872           0
</event>
<event>
      5   9999  3.19816E-02  3.23737E+01 -1.00000E+00  1.50778E-01
      21    -1     0     0   502   511  0.000000000E+00  0.000000000E+00  1.352335098E+02  1.352335098E+02  0.000000000E+00  0.00000E+00  9.000E+00
      21    -1     0     0   501   502  0.000000000E+00  0.000000000E+00 -1.247569900E+03  1.247569900E+03  0.000000000E+00  0.00000E+00  9.000E+00
      25     1     1     2     0     0 -1.171977043E+02 -3.772543638E+01 -1.052586055E+03  1.067108670E+03  1.250000000E+02  0.00000E+00  9.000E+00
      25     1     1     2     0     0  8.812901281E+01  5.197557707E+01 -1.496148699E+02  2.201767309E+02  1.250000000E+02  0.00000E+00  9.000E+00
      21     1     1     2   501   511  2.906869149E+01 -1.425014069E+01  8.986453501E+01  9.551800870E+01  3.693564745E-06  0.00000E+00  9.000E+00
#rwgt            1           1   2.9691291146706489E-002           2      189908           0
</event>
<event>
      5   9999  3.19816E-02  4.20341E+01 -1.00000E+00  1.43517E-01
      21    -1     0     0   502   501  0.000000000E+00  0.000000000E+00  3.180624293E+02  3.180624293E+02  0.000000000E+00  0.00000E+00  9.000E+00
      21    -1     0     0   512   502  0.000000000E+00  0.000000000E+00 -2.060595860E+02  2.060595860E+02  0.000000000E+00  0.00000E+00  9.000E+00
      25     1     1     2     0     0 -1.957327769E+02 -2.977873455E+01  6.375791524E+01  2.426688376E+02  1.250000000E+02  0.00000E+00  9.000E+00
      25     1     1     2     0     0  1.541722704E+02  3.607064789E+01  9.116919828E+01  2.213752545E+02  1.250000000E+02  0.00000E+00  9.000E+00
      21     1     1     2   512   501  4.156050651E+01 -6.291913348E+00 -4.292427021E+01  6.007792314E+01  4.768371582E-07  0.00000E+00  9.000E+00
#rwgt            1           1   2.6870685036343156E-002           2      190015           0
</event>
<event>
      5   9999  3.19816E-02  2.07125E+02 -1.00000E+00  1.11097E-01
      21    -1     0     0   502   501  0.000000000E+00  0.000000000E+00  1.967792208E+02  1.967792208E+02  0.000000000E+00  0.00000E+00  9.000E+00
       1    -1     0     0   501     0  0.000000000E+00  0.000000000E+00 -1.448929311E+03  1.448929311E+03  0.000000000E+00  0.00000E+00  9.000E+00
      25     1     1     2     0     0 -4.298024161E+01  7.081340821E+01  1.138448503E+02  1.882750379E+02  1.250000000E+02  0.00000E+00  9.000E+00
      25     1     1     2     0     0  2.449999398E+02 -1.165175639E+02 -7.378498266E+02  7.960205273E+02  1.250000000E+02  0.00000E+00  9.000E+00
       1     1     1     2   502     0 -2.020196982E+02  4.570415566E+01 -6.281451144E+02  6.614129671E+02  0.000000000E+00  0.00000E+00  9.000E+00
#rwgt            1           1   2.7957846556920570E-002           2      190075           0
</event>
<event>
      5   9999  3.19816E-02  1.07066E+02 -1.00000E+00  1.22509E-01
      21    -1     0     0   502   501  0.000000000E+00  0.000000000E+00  1.306276973E+02  1.306276973E+02  0.000000000E+00  0.00000E+00  9.000E+00
      21    -1     0     0   511   502  0.000000000E+00  0.000000000E+00 -1.139728396E+03  1.139728396E+03  0.000000000E+00  0.00000E+00  9.000E+00
      25     1     1     2     0     0  2.478332079E+02  1.810106959E+02 -3.078009088E+02  4.522748837E+02  1.250000000E+02  0.00000E+00  9.000E+00
      25     1     1     2     0     0 -2.416156563E+02 -7.412510346E+01 -3.423829360E+02  4.435354903E+02  1.250000000E+02  0.00000E+00  9.000E+00
      21     1     1     2   511   501 -6.217551610E+00 -1.068855924E+02 -3.589168534E+02  3.745457188E+02  6.607249480E-06  0.00000E+00  9.000E+00
#rwgt            1           1   2.7875450634786230E-002           2      190114           0
</event>
<event>
      5   9999  3.19816E-02  5.73414E+01 -1.00000E+00  1.35764E-01
      21    -1     0     0   502   501  0.000000000E+00  0.000000000E+00  1.158383987E+03  1.158383987E+03  0.000000000E+00  0.00000E+00  9.000E+00
      21    -1     0     0   501   512  0.000000000E+00  0.000000000E+00 -5.299758479E+02  5.299758479E+02  0.000000000E+00  0.00000E+00  9.000E+00
      25     1     1     2     0     0  4.110582481E+02  6.062424326E+02  1.221529050E+02  7.530239721E+02  1.250000000E+02  0.00000E+00  9.000E+00
      25     1     1     2     0     0 -3.607217530E+02 -5.787783909E+02  5.305620570E+02  8.730553850E+02  1.250000000E+02  0.00000E+00  9.000E+00
      21     1     1     2   502   512 -5.033649508E+01 -2.746404164E+01 -2.430682262E+01  6.228047805E+01  3.371747881E-07  0.00000E+00  9.000E+00
#rwgt            1           1   3.0624668177651530E-002           2      190153           0
</event>
<event>
      5   9999  3.19816E-02  3.22370E+01 -1.00000E+00  1.50902E-01
      21    -1     0     0   511   501  0.000000000E+00  0.000000000E+00  1.249621286E+02  1.249621286E+02  0.000000000E+00  0.00000E+00  9.000E+00
      21    -1     0     0   501   502  0.000000000E+00  0.000000000E+00 -2.849868152E+02  2.849868152E+02  0.000000000E+00  0.00000E+00  9.000E+00
      25     1     1     2     0     0 -8.603899876E+01 -7.029513406E+01 -8.290243177E+00  1.674450456E+02  1.250000000E+02  0.00000E+00  9.000E+00
      25     1     1     2     0     0  8.272178586E+01  3.822924419E+01 -1.385784797E+02  2.076857338E+02  1.250000000E+02  0.00000E+00  9.000E+00
      21     1     1     2   511   502  3.317212898E+00  3.206588987E+01 -1.315596365E+01  3.481816443E+01  6.307962682E-07  0.00000E+00  9.000E+00
#rwgt            1           1   2.6751209321239786E-002           2      190314           0
</event>
<event>
      5   9999  3.19816E-02  4.29953E+01 -1.00000E+00  1.42922E-01
      21    -1     0     0   512   501  0.000000000E+00  0.000000000E+00  9.142945525E+01  9.142945525E+01  0.000000000E+00  0.00000E+00  9.000E+00
      21    -1     0     0   501   502  0.000000000E+00  0.000000000E+00 -1.111428311E+03  1.111428311E+03  0.000000000E+00  0.00000E+00  9.000E+00
      25     1     1     2     0     0  2.484452333E+02  1.119844296E+02 -4.514840629E+02  5.419671627E+02  1.250000000E+02  0.00000E+00  9.000E+00
      25     1     1     2     0     0 -2.108598151E+02 -1.328634188E+02 -5.442707036E+02  6.115309874E+02  1.250000000E+02  0.00000E+00  9.000E+00
      21     1     1     2   512   502 -3.758541812E+01  2.087898913E+01 -2.424408919E+01  4.935961612E+01  5.840038640E-07  0.00000E+00  9.000E+00
#rwgt            1           1   2.9333523438534816E-002           2      190386           0
</event>
<event>
      5   9999  3.19816E-02  2.17297E+01 -1.00000E+00  1.63451E-01
       2    -1     0     0   502     0  0.000000000E+00  0.000000000E+00  9.236820104E+02  9.236820104E+02  0.000000000E+00  0.00000E+00  9.000E+00
      21    -1     0     0   501   502  0.000000000E+00  0.000000000E+00 -3.842578157E+02  3.842578157E+02  0.000000000E+00  0.00000E+00  9.000E+00
      25     1     1     2     0     0 -1.486602293E+02  5.033761811E+01  1.459786755E+02  2.481300330E+02  1.250000000E+02  0.00000E+00  9.000E+00
      25     1     1     2     0     0  1.465918842E+02 -2.870659890E+01 -3.045320012E+02  3.614941066E+02  1.250000000E+02  0.00000E+00  9.000E+00
       2     1     1     2   501     0  2.068345063E+00 -2.163101920E+01  6.979775205E+02  6.983156866E+02  1.321449896E-05  0.00000E+00  9.000E+00
#rwgt            1           1   2.6175499521555571E-002           2      190517           0
</event>
<event>
      5   9999  3.19816E-02  1.50367E+01 -1.00000E+00  1.77284E-01
      21    -1     0     0   502   501  0.000000000E+00  0.000000000E+00  1.844016712E+03  1.844016712E+03  0.000000000E+00  0.00000E+00  9.000E+00
      21    -1     0     0   511   502  0.000000000E+00  0.000000000E+00 -1.346574467E+02  1.346574467E+02  0.000000000E+00  0.00000E+00  9.000E+00
      25     1     1     2     0     0  2.999647727E+02 -1.025452512E+02  1.747707658E+02  3.829676409E+02  1.250000000E+02  0.00000E+00  9.000E+00
      25     1     1     2     0     0 -2.919757577E+02  8.980635785E+01  1.543386862E+03  1.578284838E+03  1.250000000E+02  0.00000E+00  9.000E+00
      21     1     1     2   511   501 -7.989015026E+00  1.273889339E+01 -8.798361839E+00  1.742168008E+01  5.591411304E-07  0.00000E+00  9.000E+00
#rwgt            1           1   2.7346285939500108E-002           2      190687           0
</event>
<event>
      5   9999  3.19816E-02  1.05651E+02 -1.00000E+00  1.22764E-01
      21    -1     0     0   502   512  0.000000000E+00  0.000000000E+00  9.330701717E+02  9.330701717E+02  0.000000000E+00  0.00000E+00  9.000E+00
      21    -1     0     0   501   502  0.000000000E+00  0.000000000E+00 -2.159361729E+03  2.159361729E+03  0.000000000E+00  0.00000E+00  9.000E+00
      25     1     1     2     0     0  4.145472305E+02  1.236156520E+03 -3.953737236E+02  1.368165827E+03  1.250000000E+02  0.00000E+00  9.000E+00
      25     1     1     2     0     0 -4.332190613E+02 -1.132168342E+03 -9.643631084E+02  1.554060846E+03  1.250000000E+02  0.00000E+00  9.000E+00
      21     1     1     2   501   512  1.867183081E+01 -1.039881780E+02  1.334452744E+02  1.702052282E+02  1.907348633E-06  0.00000E+00  9.000E+00
#rwgt            1           1   5.9920381488882103E-002           2      190969           0
</event>
<event>
      5   9999  3.19816E-02  2.41597E+01 -1.00000E+00  1.59871E-01
      21    -1     0     0   502   511  0.000000000E+00  0.000000000E+00  2.098252177E+02  2.098252177E+02  0.000000000E+00  0.00000E+00  9.000E+00
      21    -1     0     0   501   502  0.000000000E+00  0.000000000E+00 -5.611678648E+02  5.611678648E+02  0.000000000E+00  0.00000E+00  9.000E+00
      25     1     1     2     0     0 -1.957231407E+02  1.238809192E+02 -3.838235261E+02  4.654025453E+02  1.250000000E+02  0.00000E+00  9.000E+00
      25     1     1     2     0     0  1.989074675E+02 -1.478298682E+02  3.966398361E+01  2.803855955E+02  1.250000000E+02  0.00000E+00  9.000E+00
      21     1     1     2   501   511 -3.184326831E+00  2.394894904E+01 -7.183104560E+00  2.520494175E+01  5.591411304E-07  0.00000E+00  9.000E+00
#rwgt            1           1   2.8851390395487765E-002           2      191096           0
</event>
<event>
      5   9999  3.19816E-02  1.86980E+02 -1.00000E+00  1.12723E-01
      21    -1     0     0   512   501  0.000000000E+00  0.000000000E+00  6.123923552E+02  6.123923552E+02  0.000000000E+00  0.00000E+00  9.000E+00
      21    -1     0     0   501   502  0.000000000E+00  0.000000000E+00 -2.421937904E+02  2.421937904E+02  0.000000000E+00  0.00000E+00  9.000E+00
      25     1     1     2     0     0 -1.344095438E+02 -7.866531983E+01  1.299762572E+02  2.382708237E+02  1.250000000E+02  0.00000E+00  9.000E+00
      25     1     1     2     0     0 -3.260809384E+01  1.627292624E+02 -9.809628387E+01  2.297650572E+02  1.250000000E+02  0.00000E+00  9.000E+00
      21     1     1     2   512   502  1.670176376E+02 -8.406394256E+01  3.383185915E+02  3.865502646E+02  6.607249480E-06  0.00000E+00  9.000E+00
#rwgt            1           1   3.0073186549215137E-002           2      191283           0
</event>
<event>
      5   9999  3.19816E-02  1.05655E+02 -1.00000E+00  1.22763E-01
      21    -1     0     0   502   501  0.000000000E+00  0.000000000E+00  7.509588995E+02  7.509588995E+02  0.000000000E+00  0.00000E+00  9.000E+00
      -3    -1     0     0     0   502  0.000000000E+00  0.000000000E+00 -1.647583359E+02  1.647583359E+02  0.000000000E+00  0.00000E+00  9.000E+00
      25     1     1     2     0     0 -6.693994103E+00 -1.258946493E+02  4.146279063E+02  4.510383276E+02  1.250000000E+02  0.00000E+00  9.000E+00
      25     1     1     2     0     0 -4.114069779E+01  3.168856581E+01  2.814118605E+02  3.122728894E+02  1.250000000E+02  0.00000E+00  9.000E+00
      -3     1     1     2     0   501  4.783469189E+01  9.420608344E+01 -1.098392032E+02  1.524060185E+02  4.046097457E-06  0.00000E+00  9.000E+00
#rwgt            1           1   4.0423996450374110E-002           2      191323           0
</event>
<event>
      5   9999  3.19816E-02  1.04896E+01 -1.00000E+00  1.93388E-01
      21    -1     0     0   502   501  0.000000000E+00  0.000000000E+00  4.087096643E+02  4.087096643E+02  0.000000000E+00  0.00000E+00  9.000E+00
      21    -1     0     0   511   502  0.000000000E+00  0.000000000E+00 -6.190695344E+02  6.190695344E+02  0.000000000E+00  0.00000E+00  9.000E+00
      25     1     1     2     0     0  2.740388938E+02  1.663286220E+02 -3.085176328E+02  4.621370528E+02  1.250000000E+02  0.00000E+00  9.000E+00
      25     1     1     2     0     0 -2.807573752E+02 -1.582730106E+02  2.416444462E+02  4.217725549E+02  1.250000000E+02  0.00000E+00  9.000E+00
      21     1     1     2   511   501  6.718481398E+00 -8.055611411E+00 -1.434866835E+02  1.438695910E+02  0.000000000E+00  0.00000E+00  9.000E+00
#rwgt            1           1   2.9598051916923128E-002           2      191382           0
</event>
<event>
      5   9999  3.19816E-02  2.04710E+02 -1.00000E+00  1.11281E-01
      21    -1     0     0   502   501  0.000000000E+00  0.000000000E+00  3.977870560E+02  3.977870560E+02  0.000000000E+00  0.00000E+00  9.000E+00
      21    -1     0     0   501   512  0.000000000E+00  0.000000000E+00 -5.469489566E+02  5.469489566E+02  0.000000000E+00  0.00000E+00  9.000E+00
      25     1     1     2     0     0  6.417300582E+01  2.559858842E+02 -9.569067461E+00  2.921703521E+02  1.250000000E+02  0.00000E+00  9.000E+00
      25     1     1     2     0     0 -1.250133543E+02 -6.052584255E+01  1.887726639E+02  2.656159539E+02  1.250000000E+02  0.00000E+00  9.000E+00
      21     1     1     2   502   512  6.084034844E+01 -1.954600416E+02 -3.283654969E+02  3.869497066E+02  5.394796609E-06  0.00000E+00  9.000E+00
#rwgt            1           1   2.9119951174111279E-002           2      191694           0
</event>
<event>
      5   9999  3.19816E-02  1.08200E+01 -1.00000E+00  1.91882E-01
      21    -1     0     0   502   511  0.000000000E+00  0.000000000E+00  6.200682473E+02  6.200682473E+02  0.000000000E+00  0.00000E+00  9.000E+00
      21    -1     0     0   501   502  0.000000000E+00  0.000000000E+00 -5.509310701E+01  5.509310701E+01  0.000000000E+00  0.00000E+00  9.000E+00
      25     1     1     2     0     0  1.338903056E+01 -9.684442332E+01  1.807027414E+02  2.404923891E+02  1.250000000E+02  0.00000E+00  9.000E+00
      25     1     1     2     0     0 -1.201294672E+01  1.075766107E+02  2.486251408E+02  2.985908550E+02  1.250000000E+02  0.00000E+00  9.000E+00
      21     1     1     2   501   511 -1.376083835E+00 -1.073218736E+01  1.356472581E+02  1.360781102E+02  1.907348633E-06  0.00000E+00  9.000E+00
#rwgt            1           1   2.1499084330589606E-002           2      191835           0
</event>
<event>
      5   9999  3.19816E-02  3.99886E+01 -1.00000E+00  1.44848E-01
      21    -1     0     0   502   501  0.000000000E+00  0.000000000E+00  1.145377666E+03  1.145377666E+03  0.000000000E+00  0.00000E+00  9.000E+00
      21    -1     0     0   501   512  0.000000000E+00  0.000000000E+00 -7.256684765E+02  7.256684765E+02  0.000000000E+00  0.00000E+00  9.000E+00
      25     1     1     2     0     0  5.009073585E+02 -5.646902351E+02 -1.942266928E+01  7.653662414E+02  1.250000000E+02  0.00000E+00  9.000E+00
      25     1     1     2     0     0 -4.687936780E+02  5.885188126E+02  5.806672611E+02  9.586038668E+02  1.250000000E+02  0.00000E+00  9.000E+00
      21     1     1     2   502   512 -3.211368046E+01 -2.382857743E+01 -1.415354026E+02  1.470760339E+02  1.907348633E-06  0.00000E+00  9.000E+00
#rwgt            1           1   2.7672057440136986E-002           2      192024           0
</event>
<event>
      5   9999  3.19816E-02  9.48790E+01 -1.00000E+00  1.24864E-01
      21    -1     0     0   511   501  0.000000000E+00  0.000000000E+00  2.828801069E+03  2.828801069E+03  0.000000000E+00  0.00000E+00  9.000E+00
      21    -1     0     0   501   502  0.000000000E+00  0.000000000E+00 -5.286730288E+02  5.286730288E+02  0.000000000E+00  0.00000E+00  9.000E+00
      25     1     1     2     0     0 -6.559594125E+02  8.395818845E+02  1.549373818E+03  1.884506492E+03  1.250000000E+02  0.00000E+00  9.000E+00
      25     1     1     2     0     0  7.391726365E+02 -7.940014291E+02  4.926456291E+02  1.197972943E+03  1.250000000E+02  0.00000E+00  9.000E+00
      21     1     1     2   511   502 -8.321322404E+01 -4.558045546E+01  2.581085926E+02  2.749946620E+02  0.000000000E+00  0.00000E+00  9.000E+00
#rwgt            1           1   7.1755716911200931E-002           2      192191           0
</event>
<event>
      5   9999  3.19816E-02  8.91077E+01 -1.00000E+00  1.26123E-01
      21    -1     0     0   512   501  0.000000000E+00  0.000000000E+00  2.348288760E+02  2.348288760E+02  0.000000000E+00  0.00000E+00  9.000E+00
      21    -1     0     0   501   502  0.000000000E+00  0.000000000E+00 -4.666640261E+02  4.666640261E+02  0.000000000E+00  0.00000E+00  9.000E+00
      25     1     1     2     0     0 -3.638838346E+01 -2.052002677E+02 -1.262691309E+02  2.738615667E+02  1.250000000E+02  0.00000E+00  9.000E+00
      25     1     1     2     0     0 -4.939305955E+01  1.810811454E+02 -1.973773461E+02  2.996879582E+02  1.250000000E+02  0.00000E+00  9.000E+00
      21     1     1     2   512   502  8.578144301E+01  2.411912227E+01  9.181132687E+01  1.279433772E+02  1.348699152E-06  0.00000E+00  9.000E+00
#rwgt            1           1   2.8865977774265937E-002           2      192317           0
</event>
<event>
      5   9999  3.19816E-02  3.22252E+02 -1.00000E+00  1.04592E-01
      21    -1     0     0   511   501  0.000000000E+00  0.000000000E+00  1.162041840E+03  1.162041840E+03  0.000000000E+00  0.00000E+00  9.000E+00
      21    -1     0     0   501   502  0.000000000E+00  0.000000000E+00 -1.496448240E+02  1.496448240E+02  0.000000000E+00  0.00000E+00  9.000E+00
      25     1     1     2     0     0  5.953030889E+01 -1.784086183E+02  6.982267640E+01  2.363761809E+02  1.250000000E+02  0.00000E+00  9.000E+00
      25     1     1     2     0     0  6.649916399E+01 -1.181763192E+02  4.540283684E+02  4.900556504E+02  1.250000000E+02  0.00000E+00  9.000E+00
      21     1     1     2   511   502 -1.260294729E+02  2.965849375E+02  4.885459717E+02  5.852548331E+02  0.000000000E+00  0.00000E+00  9.000E+00
#rwgt            1           1   2.7059662433889676E-002           2      192410           0
</event>
<event>
      5   9999  3.19816E-02  4.46498E+01 -1.00000E+00  1.41939E-01
      21    -1     0     0   502   501  0.000000000E+00  0.000000000E+00  1.006463668E+02  1.006463668E+02  0.000000000E+00  0.00000E+00  9.000E+00
      21    -1     0     0   512   502  0.000000000E+00  0.000000000E+00 -1.154611563E+03  1.154611563E+03  0.000000000E+00  0.00000E+00  9.000E+00
      25     1     1     2     0     0  5.506001784E+01 -1.479757458E+02 -4.645340005E+01  2.066672332E+02  1.250000000E+02  0.00000E+00  9.000E+00
      25     1     1     2     0     0 -2.395268814E+01  1.159455071E+02 -3.549350866E+02  3.944882857E+02  1.250000000E+02  0.00000E+00  9.000E+00
      21     1     1     2   512   501 -3.110732970E+01  3.203023873E+01 -6.525767095E+02  6.541024109E+02  1.321449896E-05  0.00000E+00  9.000E+00
#rwgt            1           1   2.4246585150274481E-002           2      192453           0
</event>
<event>
      5   9999  3.19816E-02  3.83760E+02 -1.00000E+00  1.02230E-01
      21    -1     0     0   502   501  0.000000000E+00  0.000000000E+00  4.698717469E+02  4.698717469E+02  0.000000000E+00  0.00000E+00  9.000E+00
      21    -1     0     0   511   502  0.000000000E+00  0.000000000E+00 -1.651621715E+03  1.651621715E+03  0.000000000E+00  0.00000E+00  9.000E+00
      25     1     1     2     0     0 -1.524432063E+02 -7.105318376E+01 -7.443300976E+02  7.732656596E+02  1.250000000E+02  0.00000E+00  9.000E+00
      25     1     1     2     0     0 -1.509403326E+02 -1.639574772E+02  3.726593402E+02  4.518462373E+02  1.250000000E+02  0.00000E+00  9.000E+00
      21     1     1     2   511   501  3.033835389E+02  2.350106609E+02 -8.100792109E+02  8.963815652E+02  1.525878906E-05  0.00000E+00  9.000E+00
#rwgt            2          11   1.7054812813100701E-003           2      192565           0
</event>
<event>
      5   9999  3.19816E-02  2.98341E+01 -1.00000E+00  1.53207E-01
      21    -1     0     0   502   501  0.000000000E+00  0.000000000E+00  5.210030515E+02  5.210030515E+02  0.000000000E+00  0.00000E+00  9.000E+00
      21    -1     0     0   501   512  0.000000000E+00  0.000000000E+00 -3.690980377E+02  3.690980377E+02  0.000000000E+00  0.00000E+00  9.000E+00
      25     1     1     2     0     0 -3.990509254E+01  1.192101661E+02 -3.036460944E+02  3.516097706E+02  1.250000000E+02  0.00000E+00  9.000E+00
      25     1     1     2     0     0  4.494220189E+01 -8.980440842E+01  4.760273891E+02  5.023063890E+02  1.250000000E+02  0.00000E+00  9.000E+00
      21     1     1     2   502   512 -5.037109346E+00 -2.940575765E+01 -2.047628082E+01  3.618492959E+01  5.331201500E-07  0.00000E+00  9.000E+00
#rwgt            1           1   2.5707240097004411E-002           2      192585           0
</event>
<event>
      5   9999  3.19816E-02  1.77821E+01 -1.00000E+00  1.70694E-01
      21    -1     0     0   502   501  0.000000000E+00  0.000000000E+00  1.228545567E+02  1.228545567E+02  0.000000000E+00  0.00000E+00  9.000E+00
      21    -1     0     0   501   511  0.000000000E+00  0.000000000E+00 -1.149396497E+03  1.149396497E+03  0.000000000E+00  0.00000E+00  9.000E+00
      25     1     1     2     0     0  1.942818655E+02 -1.659811864E+02 -1.613890006E+02  3.270574980E+02  1.250000000E+02  0.00000E+00  9.000E+00
      25     1     1     2     0     0 -1.807464179E+02  1.775135468E+02 -4.611537027E+02  5.408031660E+02  1.250000000E+02  0.00000E+00  9.000E+00
      21     1     1     2   502   511 -1.353544767E+01 -1.153236046E+01 -4.039992372E+02  4.043903898E+02  7.629394531E-06  0.00000E+00  9.000E+00
#rwgt            1           1   2.7227415304995995E-002           2      192739           0
</event>
<event>
      5   9999  3.19816E-02  3.31833E+01 -1.00000E+00  1.50059E-01
      21    -1     0     0   502   501  0.000000000E+00  0.000000000E+00  3.617865527E+02  3.617865527E+02  0.000000000E+00  0.00000E+00  9.000E+00
       2    -1     0     0   501     0  0.000000000E+00  0.000000000E+00 -1.178994222E+03  1.178994222E+03  0.000000000E+00  0.00000E+00  9.000E+00
      25     1     1     2     0     0  1.937614058E+02 -7.719003108E+01  6.544142805E+01  2.518121597E+02  1.250000000E+02  0.00000E+00  9.000E+00
      25     1     1     2     0     0 -2.078230008E+02  1.072467359E+02  1.162372227E+02  2.895312660E+02  1.250000000E+02  0.00000E+00  9.000E+00
       2     1     1     2   502     0  1.406159502E+01 -3.005670478E+01 -9.988863197E+02  9.994373486E+02  1.525878906E-05  0.00000E+00  9.000E+00
#rwgt            1           1   3.2595938432941084E-002           2      192849           0
</event>
<event>
      5   9999  3.19816E-02  9.95540E+01 -1.00000E+00  1.23915E-01
       1    -1     0     0   502     0  0.000000000E+00  0.000000000E+00  1.332645481E+03  1.332645481E+03  0.000000000E+00  0.00000E+00  9.000E+00
      21    -1     0     0   501   502  0.000000000E+00  0.000000000E+00 -2.531773950E+02  2.531773950E+02  0.000000000E+00  0.00000E+00  9.000E+00
      25     1     1     2     0     0  2.191910797E+02 -3.586651588E+02  1.076628741E+02  4.515547807E+02  1.250000000E+02  0.00000E+00  9.000E+00
      25     1     1     2     0     0 -1.436516213E+02  4.235095194E+02  6.602015517E+02  8.071475641E+02  1.250000000E+02  0.00000E+00  9.000E+00
       1     1     1     2   501     0 -7.553945840E+01 -6.484436064E+01  3.116036607E+02  3.271205317E+02  5.394796609E-06  0.00000E+00  9.000E+00
#rwgt            1           1   3.0381019505794388E-002           2      192975           0
</event>
<event>
      5   9999  3.19816E-02  7.30629E+01 -1.00000E+00  1.30286E-01
       2    -1     0     0   502     0  0.000000000E+00  0.000000000E+00  1.249628807E+03  1.249628807E+03  0.000000000E+00  0.00000E+00  9.000E+00
      21    -1     0     0   501   502  0.000000000E+00  0.000000000E+00 -1.244240503E+02  1.244240503E+02  0.000000000E+00  0.00000E+00  9.000E+00
      25     1     1     2     0     0  8.166549516E+01  8.052311805E+01 -3.971169100E+01  1.742275640E+02  1.250000000E+02  0.00000E+00  9.000E+00
      25     1     1     2     0     0 -7.287192217E+01 -1.530548915E+02  7.743132238E+02  8.024475593E+02  1.250000000E+02  0.00000E+00  9.000E+00
       2     1     1     2   501     0 -8.793572987E+00  7.253177346E+01  3.906032241E+02  3.973777344E+02  0.000000000E+00  0.00000E+00  9.000E+00
#rwgt            1           1   2.8358166285886895E-002           2      193082           0
</event>
<event>
      5   9999  3.19816E-02  4.15869E+02 -1.00000E+00  1.01180E-01
      21    -1     0     0   502   511  0.000000000E+00  0.000000000E+00  1.041889801E+03  1.041889801E+03  0.000000000E+00  0.00000E+00  9.000E+00
      21    -1     0     0   501   502  0.000000000E+00  0.000000000E+00 -3.527594524E+02  3.527594524E+02  0.000000000E+00  0.00000E+00  9.000E+00
      25     1     1     2     0     0  2.174944272E+02  1.485146493E+02  3.594676516E+02  4.628200724E+02  1.250000000E+02  0.00000E+00  9.000E+00
      25     1     1     2     0     0 -6.952827899E+01  2.401405971E+02 -1.331635161E+02  3.096113854E+02  1.250000000E+02  0.00000E+00  9.000E+00
      21     1     1     2   501   511 -1.479661482E+02 -3.886552464E+02  4.628262131E+02  6.222177955E+02  5.394796609E-06  0.00000E+00  9.000E+00
#rwgt            1           1   3.0190198044268438E-002           2      193232           0
</event>
<event>
      5   9999  3.19816E-02  5.88178E+01 -1.00000E+00  1.35167E-01
      21    -1     0     0   502   501  0.000000000E+00  0.000000000E+00  3.265977337E+02  3.265977337E+02  0.000000000E+00  0.00000E+00  9.000E+00
       2    -1     0     0   501     0  0.000000000E+00  0.000000000E+00 -1.078923625E+03  1.078923625E+03  0.000000000E+00  0.00000E+00  9.000E+00
      25     1     1     2     0     0  1.024532341E+02 -3.715876378E+02 -4.074940189E+02  5.746741800E+02  1.250000000E+02  0.00000E+00  9.000E+00
      25     1     1     2     0     0 -9.749777737E+01  4.301962813E+02  2.231565957E+01  4.590181322E+02  1.250000000E+02  0.00000E+00  9.000E+00
       2     1     1     2   502     0 -4.955456685E+00 -5.860864356E+01 -3.671475323E+02  3.718290469E+02  5.394796609E-06  0.00000E+00  9.000E+00
#rwgt            1           1   3.0330736077714637E-002           2      193270           0
</event>
<event>
      5   9999  3.19816E-02  8.89722E+01 -1.00000E+00  1.26154E-01
      21    -1     0     0   502   501  0.000000000E+00  0.000000000E+00  4.498086641E+02  4.498086641E+02  0.000000000E+00  0.00000E+00  9.000E+00
      21    -1     0     0   511   502  0.000000000E+00  0.000000000E+00 -4.736428723E+02  4.736428723E+02  0.000000000E+00  0.00000E+00  9.000E+00
      25     1     1     2     0     0 -9.533554947E+00 -2.827106508E+02  1.383932088E+02  3.388124569E+02  1.250000000E+02  0.00000E+00  9.000E+00
      25     1     1     2     0     0 -3.554381692E+01  3.594184496E+02  1.909119836E+01  3.826675563E+02  1.250000000E+02  0.00000E+00  9.000E+00
      21     1     1     2   511   501  4.507737186E+01 -7.670779879E+01 -1.813186154E+02  2.019715231E+02  2.697398305E-06  0.00000E+00  9.000E+00
#rwgt            1           1   2.8028764795566041E-002           2      193383           0
</event>
<event>
      5   9999  3.19816E-02  4.35568E+01 -1.00000E+00  1.42582E-01
       2    -1     0     0   502     0  0.000000000E+00  0.000000000E+00  2.393517492E+03  2.393517492E+03  0.000000000E+00  0.00000E+00  9.000E+00
      21    -1     0     0   501   502  0.000000000E+00  0.000000000E+00 -1.650252444E+02  1.650252444E+02  0.000000000E+00  0.00000E+00  9.000E+00
      25     1     1     2     0     0  4.589247614E+01 -9.767976802E+01  1.944894892E+02  2.551443079E+02  1.250000000E+02  0.00000E+00  9.000E+00
      25     1     1     2     0     0 -8.915293040E+01  1.027516153E+02 -7.101880827E+01  1.979262756E+02  1.250000000E+02  0.00000E+00  9.000E+00
       2     1     1     2   501     0  4.326045426E+01 -5.071847249E+00  2.105021566E+03  2.105472152E+03  3.051757812E-05  0.00000E+00  9.000E+00
#rwgt            1           1   2.8494170196315619E-002           2      193506           0
</event>
<event>
      5   9999  3.19816E-02  4.12473E+01 -1.00000E+00  1.44018E-01
      21    -1     0     0   502   501  0.000000000E+00  0.000000000E+00  1.938882892E+02  1.938882892E+02  0.000000000E+00  0.00000E+00  9.000E+00
       2    -1     0     0   501     0  0.000000000E+00  0.000000000E+00 -2.798329658E+03  2.798329658E+03  0.000000000E+00  0.00000E+00  9.000E+00
      25     1     1     2     0     0 -1.672168829E+02  1.115234843E+02 -2.641801995E+02  3.547043153E+02  1.250000000E+02  0.00000E+00  9.000E+00
      25     1     1     2     0     0  1.990555512E+02 -1.377463471E+02  2.344795503E+01  2.734446474E+02  1.250000000E+02  0.00000E+00  9.000E+00
       2     1     1     2   502     0 -3.183866829E+01  2.622286279E+01 -2.363709124E+03  2.364068985E+03  3.051757812E-05  0.00000E+00  9.000E+00
#rwgt            1           1   2.9928701259855736E-002           2      193597           0
</event>
<event>
      5   9999  3.19816E-02  3.54267E+01 -1.00000E+00  1.48188E-01
      -5    -1     0     0     0   501  0.000000000E+00  0.000000000E+00  3.417180285E+02  3.417180285E+02  0.000000000E+00  0.00000E+00  9.000E+00
      21    -1     0     0   501   502  0.000000000E+00  0.000000000E+00 -4.684524960E+02  4.684524960E+02  0.000000000E+00  0.00000E+00  9.000E+00
      25     1     1     2     0     0 -1.376226158E+01 -3.162425107E+01  2.283525384E+01  1.316660242E+02  1.250000000E+02  0.00000E+00  9.000E+00
      25     1     1     2     0     0  2.501654136E+01 -1.967296166E+00 -4.029607917E+02  4.226489055E+02  1.250000000E+02  0.00000E+00  9.000E+00
      -5     1     1     2     0   502 -1.125427978E+01  3.359154724E+01  2.533910705E+02  2.558555949E+02  4.672030912E-06  0.00000E+00  9.000E+00
#rwgt            1           1   2.9349666499839930E-002           2      193757           0
</event>
<event>
      5   9999  3.19816E-02  6.54544E+01 -1.00000E+00  1.32715E-01
      21    -1     0     0   502   501  0.000000000E+00  0.000000000E+00  6.901751151E+01  6.901751151E+01  0.000000000E+00  0.00000E+00  9.000E+00
      21    -1     0     0   511   502  0.000000000E+00  0.000000000E+00 -2.404875930E+03  2.404875930E+03  0.000000000E+00  0.00000E+00  9.000E+00
      25     1     1     2     0     0 -2.073653377E+02 -1.718352567E+02 -1.408431327E+03  1.439385821E+03  1.250000000E+02  0.00000E+00  9.000E+00
      25     1     1     2     0     0  1.535526327E+02  1.345729844E+02 -2.234050605E+02  3.274494163E+02  1.250000000E+02  0.00000E+00  9.000E+00
      21     1     1     2   511   501  5.381270496E+01  3.726227231E+01 -7.040220305E+02  7.070582038E+02  7.629394531E-06  0.00000E+00  9.000E+00
#rwgt            1           1   3.1926808393839504E-002           2      193830           0
</event>
<event>
      5   9999  3.19816E-02  5.15529E+00 -1.00000E+00  2.36218E-01
      21    -1     0     0   502   501  0.000000000E+00  0.000000000E+00  3.975608816E+02  3.975608816E+02  0.000000000E+00  0.00000E+00  9.000E+00
      21    -1     0     0   501   512  0.000000000E+00  0.000000000E+00 -7.778357891E+01  7.778357891E+01  0.000000000E+00  0.00000E+00  9.000E+00
      25     1     1     2     0     0  3.938263134E+01 -5.998417138E+01  2.670525255E+01  1.465853437E+02  1.250000000E+02  0.00000E+00  9.000E+00
      25     1     1     2     0     0 -3.433475621E+01  5.893729146E+01  2.890425585E+02  3.222158910E+02  1.250000000E+02  0.00000E+00  9.000E+00
      21     1     1     2   502   512 -5.047875132E+00  1.046879917E+00  4.029491641E+00  6.543225794E+00  1.332800375E-07  0.00000E+00  9.000E+00
#rwgt            1           1   2.6960853937548383E-002           2      193886           0
</event>
<event>
      5   9999  3.19816E-02  1.91580E+02 -1.00000E+00  1.12332E-01
      21    -1     0     0   502   501  0.000000000E+00  0.000000000E+00  3.223378220E+02  3.223378220E+02  0.000000000E+00  0.00000E+00  9.000E+00
      -1    -1     0     0     0   502  0.000000000E+00  0.000000000E+00 -5.855140835E+02  5.855140835E+02  0.000000000E+00  0.00000E+00  9.000E+00
      25     1     1     2     0     0 -1.188998500E+02 -1.282288800E+02  1.506606717E+01  2.154804084E+02  1.250000000E+02  0.00000E+00  9.000E+00
      25     1     1     2     0     0  2.770876237E+02  2.363005492E+02 -3.148028716E+02  4.973342425E+02  1.250000000E+02  0.00000E+00  9.000E+00
      -1     1     1     2     0   501 -1.581877736E+02 -1.080716692E+02  3.656054297E+01  1.950372547E+02  1.430511475E-06  0.00000E+00  9.000E+00
#rwgt            1           1   2.7747216311879708E-002           2      194167           0
</event>
<event>
      5   9999  3.19816E-02  1.93532E+02 -1.00000E+00  1.12170E-01
      21    -1     0     0   502   501  0.000000000E+00  0.000000000E+00  1.255205813E+03  1.255205813E+03  0.000000000E+00  0.00000E+00  9.000E+00
      21    -1     0     0   511   502  0.000000000E+00  0.000000000E+00 -3.591376972E+02  3.591376972E+02  0.000000000E+00  0.00000E+00  9.000E+00
      25     1     1     2     0     0 -3.731256517E+02  4.752744592E+02  7.396665576E+02  9.632446107E+02  1.250000000E+02  0.00000E+00  9.000E+00
      25     1     1     2     0     0  2.938242719E+02 -2.987353578E+02  8.950805422E+01  4.463319488E+02  1.250000000E+02  0.00000E+00  9.000E+00
      21     1     1     2   511   501  7.930137982E+01 -1.765391014E+02  6.689350384E+01  2.047669505E+02  2.132480600E-06  0.00000E+00  9.000E+00
#rwgt            2          11   5.7167859236737445E-003           2      194253           0
</event>
<event>
      5   9999  3.19816E-02  9.46416E+00 -1.00000E+00  1.98563E-01
      21    -1     0     0   502   501  0.000000000E+00  0.000000000E+00  1.647204188E+02  1.647204188E+02  0.000000000E+00  0.00000E+00  9.000E+00
      21    -1     0     0   512   502  0.000000000E+00  0.000000000E+00 -2.930079346E+02  2.930079346E+02  0.000000000E+00  0.00000E+00  9.000E+00
      25     1     1     2     0     0  1.656063980E+02  1.636653961E+01 -2.209459413E+01  2.093000568E+02  1.250000000E+02  0.00000E+00  9.000E+00
      25     1     1     2     0     0 -1.732810650E+02 -2.190456875E+01 -9.878591288E+01  2.364102244E+02  1.250000000E+02  0.00000E+00  9.000E+00
      21     1     1     2   512   501  7.674666945E+00  5.538029143E+00 -7.407008757E+00  1.201807215E+01  0.000000000E+00  0.00000E+00  9.000E+00
#rwgt            1           1   2.9367231392435189E-002           2      194273           0
</event>
<event>
      5   9999  3.19816E-02  7.92567E+01 -1.00000E+00  1.28546E-01
      21    -1     0     0   511   501  0.000000000E+00  0.000000000E+00  1.124996561E+02  1.124996561E+02  0.000000000E+00  0.00000E+00  9.000E+00
      21    -1     0     0   501   502  0.000000000E+00  0.000000000E+00 -8.481953835E+02  8.481953835E+02  0.000000000E+00  0.00000E+00  9.000E+00
      25     1     1     2     0     0 -9.855526854E+01  1.540781174E+02 -3.646757056E+02  4.266926030E+02  1.250000000E+02  0.00000E+00  9.000E+00
      25     1     1     2     0     0  1.646831471E+02 -1.977671060E+02 -3.498968896E+02  4.519792036E+02  1.250000000E+02  0.00000E+00  9.000E+00
      21     1     1     2   511   502 -6.612787851E+01  4.368898859E+01 -2.112313217E+01  8.202323301E+01  1.668930054E-06  0.00000E+00  9.000E+00
#rwgt            2          11   2.7266028557714674E-003           2      194579           0
</event>
<event>
      5   9999  3.19816E-02  2.37987E+02 -1.00000E+00  1.08966E-01
       2    -1     0     0   502     0  0.000000000E+00  0.000000000E+00  1.265680221E+03  1.265680221E+03  0.000000000E+00  0.00000E+00  9.000E+00
      21    -1     0     0   501   502  0.000000000E+00  0.000000000E+00 -4.717929903E+02  4.717929903E+02  0.000000000E+00  0.00000E+00  9.000E+00
      25     1     1     2     0     0  5.288485386E+02 -7.874154704E+00 -2.072654256E+02  5.816586076E+02  1.250000000E+02  0.00000E+00  9.000E+00
      25     1     1     2     0     0 -2.933097061E+02  4.192356370E+01  4.290607979E+02  5.361961742E+02  1.250000000E+02  0.00000E+00  9.000E+00
       2     1     1     2   501     0 -2.355388325E+02 -3.404940900E+01  5.720918582E+02  6.196184294E+02  7.629394531E-06  0.00000E+00  9.000E+00
#rwgt            1           1   3.1085876274488080E-002           2      194599           0
</event>
<event>
      5   9999  3.19816E-02  1.92858E+02 -1.00000E+00  1.12226E-01
       2    -1     0     0   502     0  0.000000000E+00  0.000000000E+00  8.582320642E+02  8.582320642E+02  0.000000000E+00  0.00000E+00  9.000E+00
      21    -1     0     0   501   502  0.000000000E+00  0.000000000E+00 -1.704785670E+02  1.704785670E+02  0.000000000E+00  0.00000E+00  9.000E+00
      25     1     1     2     0     0 -1.806926479E+02 -6.856135061E+01  4.380055582E+02  4.947972927E+02  1.250000000E+02  0.00000E+00  9.000E+00
      25     1     1     2     0     0 -1.199744979E+01  7.659911111E+01 -6.813096143E+01  1.621054920E+02  1.250000000E+02  0.00000E+00  9.000E+00
       2     1     1     2   501     0  1.926900977E+02 -8.037760497E+00  3.178789004E+02  3.718078465E+02  3.814697266E-06  0.00000E+00  9.000E+00
#rwgt            1           1   2.3667022047540277E-002           2      194650           0
</event>
<event>
      5   9999  3.19816E-02  4.72912E+01 -1.00000E+00  1.40470E-01
      21    -1     0     0   511   501  0.000000000E+00  0.000000000E+00  1.251520569E+03  1.251520569E+03  0.000000000E+00  0.00000E+00  9.000E+00
      21    -1     0     0   501   502  0.000000000E+00  0.000000000E+00 -7.458855460E+02  7.458855460E+02  0.000000000E+00  0.00000E+00  9.000E+00
      25     1     1     2     0     0 -5.793310953E+02  6.318281542E+02 -1.356727798E+02  8.768485830E+02  1.250000000E+02  0.00000E+00  9.000E+00
      25     1     1     2     0     0  5.949253892E+02 -5.871820017E+02  5.249220628E+02  9.949306980E+02  1.250000000E+02  0.00000E+00  9.000E+00
      21     1     1     2   511   502 -1.559429389E+01 -4.464615254E+01  1.163857395E+02  1.256268335E+02  1.907348633E-06  0.00000E+00  9.000E+00
#rwgt            1           1   2.8465175762045207E-002           2      194693           0
</event>
<event>
      5   9999  3.19816E-02  2.44566E+01 -1.00000E+00  1.59469E-01
      21    -1     0     0   502   501  0.000000000E+00  0.000000000E+00  8.666585699E+02  8.666585699E+02  0.000000000E+00  0.00000E+00  9.000E+00
      21    -1     0     0   512   502  0.000000000E+00  0.000000000E+00 -2.230446879E+02  2.230446879E+02  0.000000000E+00  0.00000E+00  9.000E+00
      25     1     1     2     0     0  1.416800038E+01  7.438820046E+01  8.146163329E+02  8.276225628E+02  1.250000000E+02  0.00000E+00  9.000E+00
      25     1     1     2     0     0 -3.765760641E+01 -6.757898210E+01 -1.830884004E+02  2.348007166E+02  1.250000000E+02  0.00000E+00  9.000E+00
      21     1     1     2   512   501  2.348960604E+01 -6.809218366E+00  1.208594950E+01  2.727997841E+01  3.769728732E-07  0.00000E+00  9.000E+00
#rwgt            1           1   2.7408806683258475E-002           2      194802           0
</event>
<event>
      5   9999  3.19816E-02  1.06172E+02 -1.00000E+00  1.22669E-01
      21    -1     0     0   502   501  0.000000000E+00  0.000000000E+00  1.298173177E+03  1.298173177E+03  0.000000000E+00  0.00000E+00  9.000E+00
       2    -1     0     0   501     0  0.000000000E+00  0.000000000E+00 -9.441882791E+01  9.441882791E+01  0.000000000E+00  0.00000E+00  9.000E+00
      25     1     1     2     0     0 -1.471720778E+01 -2.693521904E+02  4.126471612E+02  5.085959874E+02  1.250000000E+02  0.00000E+00  9.000E+00
      25     1     1     2     0     0 -3.118632290E+01  1.736167810E+02  7.303337315E+02  7.616611667E+02  1.250000000E+02  0.00000E+00  9.000E+00
       2     1     1     2   502     0  4.590353068E+01  9.573540946E+01  6.077345640E+01  1.223348509E+02  1.168007728E-06  0.00000E+00  9.000E+00
#rwgt            2          13   5.8289234427076550E-005           2      194939           0
</event>
<event>
      5   9999  3.19816E-02  2.51641E+01 -1.00000E+00  1.58538E-01
      21    -1     0     0   502   501  0.000000000E+00  0.000000000E+00  8.391585854E+02  8.391585854E+02  0.000000000E+00  0.00000E+00  9.000E+00
      21    -1     0     0   501   511  0.000000000E+00  0.000000000E+00 -8.157495117E+02  8.157495117E+02  0.000000000E+00  0.00000E+00  9.000E+00
      25     1     1     2     0     0 -8.356694574E+01 -7.355849589E+02 -2.879577145E+02  8.041226968E+02  1.250000000E+02  0.00000E+00  9.000E+00
      25     1     1     2     0     0  5.847536147E+01  7.374933324E+02  3.298138954E+02  8.195840340E+02  1.250000000E+02  0.00000E+00  9.000E+00
      21     1     1     2   502   511  2.509158427E+01 -1.908373422E+00 -1.844710721E+01  3.120136624E+01  4.768371582E-07  0.00000E+00  9.000E+00
#rwgt            1           1   3.1360272558779725E-002           2      194958           0
</event>
<event>
      5   9999  3.19816E-02  3.09666E+01 -1.00000E+00  1.52089E-01
      21    -1     0     0   512   501  0.000000000E+00  0.000000000E+00  3.375629517E+02  3.375629517E+02  0.000000000E+00  0.00000E+00  9.000E+00
      21    -1     0     0   501   502  0.000000000E+00  0.000000000E+00 -3.721405046E+02  3.721405046E+02  0.000000000E+00  0.00000E+00  9.000E+00
      25     1     1     2     0     0 -6.283663817E+01  2.462816396E+02 -1.972059623E+02  3.451351629E+02  1.250000000E+02  0.00000E+00  9.000E+00
      25     1     1     2     0     0  3.333821437E+01 -2.557034686E+02  1.172392755E+02  3.096219438E+02  1.250000000E+02  0.00000E+00  9.000E+00
      21     1     1     2   512   502  2.949842380E+01  9.421828965E+00  4.538913385E+01  5.494634964E+01  0.000000000E+00  0.00000E+00  9.000E+00
#rwgt            1           1   2.8187789428308203E-002           2      195160           0
</event>
<event>
      5   9999  3.19816E-02  1.08676E+02 -1.00000E+00  1.22224E-01
      21    -1     0     0   502   511  0.000000000E+00  0.000000000E+00  1.015027061E+03  1.015027061E+03  0.000000000E+00  0.00000E+00  9.000E+00
      21    -1     0     0   501   502  0.000000000E+00  0.000000000E+00 -1.038984440E+03  1.038984440E+03  0.000000000E+00  0.00000E+00  9.000E+00
      25     1     1     2     0     0 -9.029790508E+01  9.369290606E+02 -3.608684244E+02  1.015795647E+03  1.250000000E+02  0.00000E+00  9.000E+00
      25     1     1     2     0     0  4.247939420E+01 -8.393385641E+02  2.181105765E+02  8.772063313E+02  1.250000000E+02  0.00000E+00  9.000E+00
      21     1     1     2   501   511  4.781851087E+01 -9.759049649E+01  1.188004696E+02  1.610095232E+02  1.348699152E-06  0.00000E+00  9.000E+00
#rwgt            1           1   2.6313715269785366E-002           2      195337           0
</event>
<event>
      5   9999  3.19816E-02  2.33021E+01 -1.00000E+00  1.61073E-01
      21    -1     0     0   502   501  0.000000000E+00  0.000000000E+00  2.303463374E+02  2.303463374E+02  0.000000000E+00  0.00000E+00  9.000E+00
      21    -1     0     0   501   512  0.000000000E+00  0.000000000E+00 -4.008292596E+02  4.008292596E+02  0.000000000E+00  0.00000E+00  9.000E+00
      25     1     1     2     0     0 -1.994288249E+02  2.414349579E+01  3.170952559E+01  2.387158532E+02  1.250000000E+02  0.00000E+00  9.000E+00
      25     1     1     2     0     0  1.782649851E+02 -3.389427676E+01 -3.434951151E+01  2.230069861E+02  1.250000000E+02  0.00000E+00  9.000E+00
      21     1     1     2   502   512  2.116383976E+01  9.750780978E+00 -1.678429363E+02  1.694527577E+02  0.000000000E+00  0.00000E+00  9.000E+00
#rwgt            1           1   3.1258564335993659E-002           2      195527           0
</event>
<event>
      5   9999  3.19816E-02  8.80502E+01 -1.00000E+00  1.26366E-01
      21    -1     0     0   502   501  0.000000000E+00  0.000000000E+00  1.932358003E+03  1.932358003E+03  0.000000000E+00  0.00000E+00  9.000E+00
       2    -1     0     0   501     0  0.000000000E+00  0.000000000E+00 -7.699171496E+02  7.699171496E+02  0.000000000E+00  0.00000E+00  9.000E+00
      25     1     1     2     0     0  7.198891242E+02  5.472447868E+02  1.121541494E+03  1.446097345E+03  1.250000000E+02  0.00000E+00  9.000E+00
      25     1     1     2     0     0 -6.413098798E+02 -5.075189712E+02  3.766781529E+02  9.090463679E+02  1.250000000E+02  0.00000E+00  9.000E+00
       2     1     1     2   502     0 -7.857924441E+01 -3.972581562E+01 -3.357787938E+02  3.471314397E+02  8.529922400E-06  0.00000E+00  9.000E+00
#rwgt            1           1   3.6482566324759991E-002           2      195619           0
</event>
<event>
      5   9999  3.19816E-02  5.05459E+01 -1.00000E+00  1.38807E-01
      21    -1     0     0   502   511  0.000000000E+00  0.000000000E+00  1.514577980E+03  1.514577980E+03  0.000000000E+00  0.00000E+00  9.000E+00
      21    -1     0     0   501   502  0.000000000E+00  0.000000000E+00 -4.066985524E+01  4.066985524E+01  0.000000000E+00  0.00000E+00  9.000E+00
      25     1     1     2     0     0  8.737103656E+01  4.268526165E+01  1.872271248E+02  2.452238281E+02  1.250000000E+02  0.00000E+00  9.000E+00
      25     1     1     2     0     0 -1.285141828E+02 -7.204726968E+01  9.374627991E+02  9.571667587E+02  1.250000000E+02  0.00000E+00  9.000E+00
      21     1     1     2   501   511  4.114314624E+01  2.936200803E+01  3.492182009E+02  3.528572486E+02  6.607249480E-06  0.00000E+00  9.000E+00
#rwgt            1           1   3.2891340981768297E-002           2      195730           0
</event>
<event>
      5   9999  3.19816E-02  3.73445E+01 -1.00000E+00  1.46715E-01
      21    -1     0     0   502   512  0.000000000E+00  0.000000000E+00  2.328256114E+02  2.328256114E+02  0.000000000E+00  0.00000E+00  9.000E+00
      21    -1     0     0   501   502  0.000000000E+00  0.000000000E+00 -5.265978797E+02  5.265978797E+02  0.000000000E+00  0.00000E+00  9.000E+00
      25     1     1     2     0     0 -1.354431546E+02 -9.435979819E+01  4.459679566E+01  2.118076813E+02  1.250000000E+02  0.00000E+00  9.000E+00
      25     1     1     2     0     0  1.087515491E+02  1.204782269E+02 -4.147554180E+02  4.625894068E+02  1.250000000E+02  0.00000E+00  9.000E+00
      21     1     1     2   501   512  2.669160552E+01 -2.611842873E+01  7.638635397E+01  8.502640294E+01  1.348699152E-06  0.00000E+00  9.000E+00
#rwgt            1           1   2.7630580007280196E-002           2      195797           0
</event>
<event>
      5   9999  3.19816E-02  8.20073E+01 -1.00000E+00  1.27831E-01
      21    -1     0     0   502   501  0.000000000E+00  0.000000000E+00  8.945490334E+01  8.945490334E+01  0.000000000E+00  0.00000E+00  9.000E+00
      21    -1     0     0   511   502  0.000000000E+00  0.000000000E+00 -5.670291266E+02  5.670291266E+02  0.000000000E+00  0.00000E+00  9.000E+00
      25     1     1     2     0     0 -3.714459909E+01 -8.036652334E+01 -2.118897003E+02  2.614588771E+02  1.250000000E+02  0.00000E+00  9.000E+00
      25     1     1     2     0     0  3.426582366E+01  1.623232614E+02 -1.657256418E+02  2.657310223E+02  1.250000000E+02  0.00000E+00  9.000E+00
      21     1     1     2   511   501  2.878775423E+00 -8.195673809E+01 -9.995888117E+01  1.292941305E+02  0.000000000E+00  0.00000E+00  9.000E+00
#rwgt            1           1   3.1825890259785342E-002           2      195913           0
</event>
<event>
      5   9999  3.19816E-02  1.92894E+01 -1.00000E+00  1.67676E-01
      21    -1     0     0   512   501  0.000000000E+00  0.000000000E+00  6.049476481E+01  6.049476481E+01  0.000000000E+00  0.00000E+00  9.000E+00
      21    -1     0     0   501   502  0.000000000E+00  0.000000000E+00 -1.466912188E+03  1.466912188E+03  0.000000000E+00  0.00000E+00  9.000E+00
      25     1     1     2     0     0  1.488369202E+02  1.071150226E+01 -2.527148569E+02  3.189936739E+02  1.250000000E+02  0.00000E+00  9.000E+00
      25     1     1     2     0     0 -1.301472505E+02 -5.939111279E+00 -1.169577456E+03  1.183431454E+03  1.250000000E+02  0.00000E+00  9.000E+00
      21     1     1     2   512   502 -1.868966967E+01 -4.772390986E+00  1.587488975E+01  2.498182525E+01  2.920019320E-07  0.00000E+00  9.000E+00
#rwgt            1           1   3.6656467857316515E-002           2      195959           0
</event>
<event>
      5   9999  3.19816E-02  8.96016E+01 -1.00000E+00  1.26011E-01
      21    -1     0     0   502   501  0.000000000E+00  0.000000000E+00  3.079429442E+02  3.079429442E+02  0.000000000E+00  0.00000E+00  9.000E+00
      21    -1     0     0   511   502  0.000000000E+00  0.000000000E+00 -5.685355406E+02  5.685355406E+02  0.000000000E+00  0.00000E+00  9.000E+00
      25     1     1     2     0     0 -3.876660436E+01  2.016358722E+02 -3.462541330E+02  4.215172584E+02  1.250000000E+02  0.00000E+00  9.000E+00
      25     1     1     2     0     0 -4.940769481E+00 -2.798542447E+02  1.532611721E+02  3.427197052E+02  1.250000000E+02  0.00000E+00  9.000E+00
      21     1     1     2   511   501  4.370737384E+01  7.821837252E+01 -6.759963563E+01  1.122415211E+02  1.907348633E-06  0.00000E+00  9.000E+00
#rwgt            1           1   2.9909425172161431E-002           2      196092           0
</event>
<event>
      5   9999  3.19816E-02  2.80102E+01 -1.00000E+00  1.55139E-01
      21    -1     0     0   502   512  0.000000000E+00  0.000000000E+00  5.557712843E+02  5.557712843E+02  0.000000000E+00  0.00000E+00  9.000E+00
      21    -1     0     0   501   502  0.000000000E+00  0.000000000E+00 -6.102109109E+02  6.102109109E+02  0.000000000E+00  0.00000E+00  9.000E+00
      25     1     1     2     0     0 -3.968094610E+02 -2.169901315E+02  2.957054199E+02  5.546252436E+02  1.250000000E+02  0.00000E+00  9.000E+00
      25     1     1     2     0     0  3.917321024E+02  1.894439932E+02 -3.632364510E+02  5.804384429E+02  1.250000000E+02  0.00000E+00  9.000E+00
      21     1     1     2   501   512  5.077358607E+00  2.754613834E+01  1.309140457E+01  3.091850872E+01  3.769728732E-07  0.00000E+00  9.000E+00
#rwgt            1           1   2.0012868491495528E-002           2      196152           0
</event>
<event>
      5   9999  3.19816E-02  5.66341E+01 -1.00000E+00  1.36057E-01
      21    -1     0     0   502   501  0.000000000E+00  0.000000000E+00  4.020735721E+02  4.020735721E+02  0.000000000E+00  0.00000E+00  9.000E+00
      21    -1     0     0   511   502  0.000000000E+00  0.000000000E+00 -4.801040001E+02  4.801040001E+02  0.000000000E+00  0.00000E+00  9.000E+00
      25     1     1     2     0     0 -4.588457009E+01 -1.761843600E+02  3.376557645E+02  4.034634281E+02  1.250000000E+02  0.00000E+00  9.000E+00
      25     1     1     2     0     0  1.384875606E+01  1.294817698E+02 -3.262108366E+02  3.728214408E+02  1.250000000E+02  0.00000E+00  9.000E+00
      21     1     1     2   511   501  3.203581404E+01  4.670259026E+01 -8.947535591E+01  1.058927034E+02  1.348699152E-06  0.00000E+00  9.000E+00
#rwgt            1           1   2.7724752604609111E-002           2      196343           0
</event>
<event>
      5   9999  3.19816E-02  1.72212E+02 -1.00000E+00  1.14065E-01
      21    -1     0     0   502   501  0.000000000E+00  0.000000000E+00  1.058607882E+03  1.058607882E+03  0.000000000E+00  0.00000E+00  9.000E+00
      21    -1     0     0   501   512  0.000000000E+00  0.000000000E+00 -2.958568391E+02  2.958568391E+02  0.000000000E+00  0.00000E+00  9.000E+00
      25     1     1     2     0     0 -1.668888596E+02  1.270743728E+02 -1.480482383E+02  2.855574698E+02  1.250000000E+02  0.00000E+00  9.000E+00
      25     1     1     2     0     0  3.055008180E+02 -2.487976485E+01  7.956027078E+02  8.617182957E+02  1.250000000E+02  0.00000E+00  9.000E+00
      21     1     1     2   502   512 -1.386119583E+02 -1.021946079E+02  1.151965739E+02  2.071889561E+02  2.336015456E-06  0.00000E+00  9.000E+00
#rwgt            2          11   5.0746948683131699E-003           2      196476           0
</event>
<event>
      5   9999  3.19816E-02  9.79791E+01 -1.00000E+00  1.24228E-01
      21    -1     0     0   511   501  0.000000000E+00  0.000000000E+00  2.382447628E+02  2.382447628E+02  0.000000000E+00  0.00000E+00  9.000E+00
      21    -1     0     0   501   502  0.000000000E+00  0.000000000E+00 -6.710979252E+02  6.710979252E+02  0.000000000E+00  0.00000E+00  9.000E+00
      25     1     1     2     0     0 -1.945323172E+02 -3.511310703E+01 -4.416844727E+02  4.997858803E+02  1.250000000E+02  0.00000E+00  9.000E+00
      25     1     1     2     0     0  1.810689063E+02 -6.193656557E+01 -1.115491664E+02  2.543428857E+02  1.250000000E+02  0.00000E+00  9.000E+00
      21     1     1     2   511   502  1.346341088E+01  9.704967261E+01  1.203804767E+02  1.552139219E+02  2.697398305E-06  0.00000E+00  9.000E+00
#rwgt            1           1   2.7398151559972401E-002           2      196526           0
</event>
<event>
      5   9999  3.19816E-02  1.66423E+02 -1.00000E+00  1.14633E-01
      21    -1     0     0   502   501  0.000000000E+00  0.000000000E+00  1.121934756E+03  1.121934756E+03  0.000000000E+00  0.00000E+00  9.000E+00
       2    -1     0     0   501     0  0.000000000E+00  0.000000000E+00 -4.555904841E+02  4.555904841E+02  0.000000000E+00  0.00000E+00  9.000E+00
      25     1     1     2     0     0  4.426308899E+02 -1.977300366E+02  4.692059389E+02  6.861475681E+02  1.250000000E+02  0.00000E+00  9.000E+00
      25     1     1     2     0     0 -4.862243469E+02  3.711827320E+01  3.898803978E+02  6.367288326E+02  1.250000000E+02  0.00000E+00  9.000E+00
       2     1     1     2   502     0  4.359345694E+01  1.606117634E+02 -1.927420647E+02  2.546488396E+02  2.697398305E-06  0.00000E+00  9.000E+00
#rwgt            2          13   4.0287173487969514E-004           2      196589           0
</event>
<event>
      5   9999  3.19816E-02  1.02516E+02 -1.00000E+00  1.23344E-01
      21    -1     0     0   502   501  0.000000000E+00  0.000000000E+00  1.705152123E+02  1.705152123E+02  0.000000000E+00  0.00000E+00  9.000E+00
      21    -1     0     0   511   502  0.000000000E+00  0.000000000E+00 -1.317492811E+03  1.317492811E+03  0.000000000E+00  0.00000E+00  9.000E+00
      25     1     1     2     0     0 -3.393310823E+02 -3.163570427E+01 -3.024907152E+02  4.725167024E+02  1.250000000E+02  0.00000E+00  9.000E+00
      25     1     1     2     0     0  4.402353570E+02  4.974408612E+01 -6.648552237E+02  8.086650185E+02  1.250000000E+02  0.00000E+00  9.000E+00
      21     1     1     2   511   501 -1.009042747E+02 -1.810838185E+01 -1.796316596E+02  2.068263022E+02  1.907348633E-06  0.00000E+00  9.000E+00
#rwgt            2          11   3.7642135830216316E-003           2      196608           0
</event>
<event>
      5   9999  3.19816E-02  3.34228E+01 -1.00000E+00  1.49851E-01
      21    -1     0     0   512   501  0.000000000E+00  0.000000000E+00  1.012334843E+03  1.012334843E+03  0.000000000E+00  0.00000E+00  9.000E+00
      21    -1     0     0   501   502  0.000000000E+00  0.000000000E+00 -1.151459176E+02  1.151459176E+02  0.000000000E+00  0.00000E+00  9.000E+00
      25     1     1     2     0     0  5.514210521E+01 -9.890682346E+01  5.545229936E+01  1.775476528E+02  1.250000000E+02  0.00000E+00  9.000E+00
      25     1     1     2     0     0 -8.472820628E+01  1.144550921E+02  1.133883562E+02  2.208183787E+02  1.250000000E+02  0.00000E+00  9.000E+00
      21     1     1     2   512   502  2.958610108E+01 -1.554826859E+01  7.283482699E+02  7.291147292E+02  0.000000000E+00  0.00000E+00  9.000E+00
#rwgt            1           1   2.7805261725035321E-002           2      196643           0
</event>
<event>
      5   9999  3.19816E-02  2.07050E+02 -1.00000E+00  1.11103E-01
      21    -1     0     0   502   511  0.000000000E+00  0.000000000E+00  1.493863730E+03  1.493863730E+03  0.000000000E+00  0.00000E+00  9.000E+00
      21    -1     0     0   501   502  0.000000000E+00  0.000000000E+00 -1.765392537E+02  1.765392537E+02  0.000000000E+00  0.00000E+00  9.000E+00
      25     1     1     2     0     0 -9.730928980E+01 -2.936783615E+02  4.529498458E+02  5.625874516E+02  1.250000000E+02  0.00000E+00  9.000E+00
      25     1     1     2     0     0  2.902257293E+02  3.688637446E+02  5.958092321E+02  7.687035040E+02  1.250000000E+02  0.00000E+00  9.000E+00
      21     1     1     2   501   511 -1.929164394E+02 -7.518538307E+01  2.685653984E+02  3.391120282E+02  0.000000000E+00  0.00000E+00  9.000E+00
#rwgt            2          11   3.6490470608487383E-003           2      196780           0
</event>
<event>
      5   9999  3.19816E-02  6.33973E+01 -1.00000E+00  1.33438E-01
      21    -1     0     0   502   512  0.000000000E+00  0.000000000E+00  2.223631609E+03  2.223631609E+03  0.000000000E+00  0.00000E+00  9.000E+00
      21    -1     0     0   501   502  0.000000000E+00  0.000000000E+00 -1.780360592E+02  1.780360592E+02  0.000000000E+00  0.00000E+00  9.000E+00
      25     1     1     2     0     0 -2.915936882E+01 -3.418092430E+01 -1.418305664E+02  1.943180742E+02  1.250000000E+02  0.00000E+00  9.000E+00
      25     1     1     2     0     0  8.887734408E+01  5.546423909E+01  2.044486517E+03  2.050981614E+03  1.250000000E+02  0.00000E+00  9.000E+00
      21     1     1     2   501   512 -5.971797526E+01 -2.128331479E+01  1.429395991E+02  1.563679796E+02  1.907348633E-06  0.00000E+00  9.000E+00
#rwgt            1           1   2.9132549839775500E-002           2      196800           0
</event>
<event>
      5   9999  3.19816E-02  1.42104E+02 -1.00000E+00  1.17332E-01
      21    -1     0     0   502   501  0.000000000E+00  0.000000000E+00  8.232440653E+02  8.232440653E+02  0.000000000E+00  0.00000E+00  9.000E+00
      21    -1     0     0   511   502  0.000000000E+00  0.000000000E+00 -3.074043459E+03  3.074043459E+03  0.000000000E+00  0.00000E+00  9.000E+00
      25     1     1     2     0     0  1.060262981E+03  2.695479848E+02 -1.341600864E+03  1.735606979E+03  1.250000000E+02  0.00000E+00  9.000E+00
      25     1     1     2     0     0 -1.021513652E+03 -4.062667602E+02  1.288968697E+02  1.113904047E+03  1.250000000E+02  0.00000E+00  9.000E+00
      21     1     1     2   511   501 -3.874932853E+01  1.367187753E+02 -1.038095399E+03  1.047776499E+03  0.000000000E+00  0.00000E+00  9.000E+00
#rwgt            2          11   1.1490887721520189E-003           2      197028           0
</event>
<event>
      5   9999  3.19816E-02  2.88376E+01 -1.00000E+00  1.54242E-01
      21    -1     0     0   512   501  0.000000000E+00  0.000000000E+00  1.369985878E+03  1.369985878E+03  0.000000000E+00  0.00000E+00  9.000E+00
      21    -1     0     0   501   502  0.000000000E+00  0.000000000E+00 -5.093527683E+02  5.093527683E+02  0.000000000E+00  0.00000E+00  9.000E+00
      25     1     1     2     0     0 -9.385319824E+01 -6.181877707E+02  1.001477152E+03  1.187243036E+03  1.250000000E+02  0.00000E+00  9.000E+00
      25     1     1     2     0     0  6.507727198E+01  6.163031567E+02 -1.662053384E+02  6.536924711E+02  1.250000000E+02  0.00000E+00  9.000E+00
      21     1     1     2   512   502  2.877592626E+01  1.884614033E+00  2.536129661E+01  3.840313878E+01  7.539457465E-07  0.00000E+00  9.000E+00
#rwgt            1           1   3.0068333627127637E-002           2      197048           0
</event>
<event>
      5   9999  3.19816E-02  2.43630E+01 -1.00000E+00  1.59595E-01
      21    -1     0     0   502   501  0.000000000E+00  0.000000000E+00  3.296576131E+02  3.296576131E+02  0.000000000E+00  0.00000E+00  9.000E+00
      21    -1     0     0   501   511  0.000000000E+00  0.000000000E+00 -3.469806938E+02  3.469806938E+02  0.000000000E+00  0.00000E+00  9.000E+00
      25     1     1     2     0     0  1.402736986E+02  1.098972277E+02 -1.810928141E+02  2.831496398E+02  1.250000000E+02  0.00000E+00  9.000E+00
      25     1     1     2     0     0 -1.528999704E+02 -1.307331398E+02  2.255620288E+02  3.270669406E+02  1.250000000E+02  0.00000E+00  9.000E+00
      21     1     1     2   502   511  1.262627179E+01  2.083591211E+01 -6.179229545E+01  6.642172649E+01  1.168007728E-06  0.00000E+00  9.000E+00
#rwgt            1           1   2.7843967119979579E-002           2      197243           0
</event>
<event>
      5   9999  3.19816E-02  1.94190E+01 -1.00000E+00  1.67432E-01
      21    -1     0     0   502   512  0.000000000E+00  0.000000000E+00  1.237729335E+03  1.237729335E+03  0.000000000E+00  0.00000E+00  9.000E+00
      21    -1     0     0   501   502  0.000000000E+00  0.000000000E+00 -1.255828089E+02  1.255828089E+02  0.000000000E+00  0.00000E+00  9.000E+00
      25     1     1     2     0     0  2.742231652E+02  2.387968561E+02  6.844015212E+02  7.850176591E+02  1.250000000E+02  0.00000E+00  9.000E+00
      25     1     1     2     0     0 -2.585864709E+02 -2.272820080E+02  3.852351438E+02  5.315592066E+02  1.250000000E+02  0.00000E+00  9.000E+00
      21     1     1     2   501   512 -1.563669438E+01 -1.151484806E+01  4.250986103E+01  4.673527813E+01  0.000000000E+00  0.00000E+00  9.000E+00
#rwgt            1           1   2.1861745115938854E-002           2      197478           0
</event>
<event>
      5   9999  3.19816E-02  4.80760E+02 -1.00000E+00  9.93386E-02
      21    -1     0     0   502   501  0.000000000E+00  0.000000000E+00  1.633314227E+03  1.633314227E+03  0.000000000E+00  0.00000E+00  9.000E+00
      21    -1     0     0   511   502  0.000000000E+00  0.000000000E+00 -6.033837699E+02  6.033837699E+02  0.000000000E+00  0.00000E+00  9.000E+00
      25     1     1     2     0     0  5.253496295E+02  2.018015020E+02  2.137870186E+02  6.148544289E+02  1.250000000E+02  0.00000E+00  9.000E+00
      25     1     1     2     0     0 -6.014804872E+02  2.728920662E+02  9.106507944E+02  1.131882823E+03  1.250000000E+02  0.00000E+00  9.000E+00
      21     1     1     2   511   501  7.613085774E+01 -4.746935682E+02 -9.450735580E+01  4.899607448E+02  6.743495762E-06  0.00000E+00  9.000E+00
#rwgt            2          11   2.5375035905430567E-003           2      197647           0
</event>
<event>
      5   9999  3.19816E-02  2.78922E+01 -1.00000E+00  1.55270E-01
      21    -1     0     0   512   501  0.000000000E+00  0.000000000E+00  7.281850121E+01  7.281850121E+01  0.000000000E+00  0.00000E+00  9.000E+00
      21    -1     0     0   501   502  0.000000000E+00  0.000000000E+00 -7.683678820E+02  7.683678820E+02  0.000000000E+00  0.00000E+00  9.000E+00
      25     1     1     2     0     0  3.089290010E+01  9.450961797E+01 -5.007814378E+01  1.673895446E+02  1.250000000E+02  0.00000E+00  9.000E+00
      25     1     1     2     0     0 -2.109480024E+01 -6.839499976E+01 -6.183046016E+02  6.348609667E+02  1.250000000E+02  0.00000E+00  9.000E+00
      21     1     1     2   512   502 -9.798099858E+00 -2.611461821E+01 -2.716663541E+01  3.893587195E+01  4.768371582E-07  0.00000E+00  9.000E+00
#rwgt            1           1   3.0340373630325903E-002           2      197667           0
</event>
<event>
      5   9999  3.19816E-02  1.07834E+02 -1.00000E+00  1.22372E-01
      21    -1     0     0   502   511  0.000000000E+00  0.000000000E+00  1.375502455E+03  1.375502455E+03  0.000000000E+00  0.00000E+00  9.000E+00
      21    -1     0     0   501   502  0.000000000E+00  0.000000000E+00 -2.049310727E+02  2.049310727E+02  0.000000000E+00  0.00000E+00  9.000E+00
      25     1     1     2     0     0 -6.247880974E+00 -3.656639722E+02  6.616653410E+02  7.662735804E+02  1.250000000E+02  0.00000E+00  9.000E+00
      25     1     1     2     0     0  2.231963706E+01  4.722940692E+02  2.860283416E+02  5.665660299E+02  1.250000000E+02  0.00000E+00  9.000E+00
      21     1     1     2   501   511 -1.607175609E+01 -1.066300970E+02  2.228776996E+02  2.475939174E+02  2.697398305E-06  0.00000E+00  9.000E+00
#rwgt            1           1   2.8204324946366651E-002           2      197795           0
</event>
<event>
      5   9999  3.19816E-02  3.69322E+02 -1.00000E+00  1.02739E-01
      21    -1     0     0   502   501  0.000000000E+00  0.000000000E+00  5.153576258E+02  5.153576258E+02  0.000000000E+00  0.00000E+00  9.000E+00
       1    -1     0     0   501     0  0.000000000E+00  0.000000000E+00 -1.520539824E+03  1.520539824E+03  0.000000000E+00  0.00000E+00  9.000E+00
      25     1     1     2     0     0 -5.273451387E+02  1.536243519E+02  1.039952364E+02  5.728292468E+02  1.250000000E+02  0.00000E+00  9.000E+00
      25     1     1     2     0     0  2.873842804E+02  1.271204036E+02 -5.065320991E+01  3.419650119E+02  1.250000000E+02  0.00000E+00  9.000E+00
       1     1     1     2   502     0  2.399608582E+02 -2.807447556E+02 -1.058524225E+03  1.121103192E+03  1.525878906E-05  0.00000E+00  9.000E+00
#rwgt            1           1   2.7651839203257679E-002           2      197861           0
</event>
<event>
      5   9999  3.19816E-02  4.78886E+01 -1.00000E+00  1.40153E-01
      21    -1     0     0   502   501  0.000000000E+00  0.000000000E+00  5.222190360E+02  5.222190360E+02  0.000000000E+00  0.00000E+00  9.000E+00
      21    -1     0     0   501   511  0.000000000E+00  0.000000000E+00 -1.701248166E+03  1.701248166E+03  0.000000000E+00  0.00000E+00  9.000E+00
      25     1     1     2     0     0  4.093392443E+02  4.474000438E+02  1.655595742E+02  6.409059125E+02  1.250000000E+02  0.00000E+00  9.000E+00
      25     1     1     2     0     0 -4.561997651E+02 -4.572695196E+02 -7.995897250E+02  1.035462393E+03  1.250000000E+02  0.00000E+00  9.000E+00
      21     1     1     2   502   511  4.686052080E+01  9.869475869E+00 -5.449989795E+02  5.470988965E+02  0.000000000E+00  0.00000E+00  9.000E+00
#rwgt            1           1   2.1503399213620124E-002           2      197888           0
</event>
<event>
      5   9999  3.19816E-02  1.48381E+02 -1.00000E+00  1.16581E-01
      21    -1     0     0   512   501  0.000000000E+00  0.000000000E+00  2.347425465E+03  2.347425465E+03  0.000000000E+00  0.00000E+00  9.000E+00
      21    -1     0     0   501   502  0.000000000E+00  0.000000000E+00 -3.329001778E+02  3.329001778E+02  0.000000000E+00  0.00000E+00  9.000E+00
      25     1     1     2     0     0 -3.720582807E+02 -7.524593978E+02  6.853545459E+02  1.090852127E+03  1.250000000E+02  0.00000E+00  9.000E+00
      25     1     1     2     0     0  3.751519051E+02  6.041104778E+02  1.133052177E+03  1.343547787E+03  1.250000000E+02  0.00000E+00  9.000E+00
      21     1     1     2   512   502 -3.093624378E+00  1.483489201E+02  1.961185647E+02  2.459257286E+02  3.814697266E-06  0.00000E+00  9.000E+00
#rwgt            1           1   3.3138199141645494E-002           2      198002           0
</event>
<event>
      5   9999  3.19816E-02  8.49099E+01 -1.00000E+00  1.27110E-01
      21    -1     0     0   502   501  0.000000000E+00  0.000000000E+00  3.856435453E+02  3.856435453E+02  0.000000000E+00  0.00000E+00  9.000E+00
      21    -1     0     0   501   511  0.000000000E+00  0.000000000E+00 -2.304896818E+03  2.304896818E+03  0.000000000E+00  0.00000E+00  9.000E+00
      25     1     1     2     0     0  3.091232856E+02 -5.725310496E+02 -9.927495752E+00  6.626255078E+02  1.250000000E+02  0.00000E+00  9.000E+00
      25     1     1     2     0     0 -2.901286602E+02  4.897730130E+02 -1.486978693E+03  1.597117051E+03  1.250000000E+02  0.00000E+00  9.000E+00
      21     1     1     2   502   511 -1.899462532E+01  8.275803655E+01 -4.223470844E+02  4.307978042E+02  0.000000000E+00  0.00000E+00  9.000E+00
#rwgt            1           1   2.7207493423450798E-002           2      198088           0
</event>
<event>
      5   9999  3.19816E-02  3.72873E+01 -1.00000E+00  1.46757E-01
      21    -1     0     0   512   501  0.000000000E+00  0.000000000E+00  1.941001856E+02  1.941001856E+02  0.000000000E+00  0.00000E+00  9.000E+00
      21    -1     0     0   501   502  0.000000000E+00  0.000000000E+00 -2.178077733E+03  2.178077733E+03  0.000000000E+00  0.00000E+00  9.000E+00
      25     1     1     2     0     0 -1.692257480E+01 -4.878080084E+02 -1.725745742E+03  1.797794870E+03  1.250000000E+02  0.00000E+00  9.000E+00
      25     1     1     2     0     0 -3.187882234E+00  4.564087437E+02 -2.232085053E+02  5.232266629E+02  1.250000000E+02  0.00000E+00  9.000E+00
      21     1     1     2   512   502  2.011045703E+01  3.139926474E+01 -3.502330006E+01  5.115638626E+01  1.168007728E-06  0.00000E+00  9.000E+00
#rwgt            1           1   3.7261469658160795E-002           2      198214           0
</event>
<event>
      5   9999  3.19816E-02  2.39198E+01 -1.00000E+00  1.60201E-01
      21    -1     0     0   511   501  0.000000000E+00  0.000000000E+00  5.412756231E+02  5.412756231E+02  0.000000000E+00  0.00000E+00  9.000E+00
      21    -1     0     0   501   502  0.000000000E+00  0.000000000E+00 -1.366630813E+02  1.366630813E+02  0.000000000E+00  0.00000E+00  9.000E+00
      25     1     1     2     0     0  3.217347804E+01 -1.023301496E+01  4.445916977E+02  4.630622257E+02  1.250000000E+02  0.00000E+00  9.000E+00
      25     1     1     2     0     0 -8.350450853E+00  8.083283577E+00 -9.331549303E+01  1.564220277E+02  1.250000000E+02  0.00000E+00  9.000E+00
      21     1     1     2   511   502 -2.382302719E+01  2.149731378E+00  5.333633721E+01  5.845445096E+01  0.000000000E+00  0.00000E+00  9.000E+00
#rwgt            1           1   2.7769676967534847E-002           2      198417           0
</event>
<event>
      5   9999  3.19816E-02  1.60527E+02 -1.00000E+00  1.15238E-01
      21    -1     0     0   512   501  0.000000000E+00  0.000000000E+00  3.730114160E+02  3.730114160E+02  0.000000000E+00  0.00000E+00  9.000E+00
      21    -1     0     0   501   502  0.000000000E+00  0.000000000E+00 -1.026386801E+03  1.026386801E+03  0.000000000E+00  0.00000E+00  9.000E+00
      25     1     1     2     0     0 -4.549978392E+02 -3.166052930E+02 -5.474637441E+02  7.890522773E+02  1.250000000E+02  0.00000E+00  9.000E+00
      25     1     1     2     0     0  2.951651346E+02  3.016924331E+02 -6.808714662E+01  4.454229905E+02  1.250000000E+02  0.00000E+00  9.000E+00
      21     1     1     2   512   502  1.598327046E+02  1.491285990E+01 -3.782449432E+01  1.649229493E+02  3.126830351E-06  0.00000E+00  9.000E+00
#rwgt            1           1   3.0668656836468900E-002           2      198559           0
</event>
<event>
      5   9999  3.19816E-02  7.85500E+01 -1.00000E+00  1.28735E-01
      21    -1     0     0   502   501  0.000000000E+00  0.000000000E+00  7.920116147E+02  7.920116147E+02  0.000000000E+00  0.00000E+00  9.000E+00
      21    -1     0     0   511   502  0.000000000E+00  0.000000000E+00 -8.008713425E+02  8.008713425E+02  0.000000000E+00  0.00000E+00  9.000E+00
      25     1     1     2     0     0 -5.231051031E+02 -4.489035629E+02  2.445843051E+02  7.420241506E+02  1.250000000E+02  0.00000E+00  9.000E+00
      25     1     1     2     0     0  5.911920413E+02  4.097338317E+02 -2.040049005E+02  7.580454088E+02  1.250000000E+02  0.00000E+00  9.000E+00
      21     1     1     2   511   501 -6.808693812E+01  3.916973124E+01 -4.943913245E+01  9.281339776E+01  1.507891493E-06  0.00000E+00  9.000E+00
#rwgt            1           1   3.5749103243899190E-002           2      198593           0
</event>
<event>
      5   9999  3.19816E-02  1.91597E+02 -1.00000E+00  1.12331E-01
       2    -1     0     0   502     0  0.000000000E+00  0.000000000E+00  6.255867159E+02  6.255867159E+02  0.000000000E+00  0.00000E+00  9.000E+00
      21    -1     0     0   501   502  0.000000000E+00  0.000000000E+00 -2.862806033E+02  2.862806033E+02  0.000000000E+00  0.00000E+00  9.000E+00
      25     1     1     2     0     0  1.361940004E+02 -4.132871906E+01  2.428375556E+02  3.079804331E+02  1.250000000E+02  0.00000E+00  9.000E+00
      25     1     1     2     0     0 -3.247859615E+02  7.530049725E+00 -6.405104894E+01  3.539352473E+02  1.250000000E+02  0.00000E+00  9.000E+00
       2     1     1     2   501     0  1.885919610E+02  3.379866934E+01  1.605196059E+02  2.499516387E+02  3.814697266E-06  0.00000E+00  9.000E+00
#rwgt            2          18   3.0914984419658004E-004           2      198675           0
</event>
<event>
      5   9999  3.19816E-02  9.43200E+01 -1.00000E+00  1.24981E-01
      21    -1     0     0   502   501  0.000000000E+00  0.000000000E+00  1.099757706E+03  1.099757706E+03  0.000000000E+00  0.00000E+00  9.000E+00
      21    -1     0     0   511   502  0.000000000E+00  0.000000000E+00 -6.560583037E+02  6.560583037E+02  0.000000000E+00  0.00000E+00  9.000E+00
      25     1     1     2     0     0 -4.730651224E+02  2.253573555E+02  8.561907815E+02  1.011565224E+03  1.250000000E+02  0.00000E+00  9.000E+00
      25     1     1     2     0     0  4.910087611E+02 -1.327599383E+02 -3.309533287E+02  6.195723609E+02  1.250000000E+02  0.00000E+00  9.000E+00
      21     1     1     2   511   501 -1.794363867E+01 -9.259741717E+01 -8.153805082E+01  1.246784246E+02  2.523185073E-06  0.00000E+00  9.000E+00
#rwgt            1           1   3.4748055827928365E-002           2      198694           0
</event>
<event>
      5   9999  3.19816E-02  1.13627E+02 -1.00000E+00  1.21383E-01
      21    -1     0     0   502   512  0.000000000E+00  0.000000000E+00  9.782835966E+02  9.782835966E+02  0.000000000E+00  0.00000E+00  9.000E+00
      21    -1     0     0   501   502  0.000000000E+00  0.000000000E+00 -1.251113558E+03  1.251113558E+03  0.000000000E+00  0.00000E+00  9.000E+00
      25     1     1     2     0     0 -2.018591006E+02 -8.615015076E+02  1.860563055E+02  9.127835959E+02  1.250000000E+02  0.00000E+00  9.000E+00
      25     1     1     2     0     0  2.747182356E+02  9.486951567E+02 -5.786691870E+02  1.151510155E+03  1.250000000E+02  0.00000E+00  9.000E+00
      21     1     1     2   501   512 -7.285913502E+01 -8.719364914E+01  1.197829200E+02  1.651034037E+02  1.907348633E-06  0.00000E+00  9.000E+00
#rwgt            1           1   2.6139941132027021E-002           2      198852           0
</event>
<event>
      5   9999  3.19816E-02  1.92837E+02 -1.00000E+00  1.12228E-01
      21    -1     0     0   502   501  0.000000000E+00  0.000000000E+00  7.259250914E+02  7.259250914E+02  0.000000000E+00  0.00000E+00  9.000E+00
       2    -1     0     0   501     0  0.000000000E+00  0.000000000E+00 -6.885255814E+02  6.885255814E+02  0.000000000E+00  0.00000E+00  9.000E+00
      25     1     1     2     0     0 -2.898477084E+02 -3.511102474E+02  3.537750605E+02  5.899761803E+02  1.250000000E+02  0.00000E+00  9.000E+00
      25     1     1     2     0     0  9.900017964E+01  3.787415909E+02  4.648067550E+01  4.135597677E+02  1.250000000E+02  0.00000E+00  9.000E+00
       2     1     1     2   502     0  1.908475288E+02 -2.763134354E+01 -3.628562260E+02  4.109147249E+02  0.000000000E+00  0.00000E+00  9.000E+00
#rwgt            2          13   7.1165472960708443E-004           2      198997           0
</event>
<event>
      5   9999  3.19816E-02  3.37661E+02 -1.00000E+00  1.03950E-01
       3    -1     0     0   502     0  0.000000000E+00  0.000000000E+00  2.356181004E+03  2.356181004E+03  0.000000000E+00  0.00000E+00  9.000E+00
      21    -1     0     0   501   502  0.000000000E+00  0.000000000E+00 -1.407281204E+02  1.407281204E+02  0.000000000E+00  0.00000E+00  9.000E+00
      25     1     1     2     0     0  3.414713605E+02  6.166477501E+01  2.179933714E+02  4.284289258E+02  1.250000000E+02  0.00000E+00  9.000E+00
      25     1     1     2     0     0 -6.522016602E+00 -1.043681931E+02  1.051676349E+03  1.064229017E+03  1.250000000E+02  0.00000E+00  9.000E+00
       3     1     1     2   501     0 -3.349493439E+02  4.270341811E+01  9.457831622E+02  1.004251181E+03  1.078959322E-05  0.00000E+00  9.000E+00
#rwgt            2          19   2.7591547499550793E-005           2      199046           0
</event>
<event>
      5   9999  3.19816E-02  1.29970E+02 -1.00000E+00  1.18915E-01
      21    -1     0     0   502   501  0.000000000E+00  0.000000000E+00  2.724599344E+02  2.724599344E+02  0.000000000E+00  0.00000E+00  9.000E+00
      21    -1     0     0   511   502  0.000000000E+00  0.000000000E+00 -3.435711033E+02  3.435711033E+02  0.000000000E+00  0.00000E+00  9.000E+00
      25     1     1     2     0     0  1.247617379E+02  1.456121134E+02 -8.277709281E+00  2.290456271E+02  1.250000000E+02  0.00000E+00  9.000E+00
      25     1     1     2     0     0 -1.037328004E+02 -1.735454522E+01  8.987846001E+01  1.864532426E+02  1.250000000E+02  0.00000E+00  9.000E+00
      21     1     1     2   511   501 -2.102893757E+01 -1.282575681E+02 -1.527119196E+02  2.005321680E+02  5.046370146E-06  0.00000E+00  9.000E+00
#rwgt            1           1   2.7532484390019724E-002           2      199080           0
</event>
<event>
      5   9999  3.19816E-02  4.56674E+01 -1.00000E+00  1.41359E-01
      21    -1     0     0   502   501  0.000000000E+00  0.000000000E+00  5.399383675E+02  5.399383675E+02  0.000000000E+00  0.00000E+00  9.000E+00
      21    -1     0     0   512   502  0.000000000E+00  0.000000000E+00 -6.053228363E+02  6.053228363E+02  0.000000000E+00  0.00000E+00  9.000E+00
      25     1     1     2     0     0 -3.526994944E+02 -3.024434118E+02  1.860707597E+01  4.814978442E+02  1.250000000E+02  0.00000E+00  9.000E+00
      25     1     1     2     0     0  3.749138360E+02  3.423437505E+02  4.706714193E+01  5.249761364E+02  1.250000000E+02  0.00000E+00  9.000E+00
      21     1     1     2   512   501 -2.221434156E+01 -3.990033872E+01 -1.310586867E+02  1.387872233E+02  1.907348633E-06  0.00000E+00  9.000E+00
#rwgt            1           1   3.0464265915273472E-002           2      199113           0
</event>
<event>
      5   9999  3.19816E-02  3.35546E+02 -1.00000E+00  1.04036E-01
       2    -1     0     0   502     0  0.000000000E+00  0.000000000E+00  1.262308045E+03  1.262308045E+03  0.000000000E+00  0.00000E+00  9.000E+00
      21    -1     0     0   501   502  0.000000000E+00  0.000000000E+00 -4.549849115E+02  4.549849115E+02  0.000000000E+00  0.00000E+00  9.000E+00
      25     1     1     2     0     0  2.669986298E+02 -2.819189256E+02  5.692794255E+01  4.118644675E+02  1.250000000E+02  0.00000E+00  9.000E+00
      25     1     1     2     0     0 -4.479753864E+02  5.644764748E+02  5.434751787E+02  9.112112309E+02  1.250000000E+02  0.00000E+00  9.000E+00
       2     1     1     2   501     0  1.809767566E+02 -2.825575492E+02  2.069200119E+02  3.942172578E+02  2.697398305E-06  0.00000E+00  9.000E+00
#rwgt            1           1   2.7294637216770470E-002           2      199223           0
</event>
<event>
      5   9999  3.19816E-02  6.48239E+02 -1.00000E+00  9.57507E-02
      21    -1     0     0   511   501  0.000000000E+00  0.000000000E+00  6.699444544E+02  6.699444544E+02  0.000000000E+00  0.00000E+00  9.000E+00
      21    -1     0     0   501   502  0.000000000E+00  0.000000000E+00 -7.638972049E+02  7.638972049E+02  0.000000000E+00  0.00000E+00  9.000E+00
      25     1     1     2     0     0  7.108214790E+01 -1.784618355E+02 -1.142339698E+02  2.560775241E+02  1.250000000E+02  0.00000E+00  9.000E+00
      25     1     1     2     0     0  4.910712634E+02 -1.443344988E+02 -2.878061281E+01  5.276710689E+02  1.250000000E+02  0.00000E+00  9.000E+00
      21     1     1     2   511   502 -5.621534113E+02  3.227963343E+02  4.906183213E+01  6.500930662E+02  1.305872339E-05  0.00000E+00  9.000E+00
#rwgt            2          11   3.0974809687491322E-003           2      199376           0
</event>
<event>
      5   9999  3.21002E-02  5.50770E+01 -1.00000E+00  1.36721E-01
      21    -1     0     0   502   512  0.000000000E+00  0.000000000E+00  9.052996580E+02  9.052996580E+02  0.000000000E+00  0.00000E+00  9.000E+00
      21    -1     0     0   501   502  0.000000000E+00  0.000000000E+00 -7.229270694E+02  7.229270694E+02  0.000000000E+00  0.00000E+00  9.000E+00
      25     1     1     2     0     0  3.071059987E+02 -5.566082277E+02  2.378776768E+02  6.901721544E+02  1.250000000E+02  0.00000E+00  9.000E+00
      25     1     1     2     0     0 -2.522546192E+02  5.615888883E+02 -2.937758255E+02  6.935010512E+02  1.250000000E+02  0.00000E+00  9.000E+00
      21     1     1     2   501   512 -5.485137948E+01 -4.980660550E+00  2.382707372E+02  2.445535218E+02  2.697398305E-06  0.00000E+00  9.000E+00
#rwgt            1           1   3.2559103261663738E-002           2      199396           0
</event>
<event>
      5   9999  3.19816E-02  1.92215E+02 -1.00000E+00  1.12279E-01
       2    -1     0     0   502     0  0.000000000E+00  0.000000000E+00  2.247979915E+03  2.247979915E+03  0.000000000E+00  0.00000E+00  9.000E+00
      21    -1     0     0   501   502  0.000000000E+00  0.000000000E+00 -3.572149514E+02  3.572149514E+02  0.000000000E+00  0.00000E+00  9.000E+00
      25     1     1     2     0     0  4.423680974E+02 -7.239835049E+01 -1.440280464E+02  4.871346147E+02  1.250000000E+02  0.00000E+00  9.000E+00
      25     1     1     2     0     0 -3.064369473E+02 -6.350325011E+01  7.952657781E+02  8.637180809E+02  1.250000000E+02  0.00000E+00  9.000E+00
       2     1     1     2   501     0 -1.359311500E+02  1.359016006E+02  1.239527232E+03  1.254342171E+03  1.525878906E-05  0.00000E+00  9.000E+00
#rwgt            1           1   2.8683679174823673E-002           2      199530           0
</event>
<event>
      5   9999  3.19816E-02  2.54678E+01 -1.00000E+00  1.58150E-01
      21    -1     0     0   502   511  0.000000000E+00  0.000000000E+00  1.200146905E+03  1.200146905E+03  0.000000000E+00  0.00000E+00  9.000E+00
      21    -1     0     0   501   502  0.000000000E+00  0.000000000E+00 -7.218267002E+01  7.218267002E+01  0.000000000E+00  0.00000E+00  9.000E+00
      25     1     1     2     0     0  7.434253397E+01 -8.817294246E+00  1.802408549E+01  1.468142523E+02  1.250000000E+02  0.00000E+00  9.000E+00
      25     1     1     2     0     0 -9.635151242E+01  2.163194782E+01  1.003855056E+03  1.016416021E+03  1.250000000E+02  0.00000E+00  9.000E+00
      21     1     1     2   501   511  2.200897845E+01 -1.281465357E+01  1.060850934E+02  1.090993012E+02  0.000000000E+00  0.00000E+00  9.000E+00
#rwgt            1           1   2.5075719716066203E-002           2      199594           0
</event>
<event>
      5   9999  3.19816E-02  9.46097E+01 -1.00000E+00  1.24920E-01
      21    -1     0     0   502   501  0.000000000E+00  0.000000000E+00  9.771523030E+01  9.771523030E+01  0.000000000E+00  0.00000E+00  9.000E+00
      21    -1     0     0   512   502  0.000000000E+00  0.000000000E+00 -7.845761882E+02  7.845761882E+02  0.000000000E+00  0.00000E+00  9.000E+00
      25     1     1     2     0     0  1.185048582E+02  3.624266151E+01 -3.295514336E+02  3.736122045E+02  1.250000000E+02  0.00000E+00  9.000E+00
      25     1     1     2     0     0 -2.048695467E+02  2.385525084E+00 -1.560069448E+02  2.862523166E+02  1.250000000E+02  0.00000E+00  9.000E+00
      21     1     1     2   512   501  8.636468851E+01 -3.862818660E+01 -2.013025794E+02  2.224268974E+02  2.697398305E-06  0.00000E+00  9.000E+00
#rwgt            1           1   2.6124890862630375E-002           2      199695           0
</event>
<event>
      5   9999  3.19816E-02  2.72866E+01 -1.00000E+00  1.55956E-01
      21    -1     0     0   502   511  0.000000000E+00  0.000000000E+00  8.417858669E+02  8.417858669E+02  0.000000000E+00  0.00000E+00  9.000E+00
      21    -1     0     0   501   502  0.000000000E+00  0.000000000E+00 -6.520311783E+01  6.520311783E+01  0.000000000E+00  0.00000E+00  9.000E+00
      25     1     1     2     0     0  4.754509492E+01  1.251763204E+02  2.885419707E+02  3.417764124E+02  1.250000000E+02  0.00000E+00  9.000E+00
      25     1     1     2     0     0 -5.016095011E+01 -1.523372740E+02  2.352386683E+02  3.109421120E+02  1.250000000E+02  0.00000E+00  9.000E+00
      21     1     1     2   501   511  2.615855195E+00  2.716095365E+01  2.528021101E+02  2.542704603E+02  3.814697266E-06  0.00000E+00  9.000E+00
#rwgt            2          11   8.0254743884344718E-004           2      199823           0
</event>
<event>
      5   9999  3.19816E-02  1.13563E+01 -1.00000E+00  1.89581E-01
      21    -1     0     0   502   501  0.000000000E+00  0.000000000E+00  6.031664827E+02  6.031664827E+02  0.000000000E+00  0.00000E+00  9.000E+00
      21    -1     0     0   512   502  0.000000000E+00  0.000000000E+00 -2.278006222E+02  2.278006222E+02  0.000000000E+00  0.00000E+00  9.000E+00
      25     1     1     2     0     0  6.000021307E+01 -1.994129297E+02 -3.485494781E+01  2.453679064E+02  1.250000000E+02  0.00000E+00  9.000E+00
      25     1     1     2     0     0 -4.945462298E+01  2.036267340E+02  4.674260402E+02  5.272776400E+02  1.250000000E+02  0.00000E+00  9.000E+00
      21     1     1     2   512   501 -1.054559008E+01 -4.213804285E+00 -5.720523199E+01  5.832155849E+01  9.536743164E-07  0.00000E+00  9.000E+00
#rwgt            1           1   2.8232343249876918E-002           2      199843           0
</event>
<event>
      5   9999  3.19816E-02  1.32361E+01 -1.00000E+00  1.82660E-01
      21    -1     0     0   502   501  0.000000000E+00  0.000000000E+00  1.299521016E+03  1.299521016E+03  0.000000000E+00  0.00000E+00  9.000E+00
      21    -1     0     0   511   502  0.000000000E+00  0.000000000E+00 -9.074312301E+01  9.074312301E+01  0.000000000E+00  0.00000E+00  9.000E+00
      25     1     1     2     0     0  2.441655953E+02  5.780178840E+01  5.336864418E+02  6.028300780E+02  1.250000000E+02  0.00000E+00  9.000E+00
      25     1     1     2     0     0 -2.521843290E+02 -6.833236340E+01  7.009228936E+02  7.584089599E+02  1.250000000E+02  0.00000E+00  9.000E+00
      21     1     1     2   511   501  8.018733663E+00  1.053057499E+01 -2.583144225E+01  2.902510134E+01  8.259061849E-07  0.00000E+00  9.000E+00
#rwgt            1           1   3.0066401543264194E-002           2      200075           0
</event>
<event>
      5   9999  3.19816E-02  3.46735E+01 -1.00000E+00  1.48797E-01
      21    -1     0     0   512   501  0.000000000E+00  0.000000000E+00  5.389531623E+02  5.389531623E+02  0.000000000E+00  0.00000E+00  9.000E+00
      21    -1     0     0   501   502  0.000000000E+00  0.000000000E+00 -4.985445749E+02  4.985445749E+02  0.000000000E+00  0.00000E+00  9.000E+00
      25     1     1     2     0     0 -1.335718480E+02  3.838208670E+02 -2.241438646E+02  4.806509841E+02  1.250000000E+02  0.00000E+00  9.000E+00
      25     1     1     2     0     0  1.638490019E+02 -3.669227181E+02  1.660359898E+02  4.524065941E+02  1.250000000E+02  0.00000E+00  9.000E+00
      21     1     1     2   512   502 -3.027715398E+01 -1.689814895E+01  9.851646213E+01  1.044401589E+02  1.348699152E-06  0.00000E+00  9.000E+00
#rwgt            1           1   2.8651513512486855E-002           2      200240           0
</event>
<event>
      5   9999  3.19816E-02  5.29829E+02 -1.00000E+00  9.81423E-02
      21    -1     0     0   511   501  0.000000000E+00  0.000000000E+00  7.004150820E+02  7.004150820E+02  0.000000000E+00  0.00000E+00  9.000E+00
      21    -1     0     0   501   502  0.000000000E+00  0.000000000E+00 -1.077323339E+03  1.077323339E+03  0.000000000E+00  0.00000E+00  9.000E+00
      25     1     1     2     0     0 -2.326975279E+02  4.946840445E+02 -3.846697152E+01  5.621077754E+02  1.250000000E+02  0.00000E+00  9.000E+00
      25     1     1     2     0     0 -1.772921037E+02 -1.590844680E+02 -5.754378820E+02  6.352118655E+02  1.250000000E+02  0.00000E+00  9.000E+00
      21     1     1     2   511   502  4.099896315E+02 -3.355995764E+02  2.369965964E+02  5.804187802E+02  6.031565972E-06  0.00000E+00  9.000E+00
#rwgt            2          11   2.2658003049416077E-003           2      200570           0
</event>
<event>
      5   9999  3.19816E-02  2.21886E+01 -1.00000E+00  1.62732E-01
      21    -1     0     0   502   501  0.000000000E+00  0.000000000E+00  6.642643478E+02  6.642643478E+02  0.000000000E+00  0.00000E+00  9.000E+00
      21    -1     0     0   512   502  0.000000000E+00  0.000000000E+00 -2.363295706E+02  2.363295706E+02  0.000000000E+00  0.00000E+00  9.000E+00
      25     1     1     2     0     0 -2.482287290E+02 -1.870320722E+02  4.243892747E+02  5.406752763E+02  1.250000000E+02  0.00000E+00  9.000E+00
      25     1     1     2     0     0  2.622165321E+02  1.698078638E+02  1.057321228E+01  3.366437480E+02  1.250000000E+02  0.00000E+00  9.000E+00
      21     1     1     2   512   501 -1.398780309E+01  1.722420847E+01 -7.027709759E+00  2.327489414E+01  2.665600750E-07  0.00000E+00  9.000E+00
#rwgt            1           1   1.9192367400130427E-002           2      200620           0
</event>
<event>
      5   9999  3.19816E-02  8.17879E+01 -1.00000E+00  1.27887E-01
      21    -1     0     0   511   501  0.000000000E+00  0.000000000E+00  5.378005286E+02  5.378005286E+02  0.000000000E+00  0.00000E+00  9.000E+00
      21    -1     0     0   501   502  0.000000000E+00  0.000000000E+00 -1.728498494E+02  1.728498494E+02  0.000000000E+00  0.00000E+00  9.000E+00
      25     1     1     2     0     0 -1.550566656E+02  9.424969104E+01  2.627577429E+02  3.429171989E+02  1.250000000E+02  0.00000E+00  9.000E+00
      25     1     1     2     0     0  1.536015999E+02 -1.760245986E+02  4.707938775E+01  2.691088619E+02  1.250000000E+02  0.00000E+00  9.000E+00
      21     1     1     2   511   502  1.455065756E+00  8.177490752E+01  5.511354855E+01  9.862431723E+01  1.348699152E-06  0.00000E+00  9.000E+00
#rwgt            1           1   2.2496465637204473E-002           2      200756           0
</event>
<event>
      5   9999  3.19816E-02  3.10286E+01 -1.00000E+00  1.52030E-01
      21    -1     0     0   502   501  0.000000000E+00  0.000000000E+00  4.808606554E+02  4.808606554E+02  0.000000000E+00  0.00000E+00  9.000E+00
      21    -1     0     0   501   512  0.000000000E+00  0.000000000E+00 -3.933088501E+02  3.933088501E+02  0.000000000E+00  0.00000E+00  9.000E+00
      25     1     1     2     0     0 -2.300856738E+01 -2.350033271E+02  3.861062556E+02  4.695306151E+02  1.250000000E+02  0.00000E+00  9.000E+00
      25     1     1     2     0     0  1.954628910E+01  2.041684797E+02 -2.474525372E+02  3.448544384E+02  1.250000000E+02  0.00000E+00  9.000E+00
      21     1     1     2   502   512  3.462278286E+00  3.083484739E+01 -5.110191303E+01  5.978445200E+01  1.168007728E-06  0.00000E+00  9.000E+00
#rwgt            1           1   2.8045852430393814E-002           2      200844           0
</event>
<event>
      5   9999  3.19816E-02  1.14918E+02 -1.00000E+00  1.21171E-01
      21    -1     0     0   502   501  0.000000000E+00  0.000000000E+00  1.415007622E+02  1.415007622E+02  0.000000000E+00  0.00000E+00  9.000E+00
       3    -1     0     0   501     0  0.000000000E+00  0.000000000E+00 -6.104881415E+02  6.104881415E+02  0.000000000E+00  0.00000E+00  9.000E+00
      25     1     1     2     0     0  2.275179621E+01 -1.331411911E+02 -5.779462941E+01  1.928974862E+02  1.250000000E+02  0.00000E+00  9.000E+00
      25     1     1     2     0     0  9.204995288E+01  1.279645270E+02 -9.464704725E+01  2.223312339E+02  1.250000000E+02  0.00000E+00  9.000E+00
       3     1     1     2   502     0 -1.148017491E+02  5.176664068E+00 -3.165457026E+02  3.367601836E+02  5.394796609E-06  0.00000E+00  9.000E+00
#rwgt            1           1   2.8283055048714457E-002           2      201098           0
</event>
<event>
      5   9999  3.19816E-02  4.79430E+01 -1.00000E+00  1.40125E-01
      21    -1     0     0   502   501  0.000000000E+00  0.000000000E+00  7.368585183E+01  7.368585183E+01  0.000000000E+00  0.00000E+00  9.000E+00
       1    -1     0     0   501     0  0.000000000E+00  0.000000000E+00 -2.135748697E+03  2.135748697E+03  0.000000000E+00  0.00000E+00  9.000E+00
      25     1     1     2     0     0 -8.058814909E+01 -5.937513711E+01 -2.884458145E+01  1.627171367E+02  1.250000000E+02  0.00000E+00  9.000E+00
      25     1     1     2     0     0  1.242013096E+02  3.946465572E+01 -1.768257512E+03  1.777454093E+03  1.250000000E+02  0.00000E+00  9.000E+00
       1     1     1     2   502     0 -4.361316051E+01  1.991048139E+01 -2.649607514E+02  2.692633188E+02  5.394796609E-06  0.00000E+00  9.000E+00
#rwgt            1           1   3.5220997237536314E-002           2      201154           0
</event>
<event>
      5   9999  3.19816E-02  6.23958E+01 -1.00000E+00  1.33801E-01
      21    -1     0     0   502   501  0.000000000E+00  0.000000000E+00  1.105919661E+03  1.105919661E+03  0.000000000E+00  0.00000E+00  9.000E+00
      21    -1     0     0   501   511  0.000000000E+00  0.000000000E+00 -1.388030175E+03  1.388030175E+03  0.000000000E+00  0.00000E+00  9.000E+00
      25     1     1     2     0     0  6.511760398E+02 -1.233066825E+02  7.063298442E+02  9.766071992E+02  1.250000000E+02  0.00000E+00  9.000E+00
      25     1     1     2     0     0 -5.947458422E+02  9.668217937E+01 -9.612018263E+01  6.228436001E+02  1.250000000E+02  0.00000E+00  9.000E+00
      21     1     1     2   502   511 -5.643019761E+01  2.662450316E+01 -8.923201759E+02  8.944990373E+02  1.078959322E-05  0.00000E+00  9.000E+00
#rwgt            1           1   3.1079574315884494E-002           2      201264           0
</event>
<event>
      5   9999  3.19816E-02  5.14138E+01 -1.00000E+00  1.38388E-01
      21    -1     0     0   502   501  0.000000000E+00  0.000000000E+00  1.540246832E+02  1.540246832E+02  0.000000000E+00  0.00000E+00  9.000E+00
      21    -1     0     0   501   512  0.000000000E+00  0.000000000E+00 -1.751290921E+03  1.751290921E+03  0.000000000E+00  0.00000E+00  9.000E+00
      25     1     1     2     0     0 -2.790376758E+02 -2.367226505E+02 -3.374795393E+02  5.132417337E+02  1.250000000E+02  0.00000E+00  9.000E+00
      25     1     1     2     0     0  2.965787918E+02  1.883936753E+02 -4.670516707E+02  5.976733387E+02  1.250000000E+02  0.00000E+00  9.000E+00
      21     1     1     2   502   512 -1.754111601E+01  4.832897519E+01 -7.927350281E+02  7.944005321E+02  1.525878906E-05  0.00000E+00  9.000E+00
#rwgt            1           1   2.7013376437304646E-002           2      201347           0
</event>
<event>
      5   9999  3.19816E-02  5.76292E+02 -1.00000E+00  9.71310E-02
       2    -1     0     0   502     0  0.000000000E+00  0.000000000E+00  3.045173692E+03  3.045173692E+03  0.000000000E+00  0.00000E+00  9.000E+00
      21    -1     0     0   501   502  0.000000000E+00  0.000000000E+00 -3.706987337E+02  3.706987337E+02  0.000000000E+00  0.00000E+00  9.000E+00
      25     1     1     2     0     0  8.580556992E+02  5.654789440E+01  5.527987154E+02  1.029887696E+03  1.250000000E+02  0.00000E+00  9.000E+00
      25     1     1     2     0     0 -2.894459061E+02 -1.503325272E+02  2.552563732E+02  4.326194833E+02  1.250000000E+02  0.00000E+00  9.000E+00
       2     1     1     2   501     0 -5.686097931E+02  9.378463275E+01  1.866419870E+03  1.953365246E+03  2.157918644E-05  0.00000E+00  9.000E+00
#rwgt            2          18   1.3254034502807582E-003           2      201508           0
</event>
<event>
      5   9999  3.19816E-02  3.98723E+01 -1.00000E+00  1.44926E-01
      21    -1     0     0   502   501  0.000000000E+00  0.000000000E+00  4.937889020E+02  4.937889020E+02  0.000000000E+00  0.00000E+00  9.000E+00
      21    -1     0     0   511   502  0.000000000E+00  0.000000000E+00 -6.324858865E+02  6.324858865E+02  0.000000000E+00  0.00000E+00  9.000E+00
      25     1     1     2     0     0  1.412365939E+02  4.155129472E+02 -2.857612440E+01  4.572093390E+02  1.250000000E+02  0.00000E+00  9.000E+00
      25     1     1     2     0     0 -1.540154330E+02 -4.532820189E+02  5.626209097E+01  4.979716509E+02  1.250000000E+02  0.00000E+00  9.000E+00
      21     1     1     2   511   501  1.277883917E+01  3.776907164E+01 -1.663829511E+02  1.710937986E+02  0.000000000E+00  0.00000E+00  9.000E+00
#rwgt            1           1   3.2766146414010516E-002           2      201527           0
</event>
<event>
      5   9999  3.19816E-02  1.12071E+02 -1.00000E+00  1.21642E-01
      21    -1     0     0   502   501  0.000000000E+00  0.000000000E+00  4.775757974E+02  4.775757974E+02  0.000000000E+00  0.00000E+00  9.000E+00
      21    -1     0     0   512   502  0.000000000E+00  0.000000000E+00 -7.239252795E+02  7.239252795E+02  0.000000000E+00  0.00000E+00  9.000E+00
      25     1     1     2     0     0 -3.164094129E+02  1.260642043E+02 -3.487554718E+02  5.032519044E+02  1.250000000E+02  0.00000E+00  9.000E+00
      25     1     1     2     0     0  4.180237325E+02 -7.879380836E+01  2.530411251E+02  5.104969306E+02  1.250000000E+02  0.00000E+00  9.000E+00
      21     1     1     2   512   501 -1.016143196E+02 -4.727039590E+01 -1.506351355E+02  1.877522419E+02  0.000000000E+00  0.00000E+00  9.000E+00
#rwgt            1           1   2.8885976032490077E-002           2      201644           0
</event>
<event>
      5   9999  3.19816E-02  1.53773E+02 -1.00000E+00  1.15968E-01
      21    -1     0     0   502   501  0.000000000E+00  0.000000000E+00  2.166090181E+02  2.166090181E+02  0.000000000E+00  0.00000E+00  9.000E+00
      21    -1     0     0   511   502  0.000000000E+00  0.000000000E+00 -4.800265538E+02  4.800265538E+02  0.000000000E+00  0.00000E+00  9.000E+00
      25     1     1     2     0     0  4.203223465E+01  3.357213095E+01  6.923942946E+01  1.526856094E+02  1.250000000E+02  0.00000E+00  9.000E+00
      25     1     1     2     0     0 -1.754946991E+02  4.280825285E+01 -5.483865166E+01  2.264138106E+02  1.250000000E+02  0.00000E+00  9.000E+00
      21     1     1     2   511   501  1.334624644E+02 -7.638038380E+01 -2.778183135E+02  3.175361519E+02  5.394796609E-06  0.00000E+00  9.000E+00
#rwgt            1           1   2.3739447631603041E-002           2      201744           0
</event>
<event>
      5   9999  3.19816E-02  1.04617E+01 -1.00000E+00  1.93518E-01
      21    -1     0     0   512   501  0.000000000E+00  0.000000000E+00  3.062350306E+02  3.062350306E+02  0.000000000E+00  0.00000E+00  9.000E+00
      21    -1     0     0   501   502  0.000000000E+00  0.000000000E+00 -1.356930686E+02  1.356930686E+02  0.000000000E+00  0.00000E+00  9.000E+00
      25     1     1     2     0     0  3.173143360E+01 -1.312867919E+02  1.316699570E+02  2.262854021E+02  1.250000000E+02  0.00000E+00  9.000E+00
      25     1     1     2     0     0 -2.685858690E+01  1.220292454E+02  1.409660895E+00  1.767470157E+02  1.250000000E+02  0.00000E+00  9.000E+00
      21     1     1     2   512   502 -4.872846705E+00  9.257546511E+00  3.746234413E+01  3.889568138E+01  0.000000000E+00  0.00000E+00  9.000E+00
#rwgt            1           1   2.6398609467858530E-002           2      201787           0
</event>
<event>
      5   9999  3.19816E-02  8.93435E+01 -1.00000E+00  1.26070E-01
      21    -1     0     0   502   501  0.000000000E+00  0.000000000E+00  3.609413904E+02  3.609413904E+02  0.000000000E+00  0.00000E+00  9.000E+00
      21    -1     0     0   501   511  0.000000000E+00  0.000000000E+00 -8.581727731E+02  8.581727731E+02  0.000000000E+00  0.00000E+00  9.000E+00
      25     1     1     2     0     0 -2.261354107E+00  4.226626492E+01 -2.225083273E+02  2.587015782E+02  1.250000000E+02  0.00000E+00  9.000E+00
      25     1     1     2     0     0 -8.233887963E+01 -7.099022380E+01  3.192950058E+02  3.597132242E+02  1.250000000E+02  0.00000E+00  9.000E+00
      21     1     1     2   502   511  8.460023374E+01  2.872395889E+01 -5.940180612E+02  6.006993611E+02  7.629394531E-06  0.00000E+00  9.000E+00
#rwgt            1           1   2.8768924062857075E-002           2      201910           0
</event>
<event>
      5   9999  3.19816E-02  9.19212E+02 -1.00000E+00  9.18781E-02
      21    -1     0     0   502   501  0.000000000E+00  0.000000000E+00  2.422470666E+03  2.422470666E+03  0.000000000E+00  0.00000E+00  9.000E+00
       2    -1     0     0   501     0  0.000000000E+00  0.000000000E+00 -5.549399355E+02  5.549399355E+02  0.000000000E+00  0.00000E+00  9.000E+00
      25     1     1     2     0     0 -3.439552951E+02  6.131133731E+01  2.771503946E+02  4.631432460E+02  1.250000000E+02  0.00000E+00  9.000E+00
      25     1     1     2     0     0  4.641766817E+02  8.500053347E+02  1.105408945E+03  1.474965422E+03  1.250000000E+02  0.00000E+00  9.000E+00
       2     1     1     2   502     0 -1.202213865E+02 -9.113166720E+02  4.849713907E+02  1.039301933E+03  2.089395742E-05  0.00000E+00  9.000E+00
#rwgt            2          13   1.1471110094542744E-004           2      201996           0
</event>
<event>
      5   9999  3.19816E-02  4.56124E+01 -1.00000E+00  1.41390E-01
      21    -1     0     0   502   501  0.000000000E+00  0.000000000E+00  3.703156507E+02  3.703156507E+02  0.000000000E+00  0.00000E+00  9.000E+00
      21    -1     0     0   501   511  0.000000000E+00  0.000000000E+00 -1.998018635E+02  1.998018635E+02  0.000000000E+00  0.00000E+00  9.000E+00
      25     1     1     2     0     0  2.194054338E+02 -6.491232575E+01  1.075675250E+02  2.820427748E+02  1.250000000E+02  0.00000E+00  9.000E+00
      25     1     1     2     0     0 -1.788967338E+02  4.394715564E+01  8.386477435E+01  2.378942921E+02  1.250000000E+02  0.00000E+00  9.000E+00
      21     1     1     2   502   511 -4.050869998E+01  2.096517011E+01 -2.091851220E+01  5.018044723E+01  4.768371582E-07  0.00000E+00  9.000E+00
#rwgt            1           1   3.1453572449113523E-002           2      202060           0
</event>
<event>
      5   9999  3.19816E-02  8.41020E+02 -1.00000E+00  9.28333E-02
      21    -1     0     0   502   512  0.000000000E+00  0.000000000E+00  7.059757745E+02  7.059757745E+02  0.000000000E+00  0.00000E+00  9.000E+00
      21    -1     0     0   501   502  0.000000000E+00  0.000000000E+00 -2.168013325E+03  2.168013325E+03  0.000000000E+00  0.00000E+00  9.000E+00
      25     1     1     2     0     0 -2.278447621E+02  4.958640786E+02 -8.930301021E+02  1.054002933E+03  1.250000000E+02  0.00000E+00  9.000E+00
      25     1     1     2     0     0 -5.968663223E+02 -3.310444706E+02 -6.801770477E+02  9.716509994E+02  1.250000000E+02  0.00000E+00  9.000E+00
      21     1     1     2   501   512  8.247110845E+02 -1.648196080E+02  1.111695991E+02  8.483351671E+02  8.313939941E-06  0.00000E+00  9.000E+00
#rwgt            2          11   1.5112415191514701E-003           2      202128           0
</event>
<event>
      5   9999  3.19816E-02  1.33413E+02 -1.00000E+00  1.18447E-01
      21    -1     0     0   502   501  0.000000000E+00  0.000000000E+00  7.656307027E+02  7.656307027E+02  0.000000000E+00  0.00000E+00  9.000E+00
      21    -1     0     0   511   502  0.000000000E+00  0.000000000E+00 -1.192215057E+03  1.192215057E+03  0.000000000E+00  0.00000E+00  9.000E+00
      25     1     1     2     0     0 -1.761549668E+02  2.417812164E+02  6.475003910E+01  3.306150276E+02  1.250000000E+02  0.00000E+00  9.000E+00
      25     1     1     2     0     0  4.313317356E+01 -2.519893032E+02  5.276773156E+02  5.995226676E+02  1.250000000E+02  0.00000E+00  9.000E+00
      21     1     1     2   511   501  1.330217932E+02  1.020808678E+01 -1.019011709E+03  1.027708064E+03  1.525878906E-05  0.00000E+00  9.000E+00
#rwgt            1           1   2.8440670467249005E-002           2      202148           0
</event>
<event>
      5   9999  3.19816E-02  4.85614E+01 -1.00000E+00  1.39803E-01
      21    -1     0     0   502   512  0.000000000E+00  0.000000000E+00  7.182221084E+02  7.182221084E+02  0.000000000E+00  0.00000E+00  9.000E+00
      21    -1     0     0   501   502  0.000000000E+00  0.000000000E+00 -1.044320247E+02  1.044320247E+02  0.000000000E+00  0.00000E+00  9.000E+00
      25     1     1     2     0     0  1.507317956E+02  7.054043784E+01  6.682164862E+01  2.186004581E+02  1.250000000E+02  0.00000E+00  9.000E+00
      25     1     1     2     0     0 -1.052594925E+02 -5.349708415E+01  2.517513006E+02  3.048691787E+02  1.250000000E+02  0.00000E+00  9.000E+00
      21     1     1     2   501   512 -4.547230306E+01 -1.704335368E+01  2.952171345E+02  2.991844962E+02  0.000000000E+00  0.00000E+00  9.000E+00
#rwgt            1           1   2.6913624405785434E-002           2      202203           0
</event>
<event>
      5   9999  3.19816E-02  5.71431E+01 -1.00000E+00  1.35845E-01
      21    -1     0     0   502   501  0.000000000E+00  0.000000000E+00  4.808342285E+02  4.808342285E+02  0.000000000E+00  0.00000E+00  9.000E+00
      21    -1     0     0   501   511  0.000000000E+00  0.000000000E+00 -1.245584228E+02  1.245584228E+02  0.000000000E+00  0.00000E+00  9.000E+00
      25     1     1     2     0     0  7.521870789E+01  5.606411026E+01  2.327788289E+02  2.803783545E+02  1.250000000E+02  0.00000E+00  9.000E+00
      25     1     1     2     0     0 -1.030961687E+02 -1.059457439E+02  1.650171817E+02  2.543796197E+02  1.250000000E+02  0.00000E+00  9.000E+00
      21     1     1     2   502   511  2.787746085E+01  4.988163362E+01 -4.152020486E+01  7.063467709E+01  8.259061849E-07  0.00000E+00  9.000E+00
#rwgt            1           1   2.9164806244599460E-002           2      202271           0
</event>
<event>
      5   9999  3.19816E-02  5.83219E+01 -1.00000E+00  1.35365E-01
      21    -1     0     0   502   501  0.000000000E+00  0.000000000E+00  1.073277100E+02  1.073277100E+02  0.000000000E+00  0.00000E+00  9.000E+00
       2    -1     0     0   501     0  0.000000000E+00  0.000000000E+00 -9.653566714E+02  9.653566714E+02  0.000000000E+00  0.00000E+00  9.000E+00
      25     1     1     2     0     0 -1.256557598E+02  1.399468253E+02 -8.095520077E+01  2.399025394E+02  1.250000000E+02  0.00000E+00  9.000E+00
      25     1     1     2     0     0  1.559965824E+02 -9.013837079E+01 -4.504163390E+02  5.009588188E+02  1.250000000E+02  0.00000E+00  9.000E+00
       2     1     1     2   502     0 -3.034082265E+01 -4.980845449E+01 -3.266574216E+02  3.318230232E+02  3.814697266E-06  0.00000E+00  9.000E+00
#rwgt            1           1   2.7382708181042669E-002           2      202337           0
</event>
<event>
      5   9999  3.19816E-02  9.38489E+01 -1.00000E+00  1.25081E-01
      21    -1     0     0   502   501  0.000000000E+00  0.000000000E+00  1.568151413E+03  1.568151413E+03  0.000000000E+00  0.00000E+00  9.000E+00
       1    -1     0     0   501     0  0.000000000E+00  0.000000000E+00 -1.623434076E+03  1.623434076E+03  0.000000000E+00  0.00000E+00  9.000E+00
      25     1     1     2     0     0 -1.197027718E+03 -4.126085988E+02  4.871918403E+01  1.273232018E+03  1.250000000E+02  0.00000E+00  9.000E+00
      25     1     1     2     0     0  1.267587449E+03  3.507302362E+02  4.197813050E+02  1.386229052E+03  1.250000000E+02  0.00000E+00  9.000E+00
       1     1     1     2   502     0 -7.055973107E+01  6.187836262E+01 -5.237831517E+02  5.321244191E+02  7.629394531E-06  0.00000E+00  9.000E+00
#rwgt            1           1   4.8392978299589329E-002           2      202463           0
</event>
<event>
      5   9999  3.19816E-02  2.91020E+01 -1.00000E+00  1.53962E-01
      21    -1     0     0   502   501  0.000000000E+00  0.000000000E+00  3.274707696E+02  3.274707696E+02  0.000000000E+00  0.00000E+00  9.000E+00
      21    -1     0     0   501   511  0.000000000E+00  0.000000000E+00 -1.078809382E+03  1.078809382E+03  0.000000000E+00  0.00000E+00  9.000E+00
      25     1     1     2     0     0  5.513246737E+02 -3.006887413E+01 -3.292026350E+02  6.548758722E+02  1.250000000E+02  0.00000E+00  9.000E+00
      25     1     1     2     0     0 -5.775981646E+02  4.258405290E+01 -4.034674063E+02  7.168291214E+02  1.250000000E+02  0.00000E+00  9.000E+00
      21     1     1     2   502   511  2.627349085E+01 -1.251517877E+01 -1.866857160E+01  3.457515852E+01  3.371747881E-07  0.00000E+00  9.000E+00
#rwgt            1           1   2.8295116381503598E-002           2      202619           0
</event>
<event>
      5   9999  3.19816E-02  1.30349E+02 -1.00000E+00  1.18863E-01
      21    -1     0     0   502   512  0.000000000E+00  0.000000000E+00  1.082706638E+03  1.082706638E+03  0.000000000E+00  0.00000E+00  9.000E+00
      21    -1     0     0   501   502  0.000000000E+00  0.000000000E+00 -7.013681222E+01  7.013681222E+01  0.000000000E+00  0.00000E+00  9.000E+00
      25     1     1     2     0     0 -9.392689692E+00 -1.183897095E+02  3.763287095E+02  4.139476337E+02  1.250000000E+02  0.00000E+00  9.000E+00
      25     1     1     2     0     0  1.150281989E+02  4.202144441E+01  1.350873519E+02  2.210675937E+02  1.250000000E+02  0.00000E+00  9.000E+00
      21     1     1     2   501   512 -1.056355092E+02  7.636826505E+01  5.011537646E+02  5.178282230E+02  5.394796609E-06  0.00000E+00  9.000E+00
#rwgt            1           1   2.6946804459807565E-002           2      202796           0
</event>
<event>
      5   9999  3.19816E-02  2.43919E+02 -1.00000E+00  1.08597E-01
      21    -1     0     0   502   501  0.000000000E+00  0.000000000E+00  1.000524840E+02  1.000524840E+02  0.000000000E+00  0.00000E+00  9.000E+00
      -2    -1     0     0     0   502  0.000000000E+00  0.000000000E+00 -1.642279042E+03  1.642279042E+03  0.000000000E+00  0.00000E+00  9.000E+00
      25     1     1     2     0     0 -6.187952693E+01  1.262961868E+02 -1.333353636E+02  2.306146609E+02  1.250000000E+02  0.00000E+00  9.000E+00
      25     1     1     2     0     0  1.471092254E+02  1.022476703E+02 -2.715373541E+02  3.485014275E+02  1.250000000E+02  0.00000E+00  9.000E+00
      -2     1     1     2     0   501 -8.522969851E+01 -2.285438571E+02 -1.137353840E+03  1.163215437E+03  1.525878906E-05  0.00000E+00  9.000E+00
#rwgt            2           9   2.7987343938886924E-004           2      202877           0
</event>
<event>
      5   9999  3.19816E-02  5.57651E+01 -1.00000E+00  1.36424E-01
      21    -1     0     0   502   501  0.000000000E+00  0.000000000E+00  3.653848686E+02  3.653848686E+02  0.000000000E+00  0.00000E+00  9.000E+00
      21    -1     0     0   511   502  0.000000000E+00  0.000000000E+00 -1.116794020E+03  1.116794020E+03  0.000000000E+00  0.00000E+00  9.000E+00
      25     1     1     2     0     0 -4.579404302E+02  1.169210216E+02  5.965632512E+01  4.925077055E+02  1.250000000E+02  0.00000E+00  9.000E+00
      25     1     1     2     0     0  4.626945929E+02 -1.724830947E+02 -7.039815807E+02  8.689371498E+02  1.250000000E+02  0.00000E+00  9.000E+00
      21     1     1     2   511   501 -4.754162714E+00  5.556207312E+01 -1.070838953E+02  1.207340328E+02  0.000000000E+00  0.00000E+00  9.000E+00
#rwgt            1           1   2.3301996588749679E-002           2      202911           0
</event>
<event>
      5   9999  3.19816E-02  2.58803E+01 -1.00000E+00  1.57633E-01
      21    -1     0     0   502   512  0.000000000E+00  0.000000000E+00  6.809969575E+02  6.809969575E+02  0.000000000E+00  0.00000E+00  9.000E+00
      21    -1     0     0   501   502  0.000000000E+00  0.000000000E+00 -5.195637817E+02  5.195637817E+02  0.000000000E+00  0.00000E+00  9.000E+00
      25     1     1     2     0     0  1.143063615E+01 -5.487390681E+02 -5.084943845E+01  5.652042902E+02  1.250000000E+02  0.00000E+00  9.000E+00
      25     1     1     2     0     0 -3.729538359E+01  5.496374136E+02  1.777650452E+02  5.922141871E+02  1.250000000E+02  0.00000E+00  9.000E+00
      21     1     1     2   501   512  2.586474744E+01 -8.983455617E-01  3.451756912E+01  4.314226191E+01  4.768371582E-07  0.00000E+00  9.000E+00
#rwgt            1           1   3.0573551540761971E-002           2      203063           0
</event>
<event>
      5   9999  3.19816E-02  1.74255E+02 -1.00000E+00  1.13871E-01
      21    -1     0     0   502   501  0.000000000E+00  0.000000000E+00  8.673776771E+02  8.673776771E+02  0.000000000E+00  0.00000E+00  9.000E+00
      21    -1     0     0   511   502  0.000000000E+00  0.000000000E+00 -2.120015111E+02  2.120015111E+02  0.000000000E+00  0.00000E+00  9.000E+00
      25     1     1     2     0     0 -3.728000740E+01 -1.879675381E+02  9.297145599E+00  2.289826003E+02  1.250000000E+02  0.00000E+00  9.000E+00
      25     1     1     2     0     0  1.964603751E+02  2.588653093E+02  5.512644640E+02  6.520164389E+02  1.250000000E+02  0.00000E+00  9.000E+00
      21     1     1     2   511   501 -1.591803677E+02 -7.089777118E+01  9.481455640E+01  1.983801490E+02  5.394796609E-06  0.00000E+00  9.000E+00
#rwgt            2          11   3.8924049400234817E-003           2      203308           0
</event>
<event>
      5   9999  3.19816E-02  1.98091E+02 -1.00000E+00  1.11800E-01
      21    -1     0     0   502   512  0.000000000E+00  0.000000000E+00  1.116598435E+02  1.116598435E+02  0.000000000E+00  0.00000E+00  9.000E+00
      21    -1     0     0   501   502  0.000000000E+00  0.000000000E+00 -2.465692296E+03  2.465692296E+03  0.000000000E+00  0.00000E+00  9.000E+00
      25     1     1     2     0     0  1.226148486E+02  2.347195108E+02 -1.692439152E+03  1.717586368E+03  1.250000000E+02  0.00000E+00  9.000E+00
      25     1     1     2     0     0 -2.937843700E+02 -1.350146847E+02 -3.676208542E+02  5.052804307E+02  1.250000000E+02  0.00000E+00  9.000E+00
      21     1     1     2   501   512  1.711695214E+02 -9.970482611E+01 -2.939724457E+02  3.544853400E+02  6.607249480E-06  0.00000E+00  9.000E+00
#rwgt            1           1   2.6869402199645166E-002           2      203343           0
</event>
<event>
      5   9999  3.19816E-02  7.01529E+01 -1.00000E+00  1.31173E-01
      21    -1     0     0   511   501  0.000000000E+00  0.000000000E+00  3.317623887E+02  3.317623887E+02  0.000000000E+00  0.00000E+00  9.000E+00
      21    -1     0     0   501   502  0.000000000E+00  0.000000000E+00 -4.278899483E+02  4.278899483E+02  0.000000000E+00  0.00000E+00  9.000E+00
      25     1     1     2     0     0  7.744394117E+01  1.460187087E+02 -2.434612811E+02  3.197145957E+02  1.250000000E+02  0.00000E+00  9.000E+00
      25     1     1     2     0     0 -1.708083617E+01 -1.817639513E+02 -5.313530097E+01  2.275483447E+02  1.250000000E+02  0.00000E+00  9.000E+00
      21     1     1     2   511   502 -6.036310500E+01  3.574524260E+01  2.004690225E+02  2.123893966E+02  2.697398305E-06  0.00000E+00  9.000E+00
#rwgt            1           1   2.9184787245222929E-002           2      203391           0
</event>
<event>
      5   9999  3.19816E-02  5.94693E+01 -1.00000E+00  1.34910E-01
      -3    -1     0     0     0   501  0.000000000E+00  0.000000000E+00  1.565492295E+03  1.565492295E+03  0.000000000E+00  0.00000E+00  9.000E+00
      21    -1     0     0   501   502  0.000000000E+00  0.000000000E+00 -1.424328095E+02  1.424328095E+02  0.000000000E+00  0.00000E+00  9.000E+00
      25     1     1     2     0     0  2.975221897E+02 -2.001880153E+02  9.747275295E+02  1.046094380E+03  1.250000000E+02  0.00000E+00  9.000E+00
      25     1     1     2     0     0 -3.094665431E+02  2.584454480E+02  3.570055706E+02  5.528485944E+02  1.250000000E+02  0.00000E+00  9.000E+00
      -3     1     1     2     0   502  1.194435335E+01 -5.825743265E+01  9.132638567E+01  1.089821304E+02  1.348699152E-06  0.00000E+00  9.000E+00
#rwgt            1           1   2.7412005496395310E-002           2      203468           0
</event>
<event>
      5   9999  3.67577E-02  3.58365E+01 -1.00000E+00  1.47864E-01
      21    -1     0     0   511   501  0.000000000E+00  0.000000000E+00  4.791413555E+02  4.791413555E+02  0.000000000E+00  0.00000E+00  9.000E+00
      21    -1     0     0   501   502  0.000000000E+00  0.000000000E+00 -3.064588853E+03  3.064588853E+03  0.000000000E+00  0.00000E+00  9.000E+00
      25     1     1     2     0     0  9.233076787E+01 -5.978698182E+02 -2.525480249E+03  2.599932456E+03  1.250000000E+02  0.00000E+00  9.000E+00
      25     1     1     2     0     0 -1.082478666E+02  6.299774227E+02 -2.885858336E+02  7.123874908E+02  1.250000000E+02  0.00000E+00  9.000E+00
      21     1     1     2   511   502  1.591709872E+01 -3.210760449E+01  2.286185842E+02  2.314102620E+02  3.814697266E-06  0.00000E+00  9.000E+00
#rwgt            1           1  0.11598599816646384                2      203562           0
</event>
<event>
      5   9999  3.19816E-02  6.24252E+02 -1.00000E+00  9.61887E-02
      21    -1     0     0   502   501  0.000000000E+00  0.000000000E+00  5.895882672E+02  5.895882672E+02  0.000000000E+00  0.00000E+00  9.000E+00
       2    -1     0     0   501     0  0.000000000E+00  0.000000000E+00 -2.391347521E+03  2.391347521E+03  0.000000000E+00  0.00000E+00  9.000E+00
      25     1     1     2     0     0 -4.480194214E+02 -1.047578455E+03 -5.554031771E+02  1.273671744E+03  1.250000000E+02  0.00000E+00  9.000E+00
      25     1     1     2     0     0  2.800032979E+02  4.463622274E+02 -5.442276239E+02  7.677563360E+02  1.250000000E+02  0.00000E+00  9.000E+00
       2     1     1     2   502     0  1.680161235E+02  6.012162277E+02 -7.021284525E+02  9.395077084E+02  7.629394531E-06  0.00000E+00  9.000E+00
#rwgt            2          13   1.2028851488411080E-003           2      203850           0
</event>
<event>
      5   9999  3.19816E-02  1.03966E+02 -1.00000E+00  1.23073E-01
       2    -1     0     0   502     0  0.000000000E+00  0.000000000E+00  1.505114590E+03  1.505114590E+03  0.000000000E+00  0.00000E+00  9.000E+00
      21    -1     0     0   501   502  0.000000000E+00  0.000000000E+00 -4.777542298E+02  4.777542298E+02  0.000000000E+00  0.00000E+00  9.000E+00
      25     1     1     2     0     0  1.062585569E+01 -4.638333449E+02  2.419668517E+01  4.811078467E+02  1.250000000E+02  0.00000E+00  9.000E+00
      25     1     1     2     0     0  9.084526129E+01  4.411948936E+02 -2.520359245E+01  4.681517027E+02  1.250000000E+02  0.00000E+00  9.000E+00
       2     1     1     2   501     0 -1.014711170E+02  2.263845123E+01  1.028367267E+03  1.033609270E+03  0.000000000E+00  0.00000E+00  9.000E+00
#rwgt            1           1   2.5421325055707929E-002           2      203884           0
</event>
<event>
      5   9999  3.19816E-02  2.54680E+02 -1.00000E+00  1.07956E-01
      21    -1     0     0   502   501  0.000000000E+00  0.000000000E+00  1.978283042E+02  1.978283042E+02  0.000000000E+00  0.00000E+00  9.000E+00
      21    -1     0     0   511   502  0.000000000E+00  0.000000000E+00 -5.663547869E+02  5.663547869E+02  0.000000000E+00  0.00000E+00  9.000E+00
      25     1     1     2     0     0 -1.262548483E+02  1.568876819E+01 -4.059005237E+01  1.829179502E+02  1.250000000E+02  0.00000E+00  9.000E+00
      25     1     1     2     0     0 -7.530065725E+01 -1.713724226E+02 -1.464271487E+02  2.685230085E+02  1.250000000E+02  0.00000E+00  9.000E+00
      21     1     1     2   511   501  2.015555055E+02  1.556836544E+02 -1.815092816E+02  3.127421324E+02  2.697398305E-06  0.00000E+00  9.000E+00
#rwgt            1           1   2.0798714245453112E-002           2      203948           0
</event>
<event>
      5   9999  3.19816E-02  1.66205E+01 -1.00000E+00  1.73287E-01
      21    -1     0     0   502   501  0.000000000E+00  0.000000000E+00  2.731107663E+03  2.731107663E+03  0.000000000E+00  0.00000E+00  9.000E+00
      21    -1     0     0   512   502  0.000000000E+00  0.000000000E+00 -1.355585737E+02  1.355585737E+02  0.000000000E+00  0.00000E+00  9.000E+00
      25     1     1     2     0     0 -2.516613769E+02 -1.976783399E+01  4.018784996E+02  4.907703581E+02  1.250000000E+02  0.00000E+00  9.000E+00
      25     1     1     2     0     0  2.677467607E+02  1.558426243E+01  2.274352251E+03  2.293520080E+03  1.250000000E+02  0.00000E+00  9.000E+00
      21     1     1     2   512   501 -1.608538385E+01  4.183571556E+00 -8.068166084E+01  8.237579887E+01  4.046097457E-06  0.00000E+00  9.000E+00
#rwgt            1           1   5.1546947575180344E-002           2      203978           0
</event>
<event>
      5   9999  3.19816E-02  1.05165E+02 -1.00000E+00  1.22852E-01
      21    -1     0     0   502   501  0.000000000E+00  0.000000000E+00  5.792501284E+02  5.792501284E+02  0.000000000E+00  0.00000E+00  9.000E+00
      21    -1     0     0   511   502  0.000000000E+00  0.000000000E+00 -8.837572216E+02  8.837572216E+02  0.000000000E+00  0.00000E+00  9.000E+00
      25     1     1     2     0     0  5.756682878E+02  2.331132923E+02 -2.445091176E+02  6.790769420E+02  1.250000000E+02  0.00000E+00  9.000E+00
      25     1     1     2     0     0 -6.079968311E+02 -1.330405638E+02  4.360266780E+01  6.363066327E+02  1.250000000E+02  0.00000E+00  9.000E+00
      21     1     1     2   511   501  3.232854325E+01 -1.000727285E+02 -1.036006434E+02  1.476237752E+02  1.907348633E-06  0.00000E+00  9.000E+00
#rwgt            1           1   2.1434954982491344E-002           2      204153           0
</event>
<event>
      5   9999  3.19816E-02  3.84366E+01 -1.00000E+00  1.45922E-01
      21    -1     0     0   502   501  0.000000000E+00  0.000000000E+00  1.032795607E+03  1.032795607E+03  0.000000000E+00  0.00000E+00  9.000E+00
      21    -1     0     0   512   502  0.000000000E+00  0.000000000E+00 -1.386732302E+02  1.386732302E+02  0.000000000E+00  0.00000E+00  9.000E+00
      25     1     1     2     0     0 -4.128069729E+01  6.178801063E+01  1.492486456E+02  2.083794914E+02  1.250000000E+02  0.00000E+00  9.000E+00
      25     1     1     2     0     0  7.594982308E+01 -7.838394768E+01  8.422289517E+02  8.584212404E+02  1.250000000E+02  0.00000E+00  9.000E+00
      21     1     1     2   512   501 -3.466912579E+01  1.659593704E+01 -9.735522033E+01  1.046681056E+02  3.814697266E-06  0.00000E+00  9.000E+00
#rwgt            1           1   2.9564283828991543E-003           2      204230           0
</event>
<event>
      5   9999  3.19816E-02  3.06777E+01 -1.00000E+00  1.52369E-01
      21    -1     0     0   502   511  0.000000000E+00  0.000000000E+00  2.341164938E+02  2.341164938E+02  0.000000000E+00  0.00000E+00  9.000E+00
      21    -1     0     0   501   502  0.000000000E+00  0.000000000E+00 -1.545349961E+03  1.545349961E+03  0.000000000E+00  0.00000E+00  9.000E+00
      25     1     1     2     0     0 -1.747695728E+02 -1.740730176E+02 -1.442529425E+03  1.468796092E+03  1.250000000E+02  0.00000E+00  9.000E+00
      25     1     1     2     0     0  1.487313040E+02  1.578517382E+02  1.228778616E+02  2.788586397E+02  1.250000000E+02  0.00000E+00  9.000E+00
      21     1     1     2   501   511  2.603826873E+01  1.622127935E+01  8.418096384E+00  3.181172251E+01  8.172577143E-07  0.00000E+00  9.000E+00
#rwgt            1           1   3.1108063718164394E-002           2      204290           0
</event>
<event>
      5   9999  3.19816E-02  7.81952E+01 -1.00000E+00  1.28831E-01
      21    -1     0     0   502   501  0.000000000E+00  0.000000000E+00  1.952201419E+03  1.952201419E+03  0.000000000E+00  0.00000E+00  9.000E+00
      21    -1     0     0   501   512  0.000000000E+00  0.000000000E+00 -7.852731058E+01  7.852731058E+01  0.000000000E+00  0.00000E+00  9.000E+00
      25     1     1     2     0     0 -2.825835523E+02 -7.415468081E+01  8.736001068E+02  9.295991219E+02  1.250000000E+02  0.00000E+00  9.000E+00
      25     1     1     2     0     0  2.311664796E+02  1.524136213E+01  9.874328009E+02  1.021919164E+03  1.250000000E+02  0.00000E+00  9.000E+00
      21     1     1     2   502   512  5.141707271E+01  5.891331868E+01  1.264120042E+01  7.921044396E+01  2.686840932E-06  0.00000E+00  9.000E+00
#rwgt            2          11   1.1662277833138559E-002           2      204524           0
</event>
<event>
      5   9999  3.19816E-02  3.00981E+01 -1.00000E+00  1.52941E-01
      21    -1     0     0   502   511  0.000000000E+00  0.000000000E+00  1.743266198E+02  1.743266198E+02  0.000000000E+00  0.00000E+00  9.000E+00
      21    -1     0     0   501   502  0.000000000E+00  0.000000000E+00 -3.598890171E+02  3.598890171E+02  0.000000000E+00  0.00000E+00  9.000E+00
      25     1     1     2     0     0  1.126273597E+02 -5.330282086E+01 -2.706833134E+02  3.231417166E+02  1.250000000E+02  0.00000E+00  9.000E+00
      25     1     1     2     0     0 -8.261379527E+01  5.555642935E+01  8.494422136E+01  1.809753485E+02  1.250000000E+02  0.00000E+00  9.000E+00
      21     1     1     2   501   511 -3.001356446E+01 -2.253608489E+00  1.766947604E-01  3.009857179E+01  4.389365878E-07  0.00000E+00  9.000E+00
#rwgt            1           1   2.6556574580961025E-002           2      204559           0
</event>
<event>
      5   9999  3.19816E-02  1.68707E+01 -1.00000E+00  1.72706E-01
      21    -1     0     0   502   501  0.000000000E+00  0.000000000E+00  2.175558300E+03  2.175558300E+03  0.000000000E+00  0.00000E+00  9.000E+00
      21    -1     0     0   512   502  0.000000000E+00  0.000000000E+00 -2.952826904E+03  2.952826904E+03  0.000000000E+00  0.00000E+00  9.000E+00
      25     1     1     2     0     0 -1.923793983E+03 -5.027829848E+01 -3.451807532E+02  1.959154396E+03  1.250000000E+02  0.00000E+00  9.000E+00
      25     1     1     2     0     0  1.923202777E+03  6.713860599E+01  6.891474593E+02  2.047868583E+03  1.250000000E+02  0.00000E+00  9.000E+00
      21     1     1     2   512   501  5.912058427E-01 -1.686030752E+01 -1.121235310E+03  1.121362225E+03  1.525878906E-05  0.00000E+00  9.000E+00
#rwgt            1           1   1.4693430614972443E-002           2      204641           0
</event>
<event>
      5   9999  3.19816E-02  7.94151E+01 -1.00000E+00  1.28504E-01
      21    -1     0     0   511   501  0.000000000E+00  0.000000000E+00  4.651884710E+02  4.651884710E+02  0.000000000E+00  0.00000E+00  9.000E+00
      21    -1     0     0   501   502  0.000000000E+00  0.000000000E+00 -5.740407558E+02  5.740407558E+02  0.000000000E+00  0.00000E+00  9.000E+00
      25     1     1     2     0     0 -1.081547286E+02 -3.165215346E+02  2.117930356E+02  4.151681793E+02  1.250000000E+02  0.00000E+00  9.000E+00
      25     1     1     2     0     0  4.971562615E+01  2.627476754E+02 -4.095572180E+02  5.048466097E+02  1.250000000E+02  0.00000E+00  9.000E+00
      21     1     1     2   511   502  5.843910247E+01  5.377385920E+01  8.891189765E+01  1.192144378E+02  9.536743164E-07  0.00000E+00  9.000E+00
#rwgt            1           1   2.8659186719544469E-002           2      204918           0
</event>
<event>
      5   9999  3.19816E-02  6.12131E+02 -1.00000E+00  9.64181E-02
      21    -1     0     0   502   501  0.000000000E+00  0.000000000E+00  3.807540607E+02  3.807540607E+02  0.000000000E+00  0.00000E+00  9.000E+00
      21    -1     0     0   501   512  0.000000000E+00  0.000000000E+00 -1.638794278E+03  1.638794278E+03  0.000000000E+00  0.00000E+00  9.000E+00
      25     1     1     2     0     0  4.215134047E+02  1.385195015E+02 -7.380094713E+01  4.668327135E+02  1.250000000E+02  0.00000E+00  9.000E+00
      25     1     1     2     0     0  1.612679291E+02 -3.257909844E+02 -5.523366863E+02  6.729397636E+02  1.250000000E+02  0.00000E+00  9.000E+00
      21     1     1     2   502   512 -5.827813338E+02  1.872714829E+02 -6.319025843E+02  8.797758620E+02  1.525878906E-05  0.00000E+00  9.000E+00
#rwgt            1           1   2.6656016290124443E-002           2      205013           0
</event>
<event>
      5   9999  3.19816E-02  3.69206E+01 -1.00000E+00  1.47031E-01
      21    -1     0     0   502   501  0.000000000E+00  0.000000000E+00  1.411228702E+03  1.411228702E+03  0.000000000E+00  0.00000E+00  9.000E+00
      21    -1     0     0   511   502  0.000000000E+00  0.000000000E+00 -1.048340368E+02  1.048340368E+02  0.000000000E+00  0.00000E+00  9.000E+00
      25     1     1     2     0     0  1.724590853E+01  1.668028001E+02  4.228182509E+01  2.133854452E+02  1.250000000E+02  0.00000E+00  9.000E+00
      25     1     1     2     0     0 -1.663367822E+01 -2.037183494E+02  1.227562540E+03  1.250724844E+03  1.250000000E+02  0.00000E+00  9.000E+00
      21     1     1     2   511   501 -6.122303099E-01  3.691554935E+01  3.655030026E+01  5.195244998E+01  0.000000000E+00  0.00000E+00  9.000E+00
#rwgt            1           1   2.8452537233908594E-002           2      205058           0
</event>
<event>
      5   9999  3.19816E-02  2.01983E+01 -1.00000E+00  1.66016E-01
      21    -1     0     0   502   501  0.000000000E+00  0.000000000E+00  1.007669545E+03  1.007669545E+03  0.000000000E+00  0.00000E+00  9.000E+00
      21    -1     0     0   501   512  0.000000000E+00  0.000000000E+00 -2.180573958E+02  2.180573958E+02  0.000000000E+00  0.00000E+00  9.000E+00
      25     1     1     2     0     0  4.003555356E+02 -1.832208503E+02  5.043740088E+02  6.810819155E+02  1.250000000E+02  0.00000E+00  9.000E+00
      25     1     1     2     0     0 -3.927407447E+02  1.645129398E+02  2.721509662E+02  5.205775142E+02  1.250000000E+02  0.00000E+00  9.000E+00
      21     1     1     2   502   512 -7.614790877E+00  1.870791053E+01  1.308717401E+01  2.406751088E+01  2.920019320E-07  0.00000E+00  9.000E+00
#rwgt            1           1   2.6895043020171112E-002           2      205178           0
</event>
<event>
      5   9999  3.19816E-02  4.23746E+01 -1.00000E+00  1.43304E-01
       1    -1     0     0   502     0  0.000000000E+00  0.000000000E+00  1.875250178E+03  1.875250178E+03  0.000000000E+00  0.00000E+00  9.000E+00
      21    -1     0     0   501   502  0.000000000E+00  0.000000000E+00 -4.380703865E+01  4.380703865E+01  0.000000000E+00  0.00000E+00  9.000E+00
      25     1     1     2     0     0  3.837557007E+01  1.980024291E+02  9.556121481E+02  9.846305012E+02  1.250000000E+02  0.00000E+00  9.000E+00
      25     1     1     2     0     0 -6.488727680E+01 -2.310589621E+02  6.405723174E+02  6.953822665E+02  1.250000000E+02  0.00000E+00  9.000E+00
       1     1     1     2   501     0  2.651170673E+01  3.305653304E+01  2.352586736E+02  2.390444488E+02  0.000000000E+00  0.00000E+00  9.000E+00
#rwgt            1           1   2.6519262790142450E-002           2      205365           0
</event>
<event>
      5   9999  3.19816E-02  2.24851E+02 -1.00000E+00  1.09827E-01
      21    -1     0     0   502   511  0.000000000E+00  0.000000000E+00  7.536734973E+02  7.536734973E+02  0.000000000E+00  0.00000E+00  9.000E+00
      21    -1     0     0   501   502  0.000000000E+00  0.000000000E+00 -1.490351256E+02  1.490351256E+02  0.000000000E+00  0.00000E+00  9.000E+00
      25     1     1     2     0     0  4.719628795E+01 -8.931689753E+01  3.650812232E+02  3.988913352E+02  1.250000000E+02  0.00000E+00  9.000E+00
      25     1     1     2     0     0  5.588292724E+01 -1.105147697E+02  9.536512022E-01  1.759611472E+02  1.250000000E+02  0.00000E+00  9.000E+00
      21     1     1     2   501   511 -1.030792152E+02  1.998316673E+02  2.386034973E+02  3.278561403E+02  2.697398305E-06  0.00000E+00  9.000E+00
#rwgt            1           1   2.4526982886052255E-002           2      205470           0
</event>
<event>
      5   9999  3.19816E-02  1.37164E+02 -1.00000E+00  1.17954E-01
      21    -1     0     0   502   501  0.000000000E+00  0.000000000E+00  4.600245915E+02  4.600245915E+02  0.000000000E+00  0.00000E+00  9.000E+00
      21    -1     0     0   512   502  0.000000000E+00  0.000000000E+00 -5.882466191E+02  5.882466191E+02  0.000000000E+00  0.00000E+00  9.000E+00
      25     1     1     2     0     0 -1.418479803E+02  1.500496973E+02 -1.503315971E+02  2.843595440E+02  1.250000000E+02  0.00000E+00  9.000E+00
      25     1     1     2     0     0  1.763433865E+02 -1.729392827E+01  3.481702348E+02  4.101750631E+02  1.250000000E+02  0.00000E+00  9.000E+00
      21     1     1     2   512   501 -3.449540622E+01 -1.327557690E+02 -3.260606652E+02  3.537366035E+02  0.000000000E+00  0.00000E+00  9.000E+00
#rwgt            1           1   2.8316029683497484E-002           2      205543           0
</event>
<event>
      5   9999  3.19816E-02  2.24379E+01 -1.00000E+00  1.62350E-01
      21    -1     0     0   502   501  0.000000000E+00  0.000000000E+00  1.175926681E+02  1.175926681E+02  0.000000000E+00  0.00000E+00  9.000E+00
      21    -1     0     0   501   511  0.000000000E+00  0.000000000E+00 -2.353140260E+03  2.353140260E+03  0.000000000E+00  0.00000E+00  9.000E+00
      25     1     1     2     0     0  2.575244091E+02  2.575112347E+02 -1.794806570E+03  1.835643342E+03  1.250000000E+02  0.00000E+00  9.000E+00
      25     1     1     2     0     0 -2.472695705E+02 -2.375538653E+02 -2.484753375E+02  4.415190514E+02  1.250000000E+02  0.00000E+00  9.000E+00
      21     1     1     2   502   511 -1.025483853E+01 -1.995736945E+01 -1.922656848E+02  1.935705346E+02  2.697398305E-06  0.00000E+00  9.000E+00
#rwgt            1           1   2.9446314685653278E-002           2      205608           0
</event>
<event>
      5   9999  3.19816E-02  2.64246E+01 -1.00000E+00  1.56969E-01
      21    -1     0     0   512   501  0.000000000E+00  0.000000000E+00  1.239919567E+03  1.239919567E+03  0.000000000E+00  0.00000E+00  9.000E+00
      21    -1     0     0   501   502  0.000000000E+00  0.000000000E+00 -3.581650775E+01  3.581650775E+01  0.000000000E+00  0.00000E+00  9.000E+00
      25     1     1     2     0     0  7.040227672E+01  1.942794072E+00  9.088572932E+02  9.201124031E+02  1.250000000E+02  0.00000E+00  9.000E+00
      25     1     1     2     0     0 -5.339345114E+01 -2.216550103E+01  1.337480452E+02  1.919784094E+02  1.250000000E+02  0.00000E+00  9.000E+00
      21     1     1     2   512   502 -1.700882557E+01  2.022270696E+01  1.614977210E+02  1.636452624E+02  2.697398305E-06  0.00000E+00  9.000E+00
#rwgt            1           1   2.9697519643787661E-002           2      205716           0
</event>
<event>
      5   9999  3.19816E-02  1.43807E+02 -1.00000E+00  1.17124E-01
      21    -1     0     0   502   511  0.000000000E+00  0.000000000E+00  8.316698786E+02  8.316698786E+02  0.000000000E+00  0.00000E+00  9.000E+00
      21    -1     0     0   501   502  0.000000000E+00  0.000000000E+00 -2.593271797E+02  2.593271797E+02  0.000000000E+00  0.00000E+00  9.000E+00
      25     1     1     2     0     0  2.373396483E+02 -4.354318804E+01  3.757348228E+02  4.637108743E+02  1.250000000E+02  0.00000E+00  9.000E+00
      25     1     1     2     0     0 -3.503084854E+02  1.325296077E+02  1.432753722E+01  3.951080993E+02  1.250000000E+02  0.00000E+00  9.000E+00
      21     1     1     2   501   511  1.129688371E+02 -8.898641970E+01  1.822803389E+02  2.321780846E+02  3.814697266E-06  0.00000E+00  9.000E+00
#rwgt            1           1   2.8825559697047226E-002           2      205851           0
</event>
<event>
      5   9999  3.19816E-02  6.97022E+01 -1.00000E+00  1.31315E-01
      21    -1     0     0   502   501  0.000000000E+00  0.000000000E+00  1.433314131E+02  1.433314131E+02  0.000000000E+00  0.00000E+00  9.000E+00
       1    -1     0     0   501     0  0.000000000E+00  0.000000000E+00 -8.677159269E+02  8.677159269E+02  0.000000000E+00  0.00000E+00  9.000E+00
      25     1     1     2     0     0 -1.604357067E+02  1.101350524E+02 -3.974384146E+01  2.346783303E+02  1.250000000E+02  0.00000E+00  9.000E+00
      25     1     1     2     0     0  1.266910459E+02 -4.914571359E+01 -1.519089455E+02  2.390967378E+02  1.250000000E+02  0.00000E+00  9.000E+00
       1     1     1     2   502     0  3.374466080E+01 -6.098933880E+01 -5.327317268E+02  5.372722721E+02  7.629394531E-06  0.00000E+00  9.000E+00
#rwgt            1           1   2.8493307680063529E-002           2      205901           0
</event>
<event>
      5   9999  3.19816E-02  1.48854E+01 -1.00000E+00  1.77698E-01
      21    -1     0     0   502   501  0.000000000E+00  0.000000000E+00  1.995559198E+02  1.995559198E+02  0.000000000E+00  0.00000E+00  9.000E+00
      21    -1     0     0   501   511  0.000000000E+00  0.000000000E+00 -2.883588204E+02  2.883588204E+02  0.000000000E+00  0.00000E+00  9.000E+00
      25     1     1     2     0     0  8.178830562E+01 -1.736696469E+02  1.397938379E+00  2.290795220E+02  1.250000000E+02  0.00000E+00  9.000E+00
      25     1     1     2     0     0 -6.749067782E+01  1.778112257E+02 -8.254171184E+01  2.420949354E+02  1.250000000E+02  0.00000E+00  9.000E+00
      21     1     1     2   502   511 -1.429762779E+01 -4.141578799E+00 -7.659127150E+00  1.674028268E+01  1.192092896E-07  0.00000E+00  9.000E+00
#rwgt            1           1   2.7702353490528107E-002           2      205946           0
</event>
<event>
      5   9999  3.19816E-02  5.31755E+01 -1.00000E+00  1.37567E-01
       2    -1     0     0   502     0  0.000000000E+00  0.000000000E+00  5.205497039E+02  5.205497039E+02  0.000000000E+00  0.00000E+00  9.000E+00
      21    -1     0     0   501   502  0.000000000E+00  0.000000000E+00 -4.253392704E+02  4.253392704E+02  0.000000000E+00  0.00000E+00  9.000E+00
      25     1     1     2     0     0  1.019394068E+02  4.738362176E+01  1.663092545E+02  2.364754076E+02  1.250000000E+02  0.00000E+00  9.000E+00
      25     1     1     2     0     0 -4.994726803E+01 -5.853952075E+01 -3.740552748E+02  4.018257752E+02  1.250000000E+02  0.00000E+00  9.000E+00
       2     1     1     2   501     0 -5.199213874E+01  1.115589899E+01  3.029564537E+02  3.075877914E+02  0.000000000E+00  0.00000E+00  9.000E+00
#rwgt            1           1   2.2771988217647223E-002           2      206169           0
</event>
<event>
      5   9999  3.19816E-02  2.30737E+02 -1.00000E+00  1.09434E-01
      21    -1     0     0   511   501  0.000000000E+00  0.000000000E+00  4.362740606E+02  4.362740606E+02  0.000000000E+00  0.00000E+00  9.000E+00
      21    -1     0     0   501   502  0.000000000E+00  0.000000000E+00 -6.578474169E+02  6.578474169E+02  0.000000000E+00  0.00000E+00  9.000E+00
      25     1     1     2     0     0  1.723452760E+01  2.349480617E+02 -3.784659909E+02  4.629893378E+02  1.250000000E+02  0.00000E+00  9.000E+00
      25     1     1     2     0     0  1.991091954E+02 -1.547306546E+02 -8.778655561E+01  2.948177853E+02  1.250000000E+02  0.00000E+00  9.000E+00
      21     1     1     2   511   502 -2.163437230E+02 -8.021740711E+01  2.446791902E+02  3.363143545E+02  7.629394531E-06  0.00000E+00  9.000E+00
#rwgt            1           1   2.6947695824796433E-002           2      206281           0
</event>
<event>
      5   9999  3.19816E-02  2.67270E+01 -1.00000E+00  1.56608E-01
      21    -1     0     0   502   501  0.000000000E+00  0.000000000E+00  9.935183116E+01  9.935183116E+01  0.000000000E+00  0.00000E+00  9.000E+00
      21    -1     0     0   512   502  0.000000000E+00  0.000000000E+00 -6.963837711E+02  6.963837711E+02  0.000000000E+00  0.00000E+00  9.000E+00
      25     1     1     2     0     0 -8.521623056E+01  9.675170616E+01 -1.296270489E+01  1.800436900E+02  1.250000000E+02  0.00000E+00  9.000E+00
      25     1     1     2     0     0  7.486348621E+01 -7.211124310E+01 -4.379988774E+02  4.671965214E+02  1.250000000E+02  0.00000E+00  9.000E+00
      21     1     1     2   512   501  1.035274435E+01 -2.464046306E+01 -1.460703576E+02  1.484953909E+02  1.907348633E-06  0.00000E+00  9.000E+00
#rwgt            1           1   2.8919863689833299E-002           2      206332           0
</event>
<event>
      5   9999  3.19816E-02  2.20641E+01 -1.00000E+00  1.62925E-01
      21    -1     0     0   502   511  0.000000000E+00  0.000000000E+00  2.760706485E+02  2.760706485E+02  0.000000000E+00  0.00000E+00  9.000E+00
      21    -1     0     0   501   502  0.000000000E+00  0.000000000E+00 -2.539615770E+02  2.539615770E+02  0.000000000E+00  0.00000E+00  9.000E+00
      25     1     1     2     0     0 -8.146010985E+00 -2.607458191E+01 -2.073959538E+02  2.436889882E+02  1.250000000E+02  0.00000E+00  9.000E+00
      25     1     1     2     0     0  2.498680715E+00  4.740376950E+01  1.377493050E+02  1.919719558E+02  1.250000000E+02  0.00000E+00  9.000E+00
      21     1     1     2   501   511  5.647330269E+00 -2.132918759E+01  9.175572028E+01  9.437128157E+01  1.348699152E-06  0.00000E+00  9.000E+00
#rwgt            1           1   2.7886939713570050E-002           2      206453           0
</event>
<event>
      5   9999  3.19816E-02  1.25110E+02 -1.00000E+00  1.19604E-01
      21    -1     0     0   502   512  0.000000000E+00  0.000000000E+00  1.029805950E+03  1.029805950E+03  0.000000000E+00  0.00000E+00  9.000E+00
      21    -1     0     0   501   502  0.000000000E+00  0.000000000E+00 -2.480906778E+02  2.480906778E+02  0.000000000E+00  0.00000E+00  9.000E+00
      25     1     1     2     0     0  2.072214011E+02 -2.023650266E+02  3.912530335E+01  3.178806418E+02  1.250000000E+02  0.00000E+00  9.000E+00
      25     1     1     2     0     0 -3.323281770E+02  2.014186050E+02  3.182285345E+02  5.175962441E+02  1.250000000E+02  0.00000E+00  9.000E+00
      21     1     1     2   501   512  1.251067760E+02  9.464216278E-01  4.243614339E+02  4.424197416E+02  5.394796609E-06  0.00000E+00  9.000E+00
#rwgt            1           1   2.6877921332754216E-002           2      206569           0
</event>
<event>
      5   9999  3.19816E-02  1.38960E+02 -1.00000E+00  1.17725E-01
      21    -1     0     0   511   501  0.000000000E+00  0.000000000E+00  1.099374850E+02  1.099374850E+02  0.000000000E+00  0.00000E+00  9.000E+00
      21    -1     0     0   501   502  0.000000000E+00  0.000000000E+00 -1.049901163E+03  1.049901163E+03  0.000000000E+00  0.00000E+00  9.000E+00
      25     1     1     2     0     0 -1.080687201E+02 -2.338513265E+02 -2.131865226E+02  3.569856924E+02  1.250000000E+02  0.00000E+00  9.000E+00
      25     1     1     2     0     0  8.355837476E+01  9.706978949E+01 -5.476122644E+02  5.761152126E+02  1.250000000E+02  0.00000E+00  9.000E+00
      21     1     1     2   511   502  2.451034529E+01  1.367815370E+02 -1.791648908E+02  2.267377428E+02  3.814697266E-06  0.00000E+00  9.000E+00
#rwgt            1           1   3.0553332759986153E-002           2      206642           0
</event>
<event>
      5   9999  3.19816E-02  6.43914E+01 -1.00000E+00  1.33084E-01
      21    -1     0     0   502   501  0.000000000E+00  0.000000000E+00  2.936110196E+02  2.936110196E+02  0.000000000E+00  0.00000E+00  9.000E+00
      21    -1     0     0   501   512  0.000000000E+00  0.000000000E+00 -1.559950799E+02  1.559950799E+02  0.000000000E+00  0.00000E+00  9.000E+00
      25     1     1     2     0     0 -9.601331559E-01 -4.274092432E+01  2.018576051E+02  2.412451060E+02  1.250000000E+02  0.00000E+00  9.000E+00
      25     1     1     2     0     0  3.151682273E+01 -1.393830272E+01 -6.251399575E+01  1.439464694E+02  1.250000000E+02  0.00000E+00  9.000E+00
      21     1     1     2   502   512 -3.055668957E+01  5.667922704E+01 -1.727669590E+00  6.441452396E+01  5.794233708E-07  0.00000E+00  9.000E+00
#rwgt            1           1   2.8191320547013215E-002           2      206713           0
</event>
<event>
      5   9999  3.19816E-02  1.54451E+02 -1.00000E+00  1.15893E-01
      21    -1     0     0   502   501  0.000000000E+00  0.000000000E+00  2.521284056E+02  2.521284056E+02  0.000000000E+00  0.00000E+00  9.000E+00
       1    -1     0     0   501     0  0.000000000E+00  0.000000000E+00 -1.208388323E+03  1.208388323E+03  0.000000000E+00  0.00000E+00  9.000E+00
      25     1     1     2     0     0  2.218802537E+02 -1.926974605E+02  6.033724325E+01  3.250057556E+02  1.250000000E+02  0.00000E+00  9.000E+00
      25     1     1     2     0     0 -9.966713450E+01  9.825689109E+01 -1.135097249E+02  2.193112218E+02  1.250000000E+02  0.00000E+00  9.000E+00
       1     1     1     2   502     0 -1.222131192E+02  9.444056938E+01 -9.030874362E+02  9.161997517E+02  1.078959322E-05  0.00000E+00  9.000E+00
#rwgt            1           1   2.7272713069495955E-002           2      206761           0
</event>
<event>
      5   9999  3.19816E-02  5.83586E+01 -1.00000E+00  1.35350E-01
      21    -1     0     0   502   501  0.000000000E+00  0.000000000E+00  1.282792896E+03  1.282792896E+03  0.000000000E+00  0.00000E+00  9.000E+00
       2    -1     0     0   501     0  0.000000000E+00  0.000000000E+00 -1.393069191E+03  1.393069191E+03  0.000000000E+00  0.00000E+00  9.000E+00
      25     1     1     2     0     0  1.544574373E+01 -7.311775214E+01  1.192074053E+03  1.200937270E+03  1.250000000E+02  0.00000E+00  9.000E+00
      25     1     1     2     0     0 -3.062829105E+00  1.608800117E+01  3.926450058E+01  1.320413030E+02  1.250000000E+02  0.00000E+00  9.000E+00
       2     1     1     2   502     0 -1.238291463E+01  5.702975097E+01 -1.341614849E+03  1.342883514E+03  1.525878906E-05  0.00000E+00  9.000E+00
#rwgt            1           1   2.9181488480610768E-002           2      206812           0
</event>
<event>
      5   9999  3.19816E-02  6.71489E+01 -1.00000E+00  1.32142E-01
      21    -1     0     0   511   501  0.000000000E+00  0.000000000E+00  9.815991333E+02  9.815991333E+02  0.000000000E+00  0.00000E+00  9.000E+00
      21    -1     0     0   501   502  0.000000000E+00  0.000000000E+00 -6.011226108E+02  6.011226108E+02  0.000000000E+00  0.00000E+00  9.000E+00
      25     1     1     2     0     0 -5.383171719E+02 -1.213031355E+02 -1.118182084E+02  5.767392305E+02  1.250000000E+02  0.00000E+00  9.000E+00
      25     1     1     2     0     0  4.863150541E+02  1.637855888E+02  1.958053577E+01  5.285228929E+02  1.250000000E+02  0.00000E+00  9.000E+00
      21     1     1     2   511   502  5.200211780E+01 -4.248245327E+01  4.727141952E+02  4.774596207E+02  0.000000000E+00  0.00000E+00  9.000E+00
#rwgt            1           1   2.8507859588263192E-002           2      206936           0
</event>
<event>
      5   9999  3.19816E-02  2.34204E+02 -1.00000E+00  1.09208E-01
      21    -1     0     0   502   501  0.000000000E+00  0.000000000E+00  7.984723201E+02  7.984723201E+02  0.000000000E+00  0.00000E+00  9.000E+00
      21    -1     0     0   512   502  0.000000000E+00  0.000000000E+00 -1.558247592E+03  1.558247592E+03  0.000000000E+00  0.00000E+00  9.000E+00
      25     1     1     2     0     0  5.222622539E+02  6.103922216E+02  2.447206955E+01  8.133636384E+02  1.250000000E+02  0.00000E+00  9.000E+00
      25     1     1     2     0     0 -6.369409930E+02 -8.145993013E+02 -4.486061615E+02  1.134080393E+03  1.250000000E+02  0.00000E+00  9.000E+00
      21     1     1     2   512   501  1.146787390E+02  2.042070798E+02 -3.356411797E+02  4.092758802E+02  3.814697266E-06  0.00000E+00  9.000E+00
#rwgt            2          11   5.1355559447158194E-003           2      207096           0
</event>
<event>
      5   9999  3.19816E-02  3.19901E+01 -1.00000E+00  1.51127E-01
      21    -1     0     0   511   501  0.000000000E+00  0.000000000E+00  1.170172321E+02  1.170172321E+02  0.000000000E+00  0.00000E+00  9.000E+00
      21    -1     0     0   501   502  0.000000000E+00  0.000000000E+00 -3.717893411E+03  3.717893411E+03  0.000000000E+00  0.00000E+00  9.000E+00
      25     1     1     2     0     0  4.713322972E+02 -1.303968973E+02 -1.776512355E+03  1.846829345E+03  1.250000000E+02  0.00000E+00  9.000E+00
      25     1     1     2     0     0 -4.800741687E+02  1.611693794E+02 -1.864883226E+03  1.936455841E+03  1.250000000E+02  0.00000E+00  9.000E+00
      21     1     1     2   511   502  8.741871457E+00 -3.077248213E+01  4.051940125E+01  5.162545738E+01  3.126830351E-06  0.00000E+00  9.000E+00
#rwgt            1           1   1.6746895654935361E-002           2      207116           0
</event>
<event>
      5   9999  3.19816E-02  1.14401E+02 -1.00000E+00  1.21256E-01
      21    -1     0     0   502   512  0.000000000E+00  0.000000000E+00  1.434817320E+03  1.434817320E+03  0.000000000E+00  0.00000E+00  9.000E+00
      21    -1     0     0   501   502  0.000000000E+00  0.000000000E+00 -7.619206212E+01  7.619206212E+01  0.000000000E+00  0.00000E+00  9.000E+00
      25     1     1     2     0     0  2.345274207E+02  1.406380687E+02  6.026520483E+02  6.734958565E+02  1.250000000E+02  0.00000E+00  9.000E+00
      25     1     1     2     0     0 -1.245072889E+02 -1.092831337E+02  2.832323043E+02  3.511273366E+02  1.250000000E+02  0.00000E+00  9.000E+00
      21     1     1     2   501   512 -1.100201318E+02 -3.135493500E+01  4.727409055E+02  4.863861893E+02  5.394796609E-06  0.00000E+00  9.000E+00
#rwgt            1           1   2.5497165547342913E-002           2      207297           0
</event>
<event>
      5   9999  3.19816E-02  4.74014E+01 -1.00000E+00  1.40411E-01
      21    -1     0     0   502   501  0.000000000E+00  0.000000000E+00  3.891452386E+02  3.891452386E+02  0.000000000E+00  0.00000E+00  9.000E+00
       2    -1     0     0   501     0  0.000000000E+00  0.000000000E+00 -4.353795089E+02  4.353795089E+02  0.000000000E+00  0.00000E+00  9.000E+00
      25     1     1     2     0     0  1.058295457E+01 -3.092583907E+02  5.659448993E+01  3.384976919E+02  1.250000000E+02  0.00000E+00  9.000E+00
      25     1     1     2     0     0 -2.810049596E+01  3.533041770E+02 -3.349856936E+00  3.758320115E+02  1.250000000E+02  0.00000E+00  9.000E+00
       2     1     1     2   502     0  1.751754138E+01 -4.404578627E+01 -9.947890328E+01  1.101950441E+02  1.348699152E-06  0.00000E+00  9.000E+00
#rwgt            1           1   2.7764258459174438E-002           2      207367           0
</event>
<event>
      5   9999  3.19816E-02  5.83545E+01 -1.00000E+00  1.35352E-01
      21    -1     0     0   511   501  0.000000000E+00  0.000000000E+00  1.894906390E+03  1.894906390E+03  0.000000000E+00  0.00000E+00  9.000E+00
      21    -1     0     0   501   502  0.000000000E+00  0.000000000E+00 -1.710542093E+02  1.710542093E+02  0.000000000E+00  0.00000E+00  9.000E+00
      25     1     1     2     0     0 -3.273121364E+01  5.086926392E+02  4.758042184E+02  7.084166766E+02  1.250000000E+02  0.00000E+00  9.000E+00
      25     1     1     2     0     0  5.187636295E+01 -4.535681332E+02  1.147517799E+03  1.241304679E+03  1.250000000E+02  0.00000E+00  9.000E+00
      21     1     1     2   511   502 -1.914514931E+01 -5.512450596E+01  1.005301636E+02  1.162392433E+02  1.907348633E-06  0.00000E+00  9.000E+00
#rwgt            1           1   2.5520759096458522E-002           2      207468           0
</event>
<event>
      5   9999  3.19816E-02  3.90155E+01 -1.00000E+00  1.45515E-01
      21    -1     0     0   502   501  0.000000000E+00  0.000000000E+00  1.006035379E+02  1.006035379E+02  0.000000000E+00  0.00000E+00  9.000E+00
      21    -1     0     0   501   512  0.000000000E+00  0.000000000E+00 -6.404221824E+02  6.404221824E+02  0.000000000E+00  0.00000E+00  9.000E+00
      25     1     1     2     0     0 -8.520659123E+01  2.335514937E+01 -3.671559815E+02  3.977865520E+02  1.250000000E+02  0.00000E+00  9.000E+00
      25     1     1     2     0     0  4.674060858E+01 -2.988003994E+01  2.734288533E+01  1.394637396E+02  1.250000000E+02  0.00000E+00  9.000E+00
      21     1     1     2   502   512  3.846598266E+01  6.524890571E+00 -2.000055483E+02  2.037754288E+02  0.000000000E+00  0.00000E+00  9.000E+00
#rwgt            1           1   2.6946374881873618E-002           2      207589           0
</event>
<event>
      5   9999  3.19816E-02  6.35066E+01 -1.00000E+00  1.33398E-01
      21    -1     0     0   502   501  0.000000000E+00  0.000000000E+00  4.793502082E+02  4.793502082E+02  0.000000000E+00  0.00000E+00  9.000E+00
      21    -1     0     0   501   511  0.000000000E+00  0.000000000E+00 -1.768176392E+02  1.768176392E+02  0.000000000E+00  0.00000E+00  9.000E+00
      25     1     1     2     0     0 -1.782613167E+02  5.120669147E+01  2.758927974E+02  3.551634242E+02  1.250000000E+02  0.00000E+00  9.000E+00
      25     1     1     2     0     0  1.779995148E+02  1.229933936E+01  6.433346742E+01  2.271539039E+02  1.250000000E+02  0.00000E+00  9.000E+00
      21     1     1     2   502   511  2.618018633E-01 -6.350603083E+01 -3.769369577E+01  7.385051924E+01  4.768371582E-07  0.00000E+00  9.000E+00
#rwgt            1           1   2.6766316014551473E-002           2      207683           0
</event>
<event>
      5   9999  3.19816E-02  2.59174E+01 -1.00000E+00  1.57587E-01
      21    -1     0     0   512   501  0.000000000E+00  0.000000000E+00  3.016513846E+02  3.016513846E+02  0.000000000E+00  0.00000E+00  9.000E+00
      21    -1     0     0   501   502  0.000000000E+00  0.000000000E+00 -6.703939928E+02  6.703939928E+02  0.000000000E+00  0.00000E+00  9.000E+00
      25     1     1     2     0     0  7.152455578E+01  2.683783688E+02  1.325472134E+02  3.321693465E+02  1.250000000E+02  0.00000E+00  9.000E+00
      25     1     1     2     0     0 -5.784169634E+01 -2.903895452E+02 -5.175901524E+02  6.092588249E+02  1.250000000E+02  0.00000E+00  9.000E+00
      21     1     1     2   512   502 -1.368285945E+01  2.201117632E+01  1.630033084E+01  3.061720613E+01  4.768371582E-07  0.00000E+00  9.000E+00
#rwgt            1           1   2.5457821490989536E-002           2      207771           0
</event>
<event>
      5   9999  3.19816E-02  1.15449E+02 -1.00000E+00  1.21085E-01
      21    -1     0     0   502   511  0.000000000E+00  0.000000000E+00  9.809861550E+02  9.809861550E+02  0.000000000E+00  0.00000E+00  9.000E+00
      21    -1     0     0   501   502  0.000000000E+00  0.000000000E+00 -1.359517817E+02  1.359517817E+02  0.000000000E+00  0.00000E+00  9.000E+00
      25     1     1     2     0     0 -2.824135066E+02  4.017886912E+01  1.859813624E+02  3.627475671E+02  1.250000000E+02  0.00000E+00  9.000E+00
      25     1     1     2     0     0  1.902844496E+02  2.939670150E+01  3.046445430E+02  3.814520093E+02  1.250000000E+02  0.00000E+00  9.000E+00
      21     1     1     2   501   511  9.212905705E+01 -6.957557063E+01  3.544084679E+02  3.727383604E+02  5.394796609E-06  0.00000E+00  9.000E+00
#rwgt            1           1   2.8140180152257627E-002           2      207985           0
</event>
<event>
      5   9999  3.19816E-02  4.57481E+01 -1.00000E+00  1.41314E-01
      21    -1     0     0   502   512  0.000000000E+00  0.000000000E+00  7.088261545E+01  7.088261545E+01  0.000000000E+00  0.00000E+00  9.000E+00
      21    -1     0     0   501   502  0.000000000E+00  0.000000000E+00 -6.622269658E+02  6.622269658E+02  0.000000000E+00  0.00000E+00  9.000E+00
      25     1     1     2     0     0 -5.172932268E+01 -7.909249706E+01 -3.723454708E+02  4.039773453E+02  1.250000000E+02  0.00000E+00  9.000E+00
      25     1     1     2     0     0  9.716361090E+01  7.374331175E+01 -2.229490492E+02  2.832139153E+02  1.250000000E+02  0.00000E+00  9.000E+00
      21     1     1     2   501   512 -4.543428822E+01  5.349185317E+00  3.950169571E+00  4.591832063E+01  4.256623047E-07  0.00000E+00  9.000E+00
#rwgt            1           1   3.1603602154298589E-002           2      208025           0
</event>
<event>
      5   9999  3.19816E-02  1.76278E+01 -1.00000E+00  1.71024E-01
      21    -1     0     0   511   501  0.000000000E+00  0.000000000E+00  1.810388370E+02  1.810388370E+02  0.000000000E+00  0.00000E+00  9.000E+00
      21    -1     0     0   501   502  0.000000000E+00  0.000000000E+00 -7.409138804E+02  7.409138804E+02  0.000000000E+00  0.00000E+00  9.000E+00
      25     1     1     2     0     0  1.545270450E+02 -6.305923177E+01 -2.150648466E+01  2.096249108E+02  1.250000000E+02  0.00000E+00  9.000E+00
      25     1     1     2     0     0 -1.671836077E+02  5.078927467E+01 -6.057287904E+02  6.426992116E+02  1.250000000E+02  0.00000E+00  9.000E+00
      21     1     1     2   511   502  1.265656270E+01  1.226995710E+01  6.736023168E+01  6.962859497E+01  9.536743164E-07  0.00000E+00  9.000E+00
#rwgt            1           1   3.0319891884330066E-002           2      208151           0
</event>
<event>
      5   9999  3.19816E-02  2.27907E+01 -1.00000E+00  1.61821E-01
       1    -1     0     0   502     0  0.000000000E+00  0.000000000E+00  5.136307747E+02  5.136307747E+02  0.000000000E+00  0.00000E+00  9.000E+00
      21    -1     0     0   501   502  0.000000000E+00  0.000000000E+00 -2.131709678E+02  2.131709678E+02  0.000000000E+00  0.00000E+00  9.000E+00
      25     1     1     2     0     0  5.191740847E+00 -8.388555396E+01  1.148774322E+02  1.894348563E+02  1.250000000E+02  0.00000E+00  9.000E+00
      25     1     1     2     0     0  1.645158053E+01  7.674542406E+01 -1.444656618E+02  2.065329079E+02  1.250000000E+02  0.00000E+00  9.000E+00
       1     1     1     2   501     0 -2.164332138E+01  7.140129907E+00  3.300480365E+02  3.308339783E+02  5.394796609E-06  0.00000E+00  9.000E+00
#rwgt            1           1   2.8782772348391120E-002           2      208318           0
</event>
<event>
      5   9999  3.19816E-02  7.06824E+01 -1.00000E+00  1.31008E-01
      21    -1     0     0   502   501  0.000000000E+00  0.000000000E+00  9.794590480E+02  9.794590480E+02  0.000000000E+00  0.00000E+00  9.000E+00
       1    -1     0     0   501     0  0.000000000E+00  0.000000000E+00 -7.406315412E+02  7.406315412E+02  0.000000000E+00  0.00000E+00  9.000E+00
      25     1     1     2     0     0  4.162744474E+02  4.464517146E+01  8.284660327E+02  9.366208273E+02  1.250000000E+02  0.00000E+00  9.000E+00
      25     1     1     2     0     0 -3.995971477E+02 -1.133318742E+02 -4.393732935E+02  6.174106294E+02  1.250000000E+02  0.00000E+00  9.000E+00
       1     1     1     2   502     0 -1.667729962E+01  6.868670273E+01 -1.502652324E+02  1.660591326E+02  2.697398305E-06  0.00000E+00  9.000E+00
#rwgt            1           1   3.5115070665449048E-002           2      208433           0
</event>
<event>
      5   9999  3.19816E-02  4.29721E+02 -1.00000E+00  1.00757E-01
      21    -1     0     0   502   501  0.000000000E+00  0.000000000E+00  1.225896205E+03  1.225896205E+03  0.000000000E+00  0.00000E+00  9.000E+00
      21    -1     0     0   511   502  0.000000000E+00  0.000000000E+00 -5.815380617E+02  5.815380617E+02  0.000000000E+00  0.00000E+00  9.000E+00
      25     1     1     2     0     0 -4.487709139E+02 -6.612489617E+02  4.940310871E+02  9.478065401E+02  1.250000000E+02  0.00000E+00  9.000E+00
      25     1     1     2     0     0  2.996643137E+02  2.582260454E+02  4.578955078E+01  4.173740222E+02  1.250000000E+02  0.00000E+00  9.000E+00
      21     1     1     2   511   501  1.491066003E+02  4.030229163E+02  1.045375058E+02  4.422537048E+02  8.092194914E-06  0.00000E+00  9.000E+00
#rwgt            1           1   2.7618777884548733E-002           2      208546           0
</event>
<event>
      5   9999  3.19816E-02  7.76293E+00 -1.00000E+00  2.09393E-01
      21    -1     0     0   502   512  0.000000000E+00  0.000000000E+00  6.108292872E+02  6.108292872E+02  0.000000000E+00  0.00000E+00  9.000E+00
      21    -1     0     0   501   502  0.000000000E+00  0.000000000E+00 -3.416693214E+02  3.416693214E+02  0.000000000E+00  0.00000E+00  9.000E+00
      25     1     1     2     0     0 -2.138983120E+02  3.708500106E+02  1.789163071E+02  4.805395542E+02  1.250000000E+02  0.00000E+00  9.000E+00
      25     1     1     2     0     0  2.163435394E+02 -3.782177791E+02  8.203374739E+01  4.606601255E+02  1.250000000E+02  0.00000E+00  9.000E+00
      21     1     1     2   501   512 -2.445227470E+00  7.367768467E+00  8.209911287E+00  1.129892884E+01  1.192092896E-07  0.00000E+00  9.000E+00
#rwgt            2          11   1.8862008745375988E-003           2      208703           0
</event>
<event>
      5   9999  3.19816E-02  9.37628E+01 -1.00000E+00  1.25099E-01
      21    -1     0     0   502   501  0.000000000E+00  0.000000000E+00  1.170906552E+03  1.170906552E+03  0.000000000E+00  0.00000E+00  9.000E+00
      21    -1     0     0   511   502  0.000000000E+00  0.000000000E+00 -5.440790499E+02  5.440790499E+02  0.000000000E+00  0.00000E+00  9.000E+00
      25     1     1     2     0     0  1.527918476E+01  6.202474938E+02 -3.174010060E+01  6.336977521E+02  1.250000000E+02  0.00000E+00  9.000E+00
      25     1     1     2     0     0 -2.698677477E+01 -7.132764826E+02  6.698847169E+02  9.868445473E+02  1.250000000E+02  0.00000E+00  9.000E+00
      21     1     1     2   511   501  1.170759001E+01  9.302898881E+01 -1.131711363E+01  9.444330301E+01  5.057621821E-07  0.00000E+00  9.000E+00
#rwgt            1           1   2.9367200023067506E-002           2      208723           0
</event>
<event>
      5   9999  3.19816E-02  7.74371E+01 -1.00000E+00  1.29038E-01
      21    -1     0     0   512   501  0.000000000E+00  0.000000000E+00  1.108095078E+03  1.108095078E+03  0.000000000E+00  0.00000E+00  9.000E+00
      21    -1     0     0   501   502  0.000000000E+00  0.000000000E+00 -2.091333264E+03  2.091333264E+03  0.000000000E+00  0.00000E+00  9.000E+00
      25     1     1     2     0     0 -1.164947137E+03 -6.520873376E+01 -1.426374484E+03  1.847030909E+03  1.250000000E+02  0.00000E+00  9.000E+00
      25     1     1     2     0     0  1.181160959E+03  1.409293320E+02  3.884055583E+02  1.257571535E+03  1.250000000E+02  0.00000E+00  9.000E+00
      21     1     1     2   512   502 -1.621382225E+01 -7.572059826E+01  5.473073991E+01  9.482589796E+01  1.907348633E-06  0.00000E+00  9.000E+00
#rwgt            1           1   4.3869403794161883E-002           2      208807           0
</event>
<event>
      5   9999  3.19816E-02  7.83454E+01 -1.00000E+00  1.28790E-01
       2    -1     0     0   502     0  0.000000000E+00  0.000000000E+00  1.285352926E+03  1.285352926E+03  0.000000000E+00  0.00000E+00  9.000E+00
      21    -1     0     0   501   502  0.000000000E+00  0.000000000E+00 -2.730897569E+02  2.730897569E+02  0.000000000E+00  0.00000E+00  9.000E+00
      25     1     1     2     0     0 -4.740146908E+01  2.052093902E+02  2.894458054E+02  3.791591583E+02  1.250000000E+02  0.00000E+00  9.000E+00
      25     1     1     2     0     0 -3.093186021E+01 -2.038328978E+02 -1.623429518E+02  2.906628015E+02  1.250000000E+02  0.00000E+00  9.000E+00
       2     1     1     2   501     0  7.833332928E+01 -1.376492357E+00  8.851603156E+02  8.886207231E+02  1.525878906E-05  0.00000E+00  9.000E+00
#rwgt            2          18   1.1606497569109139E-003           2      209044           0
</event>
<event>
      5   9999  3.19816E-02  4.57848E+01 -1.00000E+00  1.41294E-01
      21    -1     0     0   502   511  0.000000000E+00  0.000000000E+00  1.639779775E+03  1.639779775E+03  0.000000000E+00  0.00000E+00  9.000E+00
      21    -1     0     0   501   502  0.000000000E+00  0.000000000E+00 -6.216788206E+02  6.216788206E+02  0.000000000E+00  0.00000E+00  9.000E+00
      25     1     1     2     0     0  7.852490220E+02  4.170044744E+02  7.794564650E+02  1.188985340E+03  1.250000000E+02  0.00000E+00  9.000E+00
      25     1     1     2     0     0 -7.915756319E+02 -3.716588418E+02  5.706885191E+01  8.852141716E+02  1.250000000E+02  0.00000E+00  9.000E+00
      21     1     1     2   501   511  6.326609844E+00 -4.534563256E+01  1.815756371E+02  1.872590835E+02  0.000000000E+00  0.00000E+00  9.000E+00
#rwgt            1           1   3.0814874450962839E-002           2      209138           0
</event>
<event>
      5   9999  3.19816E-02  6.77743E+01 -1.00000E+00  1.31935E-01
      21    -1     0     0   502   512  0.000000000E+00  0.000000000E+00  2.410475036E+02  2.410475036E+02  0.000000000E+00  0.00000E+00  9.000E+00
      21    -1     0     0   501   502  0.000000000E+00  0.000000000E+00 -3.407217724E+02  3.407217724E+02  0.000000000E+00  0.00000E+00  9.000E+00
      25     1     1     2     0     0 -3.106120337E+01  1.075838198E+02  5.114722149E+01  1.754426257E+02  1.250000000E+02  0.00000E+00  9.000E+00
      25     1     1     2     0     0 -2.218605064E+01 -1.495133098E+02 -2.298854145E+02  3.021899311E+02  1.250000000E+02  0.00000E+00  9.000E+00
      21     1     1     2   501   512  5.324725401E+01  4.192948994E+01  7.906392423E+01  1.041367193E+02  2.132480600E-06  0.00000E+00  9.000E+00
#rwgt            1           1   2.9062174875635397E-002           2      209308           0
</event>
<event>
      5   9999  3.19816E-02  2.83945E+02 -1.00000E+00  1.06374E-01
      21    -1     0     0   511   501  0.000000000E+00  0.000000000E+00  1.094849313E+03  1.094849313E+03  0.000000000E+00  0.00000E+00  9.000E+00
      21    -1     0     0   501   502  0.000000000E+00  0.000000000E+00 -6.644075505E+02  6.644075505E+02  0.000000000E+00  0.00000E+00  9.000E+00
      25     1     1     2     0     0 -3.140522559E+02  3.212346123E+02 -4.626542393E+02  6.568823645E+02  1.250000000E+02  0.00000E+00  9.000E+00
      25     1     1     2     0     0  1.913379715E+02 -6.517569764E+01  9.618335182E+01  2.563870669E+02  1.250000000E+02  0.00000E+00  9.000E+00
      21     1     1     2   511   502  1.227142844E+02 -2.560589147E+02  7.969126501E+02  8.459874321E+02  1.078959322E-05  0.00000E+00  9.000E+00
#rwgt            2          11   3.1301133164805374E-003           2      209381           0
</event>
<event>
      5   9999  3.19816E-02  4.67709E+01 -1.00000E+00  1.40750E-01
      21    -1     0     0   502   512  0.000000000E+00  0.000000000E+00  3.063445349E+02  3.063445349E+02  0.000000000E+00  0.00000E+00  9.000E+00
      21    -1     0     0   501   502  0.000000000E+00  0.000000000E+00 -1.916591736E+03  1.916591736E+03  0.000000000E+00  0.00000E+00  9.000E+00
      25     1     1     2     0     0 -7.191481326E+02 -1.319456977E+01 -8.058359084E+02  1.087356724E+03  1.250000000E+02  0.00000E+00  9.000E+00
      25     1     1     2     0     0  6.726060897E+02  8.573728247E+00 -8.351460729E+02  1.079614016E+03  1.250000000E+02  0.00000E+00  9.000E+00
      21     1     1     2   501   512  4.654204292E+01  4.620841525E+00  3.073478036E+01  5.596553099E+01  6.743495762E-07  0.00000E+00  9.000E+00
#rwgt            1           1   2.0013676130956264E-002           2      209401           0
</event>
<event>
      5   9999  3.19816E-02  2.83073E+01 -1.00000E+00  1.54813E-01
      21    -1     0     0   502   501  0.000000000E+00  0.000000000E+00  3.318654528E+03  3.318654528E+03  0.000000000E+00  0.00000E+00  9.000E+00
      21    -1     0     0   511   502  0.000000000E+00  0.000000000E+00 -5.063129125E+01  5.063129125E+01  0.000000000E+00  0.00000E+00  9.000E+00
      25     1     1     2     0     0  1.684990539E+02 -1.306099989E+02  2.778831218E+03  2.789799069E+03  1.250000000E+02  0.00000E+00  9.000E+00
      25     1     1     2     0     0 -1.868352753E+02  1.090440920E+02  4.912187285E+02  5.511069526E+02  1.250000000E+02  0.00000E+00  9.000E+00
      21     1     1     2   511   501  1.833622139E+01  2.156590696E+01 -2.026710454E+00  2.837979763E+01  9.555351461E-07  0.00000E+00  9.000E+00
#rwgt            1           1   2.2974854174995431E-002           2      209555           0
</event>
<event>
      5   9999  3.19816E-02  1.61291E+02 -1.00000E+00  1.15158E-01
      21    -1     0     0   502   512  0.000000000E+00  0.000000000E+00  9.491280774E+02  9.491280774E+02  0.000000000E+00  0.00000E+00  9.000E+00
      21    -1     0     0   501   502  0.000000000E+00  0.000000000E+00 -2.554551412E+02  2.554551412E+02  0.000000000E+00  0.00000E+00  9.000E+00
      25     1     1     2     0     0  1.215109969E+02 -3.354954084E+01 -1.578207513E+02  2.375350156E+02  1.250000000E+02  0.00000E+00  9.000E+00
      25     1     1     2     0     0 -8.198814886E+01  1.899236942E+02  2.645042544E+02  3.583023399E+02  1.250000000E+02  0.00000E+00  9.000E+00
      21     1     1     2   501   512 -3.952284807E+01 -1.563741533E+02  5.869894331E+02  6.087458632E+02  7.629394531E-06  0.00000E+00  9.000E+00
#rwgt            1           1   2.4033133289514751E-002           2      209715           0
</event>
<event>
      5   9999  3.19816E-02  2.23351E+02 -1.00000E+00  1.09930E-01
       2    -1     0     0   502     0  0.000000000E+00  0.000000000E+00  5.559970851E+02  5.559970851E+02  0.000000000E+00  0.00000E+00  9.000E+00
      21    -1     0     0   501   502  0.000000000E+00  0.000000000E+00 -5.920430131E+02  5.920430131E+02  0.000000000E+00  0.00000E+00  9.000E+00
      25     1     1     2     0     0  1.025802203E+01  3.789541214E+02 -2.941273408E+02  4.958299565E+02  1.250000000E+02  0.00000E+00  9.000E+00
      25     1     1     2     0     0  1.848506242E+02 -2.702416646E+02  6.388296891E+01  3.562391672E+02  1.250000000E+02  0.00000E+00  9.000E+00
       2     1     1     2   501     0 -1.951086462E+02 -1.087124568E+02  1.941984439E+02  2.959709744E+02  2.697398305E-06  0.00000E+00  9.000E+00
#rwgt            2          18   4.1968592247720372E-004           2      209829           0
</event>
<event>
      5   9999  3.19816E-02  1.31143E+02 -1.00000E+00  1.18754E-01
      21    -1     0     0   511   501  0.000000000E+00  0.000000000E+00  1.136182384E+03  1.136182384E+03  0.000000000E+00  0.00000E+00  9.000E+00
      21    -1     0     0   501   502  0.000000000E+00  0.000000000E+00 -4.406775445E+02  4.406775445E+02  0.000000000E+00  0.00000E+00  9.000E+00
      25     1     1     2     0     0 -5.407668325E+02  1.959400252E+02  1.397877367E+02  6.049684884E+02  1.250000000E+02  0.00000E+00  9.000E+00
      25     1     1     2     0     0  5.684334026E+02 -3.241310910E+02  4.622833964E+02  8.108689388E+02  1.250000000E+02  0.00000E+00  9.000E+00
      21     1     1     2   511   502 -2.766657004E+01  1.281910657E+02  9.343370632E+01  1.610225012E+02  2.336015456E-06  0.00000E+00  9.000E+00
#rwgt            1           1   3.1970815371797183E-002           2      209848           0
</event>
<event>
      5   9999  3.19816E-02  1.12521E+02 -1.00000E+00  1.21567E-01
      21    -1     0     0   502   501  0.000000000E+00  0.000000000E+00  1.871641345E+02  1.871641345E+02  0.000000000E+00  0.00000E+00  9.000E+00
       2    -1     0     0   501     0  0.000000000E+00  0.000000000E+00 -1.279549820E+03  1.279549820E+03  0.000000000E+00  0.00000E+00  9.000E+00
      25     1     1     2     0     0 -1.089529610E+02 -3.923907895E+02 -5.080496472E+02  6.630088411E+02  1.250000000E+02  0.00000E+00  9.000E+00
      25     1     1     2     0     0  9.958881698E+01  2.802597145E+02 -1.513990945E+02  3.563848003E+02  1.250000000E+02  0.00000E+00  9.000E+00
       2     1     1     2   502     0  9.364144053E+00  1.121310749E+02 -4.329369439E+02  4.473203132E+02  5.394796609E-06  0.00000E+00  9.000E+00
#rwgt            1           1   2.7429445041556311E-002           2      209958           0
</event>
<event>
      5   9999  3.19816E-02  1.92391E+02 -1.00000E+00  1.12265E-01
      21    -1     0     0   502   511  0.000000000E+00  0.000000000E+00  3.877381933E+02  3.877381933E+02  0.000000000E+00  0.00000E+00  9.000E+00
      21    -1     0     0   501   502  0.000000000E+00  0.000000000E+00 -2.554853450E+02  2.554853450E+02  0.000000000E+00  0.00000E+00  9.000E+00
      25     1     1     2     0     0  1.005310416E+02  2.145620047E+02 -6.091582833E+00  2.679653925E+02  1.250000000E+02  0.00000E+00  9.000E+00
      25     1     1     2     0     0 -8.031929840E+01 -2.323597494E+01  9.552385485E+01  1.781597796E+02  1.250000000E+02  0.00000E+00  9.000E+00
      21     1     1     2   501   511 -2.021174318E+01 -1.913260298E+02  4.282057629E+01  1.970983663E+02  2.697398305E-06  0.00000E+00  9.000E+00
#rwgt            2          11   2.6030376172712609E-003           2      210126           0
</event>
<event>
      5   9999  3.37042E-02  2.44350E+01 -1.00000E+00  1.59498E-01
      21    -1     0     0   502   501  0.000000000E+00  0.000000000E+00  2.936231417E+03  2.936231417E+03  0.000000000E+00  0.00000E+00  9.000E+00
      21    -1     0     0   501   512  0.000000000E+00  0.000000000E+00 -1.949867070E+02  1.949867070E+02  0.000000000E+00  0.00000E+00  9.000E+00
      25     1     1     2     0     0  4.812485707E+02  5.446411670E+02  1.614499330E+03  1.774955570E+03  1.250000000E+02  0.00000E+00  9.000E+00
      25     1     1     2     0     0 -4.935048525E+02 -5.235022564E+02  1.083668782E+03  1.306738183E+03  1.250000000E+02  0.00000E+00  9.000E+00
      21     1     1     2   502   512  1.225628189E+01 -2.113891064E+01  4.307659792E+01  4.952437054E+01  4.768371582E-07  0.00000E+00  9.000E+00
#rwgt            1           1   9.3889390705025250E-002           2      210161           0
</event>
<event>
      5   9999  3.19816E-02  1.87313E+01 -1.00000E+00  1.68752E-01
      21    -1     0     0   502   501  0.000000000E+00  0.000000000E+00  1.967022699E+03  1.967022699E+03  0.000000000E+00  0.00000E+00  9.000E+00
      21    -1     0     0   511   502  0.000000000E+00  0.000000000E+00 -1.395768715E+03  1.395768715E+03  0.000000000E+00  0.00000E+00  9.000E+00
      25     1     1     2     0     0  2.086231543E+02 -1.396483511E+02  7.039018650E+02  7.577124243E+02  1.250000000E+02  0.00000E+00  9.000E+00
      25     1     1     2     0     0 -1.914287422E+02  1.322178560E+02  1.222044212E+03  1.250257405E+03  1.250000000E+02  0.00000E+00  9.000E+00
      21     1     1     2   511   501 -1.719441203E+01  7.430495036E+00 -1.354692093E+03  1.354821585E+03  2.157918644E-05  0.00000E+00  9.000E+00
#rwgt            1           1   2.4666874847985118E-002           2      210374           0
</event>
<event>
      5   9999  3.19816E-02  5.28310E+01 -1.00000E+00  1.37724E-01
      21    -1     0     0   502   512  0.000000000E+00  0.000000000E+00  5.122634170E+02  5.122634170E+02  0.000000000E+00  0.00000E+00  9.000E+00
      21    -1     0     0   501   502  0.000000000E+00  0.000000000E+00 -4.778312670E+02  4.778312670E+02  0.000000000E+00  0.00000E+00  9.000E+00
      25     1     1     2     0     0 -1.222662781E+02  4.504920640E+02 -8.065468045E+01  4.899207282E+02  1.250000000E+02  0.00000E+00  9.000E+00
      25     1     1     2     0     0  9.940928593E+01 -4.028614564E+02  9.501126904E+01  4.436571879E+02  1.250000000E+02  0.00000E+00  9.000E+00
      21     1     1     2   501   512  2.285699212E+01 -4.763060762E+01  2.007556142E+01  5.651676775E+01  7.539457465E-07  0.00000E+00  9.000E+00
#rwgt            1           1   2.5749500166895884E-002           2      210545           0
</event>
<event>
      5   9999  3.19816E-02  1.10466E+02 -1.00000E+00  1.21914E-01
      21    -1     0     0   502   511  0.000000000E+00  0.000000000E+00  2.365578064E+03  2.365578064E+03  0.000000000E+00  0.00000E+00  9.000E+00
      21    -1     0     0   501   502  0.000000000E+00  0.000000000E+00 -1.990729854E+02  1.990729854E+02  0.000000000E+00  0.00000E+00  9.000E+00
      25     1     1     2     0     0 -5.950086455E+00 -4.692751895E+02  4.111117017E+02  6.363115890E+02  1.250000000E+02  0.00000E+00  9.000E+00
      25     1     1     2     0     0  8.748272658E+01  3.947420801E+02  4.479794841E+02  6.162671137E+02  1.250000000E+02  0.00000E+00  9.000E+00
      21     1     1     2   501   511 -8.153264012E+01  7.453310941E+01  1.307413892E+03  1.312072346E+03  0.000000000E+00  0.00000E+00  9.000E+00
#rwgt            1           1   2.8553195141851829E-002           2      210724           0
</event>
<event>
      5   9999  3.19816E-02  1.88502E+02 -1.00000E+00  1.12592E-01
       2    -1     0     0   502     0  0.000000000E+00  0.000000000E+00  2.584009397E+03  2.584009397E+03  0.000000000E+00  0.00000E+00  9.000E+00
      21    -1     0     0   501   502  0.000000000E+00  0.000000000E+00 -7.833008021E+01  7.833008021E+01  0.000000000E+00  0.00000E+00  9.000E+00
      25     1     1     2     0     0 -3.226240372E+02 -5.667084066E+01  6.889405729E+02  7.730213234E+02  1.250000000E+02  0.00000E+00  9.000E+00
      25     1     1     2     0     0  2.459569967E+02 -1.155357587E+02  7.761068733E+02  8.317513057E+02  1.250000000E+02  0.00000E+00  9.000E+00
       2     1     1     2   501     0  7.666704054E+01  1.722065994E+02  1.040631871E+03  1.057566848E+03  0.000000000E+00  0.00000E+00  9.000E+00
#rwgt            1           1   2.9161007108144159E-002           2      210839           0
</event>
<event>
      5   9999  3.19816E-02  4.76257E+02 -1.00000E+00  9.94560E-02
       2    -1     0     0   502     0  0.000000000E+00  0.000000000E+00  3.705822788E+03  3.705822788E+03  0.000000000E+00  0.00000E+00  9.000E+00
      21    -1     0     0   501   502  0.000000000E+00  0.000000000E+00 -3.806769980E+02  3.806769980E+02  0.000000000E+00  0.00000E+00  9.000E+00
      25     1     1     2     0     0  3.619788732E+02 -4.940924399E+02  2.927188302E+02  6.902647010E+02  1.250000000E+02  0.00000E+00  9.000E+00
      25     1     1     2     0     0 -7.821657536E+02  2.698963140E+02  9.771381982E+02  1.286487989E+03  1.250000000E+02  0.00000E+00  9.000E+00
       2     1     1     2   501     0  4.201868804E+02  2.241961259E+02  2.055288762E+03  2.109747096E+03  3.051757812E-05  0.00000E+00  9.000E+00
#rwgt            1           1   2.2920410040615430E-002           2      210928           0
</event>
<event>
      5   9999  3.19816E-02  6.82759E+02 -1.00000E+00  9.51545E-02
       2    -1     0     0   502     0  0.000000000E+00  0.000000000E+00  3.654821131E+03  3.654821131E+03  0.000000000E+00  0.00000E+00  9.000E+00
      21    -1     0     0   501   502  0.000000000E+00  0.000000000E+00 -4.917610515E+02  4.917610515E+02  0.000000000E+00  0.00000E+00  9.000E+00
      25     1     1     2     0     0  5.148710685E+02 -1.264327617E+02  3.402673203E+02  6.422494139E+02  1.250000000E+02  0.00000E+00  9.000E+00
      25     1     1     2     0     0 -9.927951074E+02 -3.611624289E+02  6.975664190E+02  1.272125911E+03  1.250000000E+02  0.00000E+00  9.000E+00
       2     1     1     2   501     0  4.779240388E+02  4.875951906E+02  2.125226340E+03  2.232206858E+03  3.051757812E-05  0.00000E+00  9.000E+00
#rwgt            2          18   8.6881036919994506E-004           2      211030           0
</event>
<event>
      5   9999  3.19816E-02  8.33696E+01 -1.00000E+00  1.27488E-01
      21    -1     0     0   502   501  0.000000000E+00  0.000000000E+00  1.543398333E+02  1.543398333E+02  0.000000000E+00  0.00000E+00  9.000E+00
      21    -1     0     0   511   502  0.000000000E+00  0.000000000E+00 -1.116297224E+03  1.116297224E+03  0.000000000E+00  0.00000E+00  9.000E+00
      25     1     1     2     0     0  2.864007305E+02 -7.924903201E+01 -3.070061768E+02  4.451781443E+02  1.250000000E+02  0.00000E+00  9.000E+00
      25     1     1     2     0     0 -3.394249497E+02  1.491462770E+01 -3.295608041E+02  4.895580315E+02  1.250000000E+02  0.00000E+00  9.000E+00
      21     1     1     2   511   501  5.302421919E+01  6.433440432E+01 -3.253904099E+02  3.359008816E+02  3.814697266E-06  0.00000E+00  9.000E+00
#rwgt            1           1   3.2381796888378035E-002           2      211049           0
</event>
<event>
      5   9999  3.19816E-02  2.92619E+01 -1.00000E+00  1.53795E-01
      21    -1     0     0   512   501  0.000000000E+00  0.000000000E+00  1.266484168E+03  1.266484168E+03  0.000000000E+00  0.00000E+00  9.000E+00
      21    -1     0     0   501   502  0.000000000E+00  0.000000000E+00 -1.447737173E+02  1.447737173E+02  0.000000000E+00  0.00000E+00  9.000E+00
      25     1     1     2     0     0  5.485948869E+01 -1.717017050E+02  9.503373178E+02  9.753240777E+02  1.250000000E+02  0.00000E+00  9.000E+00
      25     1     1     2     0     0 -4.531150140E+01  1.440413681E+02 -5.821591610E+01  2.044875076E+02  1.250000000E+02  0.00000E+00  9.000E+00
      21     1     1     2   512   502 -9.547987292E+00  2.766033686E+01  2.295890491E+02  2.314462999E+02  4.672030912E-06  0.00000E+00  9.000E+00
#rwgt            1           1   2.5930460999341827E-002           2      211137           0
</event>
<event>
      5   9999  3.19816E-02  9.51484E+01 -1.00000E+00  1.24807E-01
      21    -1     0     0   502   501  0.000000000E+00  0.000000000E+00  6.658279364E+02  6.658279364E+02  0.000000000E+00  0.00000E+00  9.000E+00
      21    -1     0     0   501   511  0.000000000E+00  0.000000000E+00 -1.534358775E+02  1.534358775E+02  0.000000000E+00  0.00000E+00  9.000E+00
      25     1     1     2     0     0 -6.284810724E+01 -1.023602280E+02  1.511138727E+01  1.740139502E+02  1.250000000E+02  0.00000E+00  9.000E+00
      25     1     1     2     0     0  1.378555866E+02  4.381884903E+01  5.142170529E+02  5.486058984E+02  1.250000000E+02  0.00000E+00  9.000E+00
      21     1     1     2   502   511 -7.500747939E+01  5.854137894E+01 -1.693638130E+01  9.664396528E+01  9.830249847E-07  0.00000E+00  9.000E+00
#rwgt            1           1   2.7149430474710922E-002           2      211251           0
</event>
<event>
      5   9999  3.19816E-02  1.27159E+02 -1.00000E+00  1.19310E-01
      21    -1     0     0   512   501  0.000000000E+00  0.000000000E+00  1.643538170E+03  1.643538170E+03  0.000000000E+00  0.00000E+00  9.000E+00
      21    -1     0     0   501   502  0.000000000E+00  0.000000000E+00 -1.464941095E+02  1.464941095E+02  0.000000000E+00  0.00000E+00  9.000E+00
      25     1     1     2     0     0 -2.482755071E+02 -1.478028340E+02  2.270540663E+02  3.881558375E+02  1.250000000E+02  0.00000E+00  9.000E+00
      25     1     1     2     0     0  3.554376271E+02  2.162549143E+02  7.516000561E+02  8.681185052E+02  1.250000000E+02  0.00000E+00  9.000E+00
      21     1     1     2   512   502 -1.071621199E+02 -6.845208035E+01  5.183899384E+02  5.337579371E+02  1.078959322E-05  0.00000E+00  9.000E+00
#rwgt            1           1   3.2767405576143237E-002           2      211319           0
</event>
<event>
      5   9999  3.19816E-02  2.16622E+02 -1.00000E+00  1.10400E-01
      21    -1     0     0   502   511  0.000000000E+00  0.000000000E+00  6.075443295E+02  6.075443295E+02  0.000000000E+00  0.00000E+00  9.000E+00
      21    -1     0     0   501   502  0.000000000E+00  0.000000000E+00 -6.432375504E+02  6.432375504E+02  0.000000000E+00  0.00000E+00  9.000E+00
      25     1     1     2     0     0 -2.189501405E+02 -1.368021673E+02 -3.976835641E+02  4.903378571E+02  1.250000000E+02  0.00000E+00  9.000E+00
      25     1     1     2     0     0  4.269471324E+02  7.628624511E+01  2.615785275E+02  5.216816760E+02  1.250000000E+02  0.00000E+00  9.000E+00
      21     1     1     2   501   511 -2.079969919E+02  6.051592215E+01  1.004118157E+02  2.387623467E+02  1.348699152E-06  0.00000E+00  9.000E+00
#rwgt            1           1   3.0076675037367735E-002           2      211399           0
</event>
<event>
      5   9999  3.19816E-02  3.37861E+02 -1.00000E+00  1.03942E-01
       2    -1     0     0   502     0  0.000000000E+00  0.000000000E+00  1.351772473E+03  1.351772473E+03  0.000000000E+00  0.00000E+00  9.000E+00
      21    -1     0     0   501   502  0.000000000E+00  0.000000000E+00 -2.262404505E+02  2.262404505E+02  0.000000000E+00  0.00000E+00  9.000E+00
      25     1     1     2     0     0 -2.186786746E+02  2.769855012E+02  9.022348824E+01  3.851059704E+02  1.250000000E+02  0.00000E+00  9.000E+00
      25     1     1     2     0     0 -5.269039162E+01 -7.571660426E+01  7.040358739E+01  1.705606832E+02  1.250000000E+02  0.00000E+00  9.000E+00
       2     1     1     2   501     0  2.713690662E+02 -2.012688969E+02  9.649049470E+02  1.022346270E+03  1.078959322E-05  0.00000E+00  9.000E+00
#rwgt            1           1   2.6928722128965143E-002           2      211433           0
</event>
<event>
      5   9999  3.19816E-02  8.11759E+01 -1.00000E+00  1.28044E-01
      21    -1     0     0   511   501  0.000000000E+00  0.000000000E+00  4.285002538E+02  4.285002538E+02  0.000000000E+00  0.00000E+00  9.000E+00
      21    -1     0     0   501   502  0.000000000E+00  0.000000000E+00 -2.418327879E+02  2.418327879E+02  0.000000000E+00  0.00000E+00  9.000E+00
      25     1     1     2     0     0 -2.297672139E+00  1.100680833E+02  3.097943444E+01  1.694254633E+02  1.250000000E+02  0.00000E+00  9.000E+00
      25     1     1     2     0     0 -7.793640130E+01 -1.223976418E+02 -1.115321886E+02  2.216296335E+02  1.250000000E+02  0.00000E+00  9.000E+00
      21     1     1     2   511   502  8.023407343E+01  1.232955847E+01  2.672202200E+02  2.792779450E+02  0.000000000E+00  0.00000E+00  9.000E+00
#rwgt            1           1   2.8126465989392165E-002           2      211505           0
</event>
<event>
      5   9999  3.19816E-02  5.20686E+00 -1.00000E+00  2.35481E-01
      21    -1     0     0   502   501  0.000000000E+00  0.000000000E+00  4.464379575E+02  4.464379575E+02  0.000000000E+00  0.00000E+00  9.000E+00
      21    -1     0     0   501   512  0.000000000E+00  0.000000000E+00 -2.838242072E+02  2.838242072E+02  0.000000000E+00  0.00000E+00  9.000E+00
      25     1     1     2     0     0  2.466711567E+02 -1.742721889E+02  7.836074832E+01  3.361292345E+02  1.250000000E+02  0.00000E+00  9.000E+00
      25     1     1     2     0     0 -2.459842575E+02  1.691108336E+02  1.295117102E+02  3.485756906E+02  1.250000000E+02  0.00000E+00  9.000E+00
      21     1     1     2   502   512 -6.868991527E-01  5.161355279E+00 -4.525870817E+01  4.555723965E+01  6.743495762E-07  0.00000E+00  9.000E+00
#rwgt            1           1   2.8664735196557607E-002           2      211623           0
</event>
<event>
      5   9999  3.19816E-02  5.74716E+01 -1.00000E+00  1.35710E-01
      21    -1     0     0   511   501  0.000000000E+00  0.000000000E+00  1.218311549E+02  1.218311549E+02  0.000000000E+00  0.00000E+00  9.000E+00
      21    -1     0     0   501   502  0.000000000E+00  0.000000000E+00 -1.237407802E+03  1.237407802E+03  0.000000000E+00  0.00000E+00  9.000E+00
      25     1     1     2     0     0 -3.325435671E+02  7.475972591E+01 -5.787312644E+02  6.831757585E+02  1.250000000E+02  0.00000E+00  9.000E+00
      25     1     1     2     0     0  2.844322785E+02 -1.061967626E+02 -5.220500825E+02  6.167177329E+02  1.250000000E+02  0.00000E+00  9.000E+00
      21     1     1     2   511   502  4.811128867E+01  3.143703669E+01 -1.479530021E+01  5.934546556E+01  1.685873940E-07  0.00000E+00  9.000E+00
#rwgt            1           1   2.8090929841831647E-002           2      212013           0
</event>
<event>
      5   9999  3.19816E-02  1.12039E+02 -1.00000E+00  1.21647E-01
      21    -1     0     0   502   501  0.000000000E+00  0.000000000E+00  1.118615375E+02  1.118615375E+02  0.000000000E+00  0.00000E+00  9.000E+00
      21    -1     0     0   501   512  0.000000000E+00  0.000000000E+00 -3.115795200E+03  3.115795200E+03  0.000000000E+00  0.00000E+00  9.000E+00
      25     1     1     2     0     0 -2.156897420E+02  2.567517408E+02 -7.667509554E+02  8.461533837E+02  1.250000000E+02  0.00000E+00  9.000E+00
      25     1     1     2     0     0  2.554600942E+02 -3.614943240E+02 -6.839035679E+02  8.241887503E+02  1.250000000E+02  0.00000E+00  9.000E+00
      21     1     1     2   502   512 -3.977035218E+01  1.047425832E+02 -1.553279139E+03  1.557314604E+03  0.000000000E+00  0.00000E+00  9.000E+00
#rwgt            1           1   2.7965739647877175E-002           2      212117           0
</event>
<event>
      5   9999  3.19816E-02  4.04704E+01 -1.00000E+00  1.44526E-01
      21    -1     0     0   502   501  0.000000000E+00  0.000000000E+00  2.652455948E+02  2.652455948E+02  0.000000000E+00  0.00000E+00  9.000E+00
       2    -1     0     0   501     0  0.000000000E+00  0.000000000E+00 -2.817009770E+02  2.817009770E+02  0.000000000E+00  0.00000E+00  9.000E+00
      25     1     1     2     0     0 -6.576113664E+00  4.684979451E+01 -1.534102571E+02  2.034646296E+02  1.250000000E+02  0.00000E+00  9.000E+00
      25     1     1     2     0     0  3.776916411E+01 -7.263435786E+01  2.113236889E+02  2.588145305E+02  1.250000000E+02  0.00000E+00  9.000E+00
       2     1     1     2   502     0 -3.119305044E+01  2.578456335E+01 -7.436881403E+01  8.466741170E+01  9.536743164E-07  0.00000E+00  9.000E+00
#rwgt            1           1   2.8874029823694806E-002           2      212229           0
</event>
<event>
      5   9999  3.19816E-02  1.86416E+02 -1.00000E+00  1.12772E-01
      21    -1     0     0   511   501  0.000000000E+00  0.000000000E+00  1.369582113E+03  1.369582113E+03  0.000000000E+00  0.00000E+00  9.000E+00
      21    -1     0     0   501   502  0.000000000E+00  0.000000000E+00 -4.751080705E+02  4.751080705E+02  0.000000000E+00  0.00000E+00  9.000E+00
      25     1     1     2     0     0  3.213286499E+02  3.284454242E+02  3.537377625E+02  5.931980298E+02  1.250000000E+02  0.00000E+00  9.000E+00
      25     1     1     2     0     0 -4.312062487E+02 -1.778542408E+02 -1.736558195E+02  5.131786273E+02  1.250000000E+02  0.00000E+00  9.000E+00
      21     1     1     2   511   502  1.098775989E+02 -1.505911835E+02  7.143920996E+02  7.383135264E+02  1.078959322E-05  0.00000E+00  9.000E+00
#rwgt            1           1   3.1484544267476246E-002           2      212303           0
</event>
<event>
      5   9999  3.19816E-02  3.20774E+01 -1.00000E+00  1.51047E-01
      21    -1     0     0   502   512  0.000000000E+00  0.000000000E+00  5.145977023E+01  5.145977023E+01  0.000000000E+00  0.00000E+00  9.000E+00
      21    -1     0     0   501   502  0.000000000E+00  0.000000000E+00 -1.501048632E+03  1.501048632E+03  0.000000000E+00  0.00000E+00  9.000E+00
      25     1     1     2     0     0  1.883875163E+02 -1.244070715E+00 -8.888526627E+02  9.171561808E+02  1.250000000E+02  0.00000E+00  9.000E+00
      25     1     1     2     0     0 -2.102329823E+02  2.473314050E+01 -5.484077145E+02  6.009872348E+02  1.250000000E+02  0.00000E+00  9.000E+00
      21     1     1     2   501   512  2.184546598E+01 -2.348906979E+01 -1.232848481E+01  3.436498685E+01  3.371747881E-07  0.00000E+00  9.000E+00
#rwgt            1           1   2.6323168108014588E-002           2      212362           0
</event>
<event>
      5   9999  3.19816E-02  1.61926E+01 -1.00000E+00  1.74310E-01
       2    -1     0     0   502     0  0.000000000E+00  0.000000000E+00  2.817818803E+03  2.817818803E+03  0.000000000E+00  0.00000E+00  9.000E+00
      21    -1     0     0   501   502  0.000000000E+00  0.000000000E+00 -6.515963699E+01  6.515963699E+01  0.000000000E+00  0.00000E+00  9.000E+00
      25     1     1     2     0     0 -8.848322436E+01  7.369398708E+01  1.641010355E+02  2.362503641E+02  1.250000000E+02  0.00000E+00  9.000E+00
      25     1     1     2     0     0  9.450070776E+01 -8.872691703E+01  2.499456417E+02  3.080595289E+02  1.250000000E+02  0.00000E+00  9.000E+00
       2     1     1     2   501     0 -6.017483394E+00  1.503292996E+01  2.338612489E+03  2.338668547E+03  3.051757812E-05  0.00000E+00  9.000E+00
#rwgt            1           1   3.3009139443279926E-002           2      212535           0
</event>
<event>
      5   9999  3.19816E-02  2.44584E+01 -1.00000E+00  1.59467E-01
       1    -1     0     0   502     0  0.000000000E+00  0.000000000E+00  6.196698381E+02  6.196698381E+02  0.000000000E+00  0.00000E+00  9.000E+00
      21    -1     0     0   501   502  0.000000000E+00  0.000000000E+00 -1.956784979E+03  1.956784979E+03  0.000000000E+00  0.00000E+00  9.000E+00
      25     1     1     2     0     0 -2.998389782E+02 -5.668411348E+02 -7.015732762E+02  9.586669634E+02  1.250000000E+02  0.00000E+00  9.000E+00
      25     1     1     2     0     0  2.873355268E+02  5.878620248E+02 -1.027781154E+03  1.224786743E+03  1.250000000E+02  0.00000E+00  9.000E+00
       1     1     1     2   501     0  1.250345145E+01 -2.102088998E+01  3.922392885E+02  3.930011114E+02  7.629394531E-06  0.00000E+00  9.000E+00
#rwgt            1           1   1.4499771282176993E-002           2      212732           0
</event>
<event>
      5   9999  3.19816E-02  1.95745E+02 -1.00000E+00  1.11989E-01
       2    -1     0     0   502     0  0.000000000E+00  0.000000000E+00  3.785885184E+03  3.785885184E+03  0.000000000E+00  0.00000E+00  9.000E+00
      21    -1     0     0   501   502  0.000000000E+00  0.000000000E+00 -1.436734748E+02  1.436734748E+02  0.000000000E+00  0.00000E+00  9.000E+00
      25     1     1     2     0     0  4.717687625E+02 -3.782798933E+02  1.160816473E+03  1.314831292E+03  1.250000000E+02  0.00000E+00  9.000E+00
      25     1     1     2     0     0 -4.723402455E+02  1.825353428E+02  1.075860124E+03  1.195627226E+03  1.250000000E+02  0.00000E+00  9.000E+00
       2     1     1     2   501     0  5.714830495E-01  1.957445505E+02  1.405535112E+03  1.419100140E+03  1.525878906E-05  0.00000E+00  9.000E+00
#rwgt            1           1   3.4962453947068227E-002           2      212946           0
</event>
<event>
      5   9999  3.19816E-02  6.81732E+01 -1.00000E+00  1.31805E-01
      21    -1     0     0   502   501  0.000000000E+00  0.000000000E+00  1.218905695E+02  1.218905695E+02  0.000000000E+00  0.00000E+00  9.000E+00
      21    -1     0     0   511   502  0.000000000E+00  0.000000000E+00 -8.951285143E+02  8.951285143E+02  0.000000000E+00  0.00000E+00  9.000E+00
      25     1     1     2     0     0 -6.046059086E+01  2.434852908E+01 -3.185075471E+02  3.483107685E+02  1.250000000E+02  0.00000E+00  9.000E+00
      25     1     1     2     0     0  9.015593947E+01 -8.571445862E+01  3.027770799E+01  1.789323935E+02  1.250000000E+02  0.00000E+00  9.000E+00
      21     1     1     2   511   501 -2.969534861E+01  6.136592953E+01 -4.850081056E+02  4.897759218E+02  9.344061824E-06  0.00000E+00  9.000E+00
#rwgt            1           1   2.9037010971770014E-002           2      212991           0
</event>
<event>
      5   9999  3.19816E-02  4.31685E+01 -1.00000E+00  1.42816E-01
      21    -1     0     0   502   501  0.000000000E+00  0.000000000E+00  1.293943804E+03  1.293943804E+03  0.000000000E+00  0.00000E+00  9.000E+00
      21    -1     0     0   501   512  0.000000000E+00  0.000000000E+00 -2.035665679E+02  2.035665679E+02  0.000000000E+00  0.00000E+00  9.000E+00
      25     1     1     2     0     0  5.129760750E+00  5.472235719E+01 -1.556877441E+02  2.070857902E+02  1.250000000E+02  0.00000E+00  9.000E+00
      25     1     1     2     0     0 -4.127004706E+01 -7.833171697E+01  1.236829763E+03  1.246279237E+03  1.250000000E+02  0.00000E+00  9.000E+00
      21     1     1     2   502   512  3.614028631E+01  2.360935979E+01  9.235216864E+00  4.414534398E+01  3.769728732E-07  0.00000E+00  9.000E+00
#rwgt            1           1   2.6598927511984428E-002           2      213092           0
</event>
<event>
      5   9999  3.19816E-02  1.77954E+02 -1.00000E+00  1.13526E-01
      21    -1     0     0   502   501  0.000000000E+00  0.000000000E+00  1.248621164E+03  1.248621164E+03  0.000000000E+00  0.00000E+00  9.000E+00
      21    -1     0     0   511   502  0.000000000E+00  0.000000000E+00 -7.601128467E+02  7.601128467E+02  0.000000000E+00  0.00000E+00  9.000E+00
      25     1     1     2     0     0 -2.056459428E+02  2.212998839E+02  6.533597667E+02  7.305941946E+02  1.250000000E+02  0.00000E+00  9.000E+00
      25     1     1     2     0     0  2.150261843E+02 -4.359338277E+01  5.159705402E+02  5.744451595E+02  1.250000000E+02  0.00000E+00  9.000E+00
      21     1     1     2   511   501 -9.380241495E+00 -1.777065011E+02 -6.808219891E+02  7.036946570E+02  7.629394531E-06  0.00000E+00  9.000E+00
#rwgt            2          11   2.1053630914344507E-002           2      213419           0
</event>
<event>
      5   9999  3.19816E-02  3.39693E+01 -1.00000E+00  1.49384E-01
      21    -1     0     0   502   501  0.000000000E+00  0.000000000E+00  3.751171819E+01  3.751171819E+01  0.000000000E+00  0.00000E+00  9.000E+00
       2    -1     0     0   501     0  0.000000000E+00  0.000000000E+00 -2.890112924E+03  2.890112924E+03  0.000000000E+00  0.00000E+00  9.000E+00
      25     1     1     2     0     0 -1.877975680E+01 -1.086725126E+02 -1.894542836E+02  2.523495985E+02  1.250000000E+02  0.00000E+00  9.000E+00
      25     1     1     2     0     0  5.214750846E+01  1.150367829E+02 -1.344721189E+03  1.356411774E+03  1.250000000E+02  0.00000E+00  9.000E+00
       2     1     1     2   502     0 -3.336775166E+01 -6.364270366E+00 -1.318425733E+03  1.318863270E+03  3.051757812E-05  0.00000E+00  9.000E+00
#rwgt            1           1   3.8179064680540345E-002           2      213439           0
</event>
<event>
      5   9999  3.19816E-02  9.43547E+01 -1.00000E+00  1.24974E-01
      21    -1     0     0   502   511  0.000000000E+00  0.000000000E+00  7.915073125E+02  7.915073125E+02  0.000000000E+00  0.00000E+00  9.000E+00
      21    -1     0     0   501   502  0.000000000E+00  0.000000000E+00 -4.792471825E+02  4.792471825E+02  0.000000000E+00  0.00000E+00  9.000E+00
      25     1     1     2     0     0 -1.184715620E+02  5.216201955E+02  1.459606034E+02  5.683771961E+02  1.250000000E+02  0.00000E+00  9.000E+00
      25     1     1     2     0     0  2.562660108E+01 -5.384316440E+02  5.440826721E+01  5.560131451E+02  1.250000000E+02  0.00000E+00  9.000E+00
      21     1     1     2   501   511  9.284496093E+01  1.681144853E+01  1.118912595E+02  1.463641538E+02  2.697398305E-06  0.00000E+00  9.000E+00
#rwgt            1           1   2.6788299942360972E-002           2      213536           0
</event>
<event>
      5   9999  3.19816E-02  3.50624E+01 -1.00000E+00  1.48480E-01
      21    -1     0     0   502   501  0.000000000E+00  0.000000000E+00  1.529636055E+02  1.529636055E+02  0.000000000E+00  0.00000E+00  9.000E+00
      21    -1     0     0   501   512  0.000000000E+00  0.000000000E+00 -4.481994571E+02  4.481994571E+02  0.000000000E+00  0.00000E+00  9.000E+00
      25     1     1     2     0     0 -1.103424248E+02  8.730972200E+00  5.844703885E+01  1.768975323E+02  1.250000000E+02  0.00000E+00  9.000E+00
      25     1     1     2     0     0  9.950802238E+01 -4.207739928E+01 -1.692243793E+02  2.365042169E+02  1.250000000E+02  0.00000E+00  9.000E+00
      21     1     1     2   502   512  1.083440242E+01  3.334642708E+01 -1.844585112E+02  1.877613134E+02  3.814697266E-06  0.00000E+00  9.000E+00
#rwgt            1           1   2.7044099302052722E-002           2      213649           0
</event>
<event>
      5   9999  3.19816E-02  4.01733E+01 -1.00000E+00  1.44724E-01
      21    -1     0     0   511   501  0.000000000E+00  0.000000000E+00  1.001208431E+03  1.001208431E+03  0.000000000E+00  0.00000E+00  9.000E+00
      21    -1     0     0   501   502  0.000000000E+00  0.000000000E+00 -3.411534247E+02  3.411534247E+02  0.000000000E+00  0.00000E+00  9.000E+00
      25     1     1     2     0     0  1.406703880E+02  4.536756359E+02  3.819677232E+02  6.222009983E+02  1.250000000E+02  0.00000E+00  9.000E+00
      25     1     1     2     0     0 -1.151284385E+02 -4.846836959E+02  8.214176015E+01  5.201395113E+02  1.250000000E+02  0.00000E+00  9.000E+00
      21     1     1     2   511   502 -2.554194947E+01  3.100806004E+01  1.959455229E+02  2.000213462E+02  2.697398305E-06  0.00000E+00  9.000E+00
#rwgt            1           1   2.4927611863475536E-002           2      213741           0
</event>
<event>
      5   9999  3.19816E-02  6.31390E+01 -1.00000E+00  1.33531E-01
      21    -1     0     0   502   512  0.000000000E+00  0.000000000E+00  1.212074848E+02  1.212074848E+02  0.000000000E+00  0.00000E+00  9.000E+00
      21    -1     0     0   501   502  0.000000000E+00  0.000000000E+00 -1.921976638E+03  1.921976638E+03  0.000000000E+00  0.00000E+00  9.000E+00
      25     1     1     2     0     0 -6.917162418E+01 -1.248287430E+02 -6.132340931E+01  1.993802628E+02  1.250000000E+02  0.00000E+00  9.000E+00
      25     1     1     2     0     0  1.266831380E+02  9.877200076E+01 -1.764260933E+03  1.775963447E+03  1.250000000E+02  0.00000E+00  9.000E+00
      21     1     1     2   501   512 -5.751151379E+01  2.605674222E+01  2.481518897E+01  6.784041300E+01  2.800784141E-06  0.00000E+00  9.000E+00
#rwgt            1           1   3.2923536153757010E-002           2      213934           0
</event>
<event>
      5   9999  3.19816E-02  2.16960E+01 -1.00000E+00  1.63504E-01
      21    -1     0     0   511   501  0.000000000E+00  0.000000000E+00  1.318301771E+03  1.318301771E+03  0.000000000E+00  0.00000E+00  9.000E+00
      21    -1     0     0   501   502  0.000000000E+00  0.000000000E+00 -4.867159918E+01  4.867159918E+01  0.000000000E+00  0.00000E+00  9.000E+00
      25     1     1     2     0     0 -1.536425038E+02  4.012250632E+01  9.080543849E+02  9.302707135E+02  1.250000000E+02  0.00000E+00  9.000E+00
      25     1     1     2     0     0  1.736574579E+02 -4.849617113E+01  3.018510526E+02  3.731592813E+02  1.250000000E+02  0.00000E+00  9.000E+00
      21     1     1     2   511   502 -2.001495414E+01  8.373664806E+00  5.972473396E+01  6.354337493E+01  0.000000000E+00  0.00000E+00  9.000E+00
#rwgt            1           1   2.8280445630093499E-002           2      214039           0
</event>
<event>
      5   9999  3.19816E-02  9.52294E+01 -1.00000E+00  1.24790E-01
      21    -1     0     0   502   512  0.000000000E+00  0.000000000E+00  5.331015975E+02  5.331015975E+02  0.000000000E+00  0.00000E+00  9.000E+00
      21    -1     0     0   501   502  0.000000000E+00  0.000000000E+00 -3.797038141E+02  3.797038141E+02  0.000000000E+00  0.00000E+00  9.000E+00
      25     1     1     2     0     0  1.796742387E+02  2.631879995E+02 -1.907233636E+02  3.918560406E+02  1.250000000E+02  0.00000E+00  9.000E+00
      25     1     1     2     0     0 -2.023974151E+02 -1.707093792E+02  2.301182556E+02  3.724054475E+02  1.250000000E+02  0.00000E+00  9.000E+00
      21     1     1     2   501   512  2.272317640E+01 -9.247862027E+01  1.140028915E+02  1.485439235E+02  1.348699152E-06  0.00000E+00  9.000E+00
#rwgt            2          11   3.3078484433709983E-003           2      214468           0
</event>
<event>
      5   9999  3.19816E-02  3.72452E+01 -1.00000E+00  1.46789E-01
      21    -1     0     0   502   501  0.000000000E+00  0.000000000E+00  4.527348986E+01  4.527348986E+01  0.000000000E+00  0.00000E+00  9.000E+00
      21    -1     0     0   501   511  0.000000000E+00  0.000000000E+00 -1.946192013E+03  1.946192013E+03  0.000000000E+00  0.00000E+00  9.000E+00
      25     1     1     2     0     0 -4.489301174E+00 -1.595418332E+02 -1.287125731E+03  1.302993246E+03  1.250000000E+02  0.00000E+00  9.000E+00
      25     1     1     2     0     0  3.722116733E+00  1.223045816E+02 -1.727006779E+02  2.458104737E+02  1.250000000E+02  0.00000E+00  9.000E+00
      21     1     1     2   502   511  7.671844411E-01  3.723725158E+01 -4.410921140E+02  4.426617834E+02  5.394796609E-06  0.00000E+00  9.000E+00
#rwgt            1           1   3.9917752876277073E-002           2      214488           0
</event>
<event>
      5   9999  3.19816E-02  1.69428E+01 -1.00000E+00  1.72541E-01
       1    -1     0     0   502     0  0.000000000E+00  0.000000000E+00  1.499546053E+03  1.499546053E+03  0.000000000E+00  0.00000E+00  9.000E+00
      21    -1     0     0   501   502  0.000000000E+00  0.000000000E+00 -1.205061768E+02  1.205061768E+02  0.000000000E+00  0.00000E+00  9.000E+00
      25     1     1     2     0     0 -1.246996247E+02  1.303182842E+02  4.541652222E+02  5.044045010E+02  1.250000000E+02  0.00000E+00  9.000E+00
      25     1     1     2     0     0  1.387781694E+02 -1.397444409E+02  4.742917022E+01  2.380386843E+02  1.250000000E+02  0.00000E+00  9.000E+00
       1     1     1     2   501     0 -1.407854469E+01  9.426156683E+00  8.774454842E+02  8.776090449E+02  1.078959322E-05  0.00000E+00  9.000E+00
#rwgt            1           1   2.6549144032548686E-002           2      214567           0
</event>
<event>
      5   9999  3.19816E-02  2.27823E+01 -1.00000E+00  1.61833E-01
      21    -1     0     0   502   501  0.000000000E+00  0.000000000E+00  5.810394119E+02  5.810394119E+02  0.000000000E+00  0.00000E+00  9.000E+00
      21    -1     0     0   511   502  0.000000000E+00  0.000000000E+00 -7.913389540E+02  7.913389540E+02  0.000000000E+00  0.00000E+00  9.000E+00
      25     1     1     2     0     0  3.184142610E+02  2.971434251E+02 -5.823178356E+02  7.378352922E+02  1.250000000E+02  0.00000E+00  9.000E+00
      25     1     1     2     0     0 -3.361028304E+02 -3.115013255E+02  3.821197034E+02  6.096217320E+02  1.250000000E+02  0.00000E+00  9.000E+00
      21     1     1     2   511   501  1.768856937E+01  1.435790038E+01 -1.010140990E+01  2.492134169E+01  0.000000000E+00  0.00000E+00  9.000E+00
#rwgt            1           1   2.6150642085112273E-002           2      214795           0
</event>
<event>
      5   9999  3.19816E-02  3.80822E+01 -1.00000E+00  1.46176E-01
      21    -1     0     0   502   501  0.000000000E+00  0.000000000E+00  1.355343230E+02  1.355343230E+02  0.000000000E+00  0.00000E+00  9.000E+00
       2    -1     0     0   501     0  0.000000000E+00  0.000000000E+00 -2.142374120E+03  2.142374120E+03  0.000000000E+00  0.00000E+00  9.000E+00
      25     1     1     2     0     0 -2.302919706E+02 -1.506854644E+02 -2.624703824E+02  4.003201251E+02  1.250000000E+02  0.00000E+00  9.000E+00
      25     1     1     2     0     0  1.978989126E+02  1.306618335E+02 -2.042944952E+02  3.370426310E+02  1.250000000E+02  0.00000E+00  9.000E+00
       2     1     1     2   502     0  3.239305805E+01  2.002363097E+01 -1.540074920E+03  1.540545687E+03  0.000000000E+00  0.00000E+00  9.000E+00
#rwgt            1           1   2.6570171813303917E-002           2      215023           0
</event>
<event>
      5   9999  3.19816E-02  2.33031E+01 -1.00000E+00  1.61072E-01
      21    -1     0     0   502   511  0.000000000E+00  0.000000000E+00  1.790804165E+03  1.790804165E+03  0.000000000E+00  0.00000E+00  9.000E+00
      21    -1     0     0   501   502  0.000000000E+00  0.000000000E+00 -6.182097610E+01  6.182097610E+01  0.000000000E+00  0.00000E+00  9.000E+00
      25     1     1     2     0     0 -1.137558296E+02  3.103140973E+01  1.059392362E+03  1.073238330E+03  1.250000000E+02  0.00000E+00  9.000E+00
      25     1     1     2     0     0  9.050415215E+01 -3.257901879E+01  5.907405637E+01  1.684254677E+02  1.250000000E+02  0.00000E+00  9.000E+00
      21     1     1     2   501   511  2.325167742E+01  1.547609063E+00  6.105167712E+02  6.109613438E+02  0.000000000E+00  0.00000E+00  9.000E+00
#rwgt            1           1   2.7832105492120059E-002           2      215141           0
</event>
<event>
      5   9999  3.19816E-02  5.10243E+01 -1.00000E+00  1.38575E-01
      21    -1     0     0   502   501  0.000000000E+00  0.000000000E+00  8.831000019E+02  8.831000019E+02  0.000000000E+00  0.00000E+00  9.000E+00
      21    -1     0     0   512   502  0.000000000E+00  0.000000000E+00 -7.130752287E+02  7.130752287E+02  0.000000000E+00  0.00000E+00  9.000E+00
      25     1     1     2     0     0 -5.719323565E+02 -1.662919370E+02 -1.127121227E+02  6.189415572E+02  1.250000000E+02  0.00000E+00  9.000E+00
      25     1     1     2     0     0  6.198788439E+02  1.488387752E+02  4.578964857E+02  7.947936548E+02  1.250000000E+02  0.00000E+00  9.000E+00
      21     1     1     2   512   501 -4.794648743E+01  1.745316183E+01 -1.751595897E+02  1.824400185E+02  2.697398305E-06  0.00000E+00  9.000E+00
#rwgt            1           1   2.6778477443471171E-002           2      215271           0
</event>
<event>
      5   9999  3.19816E-02  9.52166E+01 -1.00000E+00  1.24793E-01
      21    -1     0     0   502   501  0.000000000E+00  0.000000000E+00  3.379400962E+02  3.379400962E+02  0.000000000E+00  0.00000E+00  9.000E+00
      -2    -1     0     0     0   502  0.000000000E+00  0.000000000E+00 -9.233707408E+02  9.233707408E+02  0.000000000E+00  0.00000E+00  9.000E+00
      25     1     1     2     0     0 -3.165753549E+02 -1.720955102E+02  1.288882807E+02  4.025841637E+02  1.250000000E+02  0.00000E+00  9.000E+00
      25     1     1     2     0     0  3.249984109E+02  7.725219208E+01 -4.288089975E+02  5.577580341E+02  1.250000000E+02  0.00000E+00  9.000E+00
      -2     1     1     2     0   501 -8.423056012E+00  9.484331810E+01 -2.855099279E+02  3.009686392E+02  3.814697266E-06  0.00000E+00  9.000E+00
#rwgt            1           1   2.9818476447973256E-002           2      215365           0
</event>
<event>
      5   9999  3.19816E-02  1.04029E+02 -1.00000E+00  1.23061E-01
      21    -1     0     0   502   511  0.000000000E+00  0.000000000E+00  3.037181574E+02  3.037181574E+02  0.000000000E+00  0.00000E+00  9.000E+00
      21    -1     0     0   501   502  0.000000000E+00  0.000000000E+00 -8.075936623E+02  8.075936623E+02  0.000000000E+00  0.00000E+00  9.000E+00
      25     1     1     2     0     0  1.553293551E+02 -2.191958871E+02 -5.690793716E+02  6.415998571E+02  1.250000000E+02  0.00000E+00  9.000E+00
      25     1     1     2     0     0 -2.593141410E+02  2.161601685E+02  3.675593474E+01  3.618632904E+02  1.250000000E+02  0.00000E+00  9.000E+00
      21     1     1     2   501   511  1.039847859E+02  3.035718602E+00  2.844793184E+01  1.078486723E+02  1.118282261E-06  0.00000E+00  9.000E+00
#rwgt            1           1   2.8439420565645888E-002           2      215420           0
</event>
<event>
      5   9999  3.19816E-02  1.41672E+01 -1.00000E+00  1.79753E-01
      21    -1     0     0   502   501  0.000000000E+00  0.000000000E+00  4.713673401E+02  4.713673401E+02  0.000000000E+00  0.00000E+00  9.000E+00
      21    -1     0     0   501   512  0.000000000E+00  0.000000000E+00 -1.188623717E+02  1.188623717E+02  0.000000000E+00  0.00000E+00  9.000E+00
      25     1     1     2     0     0  1.350027859E+02  1.104245414E+02  2.742678100E+02  3.482343509E+02  1.250000000E+02  0.00000E+00  9.000E+00
      25     1     1     2     0     0 -1.218810180E+02 -1.157658637E+02  8.528088641E+01  2.261737105E+02  1.250000000E+02  0.00000E+00  9.000E+00
      21     1     1     2   502   512 -1.312176785E+01  5.341322282E+00 -7.043728028E+00  1.582165035E+01  3.039252468E-07  0.00000E+00  9.000E+00
#rwgt            1           1   2.2498474340176336E-002           2      215472           0
</event>
<event>
      5   9999  3.19816E-02  1.50170E+02 -1.00000E+00  1.16374E-01
      21    -1     0     0   502   501  0.000000000E+00  0.000000000E+00  5.422086100E+02  5.422086100E+02  0.000000000E+00  0.00000E+00  9.000E+00
      21    -1     0     0   511   502  0.000000000E+00  0.000000000E+00 -2.645944461E+02  2.645944461E+02  0.000000000E+00  0.00000E+00  9.000E+00
      25     1     1     2     0     0  3.930761650E+01 -2.168687787E+02  2.432754567E+02  3.512621581E+02  1.250000000E+02  0.00000E+00  9.000E+00
      25     1     1     2     0     0 -1.063512257E+02  8.249553568E+01  1.721298875E+02  2.517335790E+02  1.250000000E+02  0.00000E+00  9.000E+00
      21     1     1     2   511   501  6.704360916E+01  1.343732430E+02 -1.377911803E+02  2.038073191E+02  3.303624740E-06  0.00000E+00  9.000E+00
#rwgt            1           1   2.5856477547023169E-002           2      215624           0
</event>
<event>
      5   9999  3.19816E-02  1.52715E+01 -1.00000E+00  1.76653E-01
      21    -1     0     0   502   512  0.000000000E+00  0.000000000E+00  1.058439426E+02  1.058439426E+02  0.000000000E+00  0.00000E+00  9.000E+00
      21    -1     0     0   501   502  0.000000000E+00  0.000000000E+00 -3.743410624E+03  3.743410624E+03  0.000000000E+00  0.00000E+00  9.000E+00
      25     1     1     2     0     0 -3.994990310E+02  3.171314964E+02 -2.772831975E+03  2.822125798E+03  1.250000000E+02  0.00000E+00  9.000E+00
      25     1     1     2     0     0  4.147138728E+02 -3.184453618E+02 -8.510041043E+02  1.006592286E+03  1.250000000E+02  0.00000E+00  9.000E+00
      21     1     1     2   501   512 -1.521484188E+01  1.313865395E+00 -1.373060185E+01  2.053648175E+01  6.078504936E-07  0.00000E+00  9.000E+00
#rwgt            1           1   1.9803505693936858E-002           2      215716           0
</event>
<event>
      5   9999  3.19816E-02  2.55186E+02 -1.00000E+00  1.07926E-01
      21    -1     0     0   502   501  0.000000000E+00  0.000000000E+00  8.412153798E+02  8.412153798E+02  0.000000000E+00  0.00000E+00  9.000E+00
      -1    -1     0     0     0   502  0.000000000E+00  0.000000000E+00 -8.012880771E+02  8.012880771E+02  0.000000000E+00  0.00000E+00  9.000E+00
      25     1     1     2     0     0  5.697280145E+02 -5.387126436E+02  8.538286458E+01  7.985715725E+02  1.250000000E+02  0.00000E+00  9.000E+00
      25     1     1     2     0     0 -3.504389018E+02  4.082054790E+02 -1.433298021E+02  5.706203372E+02  1.250000000E+02  0.00000E+00  9.000E+00
      -1     1     1     2     0   501 -2.192891126E+02  1.305071646E+02  9.787424021E+01  2.733115472E+02  3.814697266E-06  0.00000E+00  9.000E+00
#rwgt            1           1   3.3592302751352859E-002           2      215971           0
</event>
<event>
      5   9999  3.19816E-02  3.31489E+01 -1.00000E+00  1.50089E-01
      21    -1     0     0   502   501  0.000000000E+00  0.000000000E+00  1.231069495E+03  1.231069495E+03  0.000000000E+00  0.00000E+00  9.000E+00
      21    -1     0     0   501   511  0.000000000E+00  0.000000000E+00 -2.599692248E+02  2.599692248E+02  0.000000000E+00  0.00000E+00  9.000E+00
      25     1     1     2     0     0 -1.964072870E+02 -4.461940224E+01 -1.720233262E+02  2.928886105E+02  1.250000000E+02  0.00000E+00  9.000E+00
      25     1     1     2     0     0  1.643702247E+02  5.313269914E+01  1.145252402E+03  1.164932924E+03  1.250000000E+02  0.00000E+00  9.000E+00
      21     1     1     2   502   511  3.203706224E+01 -8.513296903E+00 -2.128805101E+00  3.321718519E+01  6.237164002E-07  0.00000E+00  9.000E+00
#rwgt            1           1   3.4475556667766243E-002           2      216043           0
</event>
<event>
      5   9999  3.19816E-02  5.57588E+01 -1.00000E+00  1.36427E-01
      21    -1     0     0   512   501  0.000000000E+00  0.000000000E+00  7.810113622E+02  7.810113622E+02  0.000000000E+00  0.00000E+00  9.000E+00
      21    -1     0     0   501   502  0.000000000E+00  0.000000000E+00 -2.513175730E+02  2.513175730E+02  0.000000000E+00  0.00000E+00  9.000E+00
      25     1     1     2     0     0  8.460481096E+01  2.387435746E+02  5.820835878E+02  6.469951867E+02  1.250000000E+02  0.00000E+00  9.000E+00
      25     1     1     2     0     0 -3.195130197E+01 -2.570917711E+02 -1.073630252E+02  3.070323821E+02  1.250000000E+02  0.00000E+00  9.000E+00
      21     1     1     2   512   502 -5.265350899E+01  1.834819654E+01  5.497322659E+01  7.830136631E+01  6.743495762E-07  0.00000E+00  9.000E+00
#rwgt            1           1   2.8649740456872172E-002           2      216193           0
</event>
<event>
      5   9999  3.19816E-02  1.21219E+02 -1.00000E+00  1.20182E-01
      21    -1     0     0   502   511  0.000000000E+00  0.000000000E+00  7.918743619E+02  7.918743619E+02  0.000000000E+00  0.00000E+00  9.000E+00
      21    -1     0     0   501   502  0.000000000E+00  0.000000000E+00 -1.527380126E+02  1.527380126E+02  0.000000000E+00  0.00000E+00  9.000E+00
      25     1     1     2     0     0  2.330789840E+02  1.941052165E+02  3.163965294E+02  4.557789066E+02  1.250000000E+02  0.00000E+00  9.000E+00
      25     1     1     2     0     0 -1.164445726E+02 -1.610821789E+02  1.529928791E+02  2.802474405E+02  1.250000000E+02  0.00000E+00  9.000E+00
      21     1     1     2   501   511 -1.166344114E+02 -3.302303759E+01  1.697469408E+02  2.085860274E+02  1.907348633E-06  0.00000E+00  9.000E+00
#rwgt            1           1   2.9935887207100532E-002           2      216335           0
</event>
<event>
      5   9999  3.19816E-02  3.10166E+01 -1.00000E+00  1.52041E-01
      21    -1     0     0   502   512  0.000000000E+00  0.000000000E+00  1.216998623E+03  1.216998623E+03  0.000000000E+00  0.00000E+00  9.000E+00
      21    -1     0     0   501   502  0.000000000E+00  0.000000000E+00 -2.250555935E+02  2.250555935E+02  0.000000000E+00  0.00000E+00  9.000E+00
      25     1     1     2     0     0 -1.700586459E+02 -3.936068376E+00 -3.357019986E+01  2.137460970E+02  1.250000000E+02  0.00000E+00  9.000E+00
      25     1     1     2     0     0  2.005520936E+02 -1.736671641E+00  3.687547763E+01  2.391839441E+02  1.250000000E+02  0.00000E+00  9.000E+00
      21     1     1     2   501   512 -3.049344768E+01  5.672740017E+00  9.886377521E+02  9.891241758E+02  1.078959322E-05  0.00000E+00  9.000E+00
#rwgt            1           1   2.4696124642668005E-002           2      216433           0
</event>
<event>
      5   9999  3.19816E-02  2.35342E+01 -1.00000E+00  1.60742E-01
      21    -1     0     0   511   501  0.000000000E+00  0.000000000E+00  1.424911215E+03  1.424911215E+03  0.000000000E+00  0.00000E+00  9.000E+00
      21    -1     0     0   501   502  0.000000000E+00  0.000000000E+00 -9.811887777E+01  9.811887777E+01  0.000000000E+00  0.00000E+00  9.000E+00
      25     1     1     2     0     0 -1.419709225E+02 -2.697775407E+02  5.319670627E+02  6.257392589E+02  1.250000000E+02  0.00000E+00  9.000E+00
      25     1     1     2     0     0  1.486760647E+02  2.923363686E+02  5.573823089E+02  6.586844183E+02  1.250000000E+02  0.00000E+00  9.000E+00
      21     1     1     2   511   502 -6.705142220E+00 -2.255882783E+01  2.374429660E+02  2.386064160E+02  0.000000000E+00  0.00000E+00  9.000E+00
#rwgt            1           1   2.8320005999402272E-002           2      216577           0
</event>
<event>
      5   9999  3.19816E-02  1.10905E+01 -1.00000E+00  1.90700E-01
      21    -1     0     0   502   501  0.000000000E+00  0.000000000E+00  7.861758322E+01  7.861758322E+01  0.000000000E+00  0.00000E+00  9.000E+00
       2    -1     0     0   501     0  0.000000000E+00  0.000000000E+00 -3.900271569E+02  3.900271569E+02  0.000000000E+00  0.00000E+00  9.000E+00
      25     1     1     2     0     0 -4.385042675E+01  2.581986366E+01 -2.648045148E+02  2.972136544E+02  1.250000000E+02  0.00000E+00  9.000E+00
      25     1     1     2     0     0  4.098269742E+01 -3.653318653E+01 -1.429666921E+01  1.372721747E+02  1.250000000E+02  0.00000E+00  9.000E+00
       2     1     1     2   502     0  2.867729326E+00  1.071332287E+01 -3.230838966E+01  3.415891100E+01  6.743495762E-07  0.00000E+00  9.000E+00
#rwgt            1           1   3.2487574878347331E-002           2      216727           0
</event>
<event>
      5   9999  3.19816E-02  1.75013E+01 -1.00000E+00  1.71298E-01
      21    -1     0     0   502   511  0.000000000E+00  0.000000000E+00  9.221090790E+02  9.221090790E+02  0.000000000E+00  0.00000E+00  9.000E+00
      21    -1     0     0   501   502  0.000000000E+00  0.000000000E+00 -2.656434975E+02  2.656434975E+02  0.000000000E+00  0.00000E+00  9.000E+00
      25     1     1     2     0     0 -2.837982841E+02  1.051142046E+02  1.821090892E+02  3.746720999E+02  1.250000000E+02  0.00000E+00  9.000E+00
      25     1     1     2     0     0  2.973820979E+02 -9.407907902E+01 -2.370696426E+00  3.360321494E+02  1.250000000E+02  0.00000E+00  9.000E+00
      21     1     1     2   501   511 -1.358381375E+01 -1.103512555E+01  4.767271888E+02  4.770483272E+02  0.000000000E+00  0.00000E+00  9.000E+00
#rwgt            1           1   2.9259504578431208E-002           2      216844           0
</event>
<event>
      5   9999  3.19816E-02  2.49310E+02 -1.00000E+00  1.08271E-01
      21    -1     0     0   502   501  0.000000000E+00  0.000000000E+00  6.268300518E+02  6.268300518E+02  0.000000000E+00  0.00000E+00  9.000E+00
      21    -1     0     0   501   512  0.000000000E+00  0.000000000E+00 -1.007771966E+03  1.007771966E+03  0.000000000E+00  0.00000E+00  9.000E+00
      25     1     1     2     0     0  1.229187938E+02  1.388711369E+02  2.760737634E+02  3.552969819E+02  1.250000000E+02  0.00000E+00  9.000E+00
      25     1     1     2     0     0  1.218330898E+02 -9.141627428E+01  2.615738830E+02  3.274845542E+02  1.250000000E+02  0.00000E+00  9.000E+00
      21     1     1     2   502   512 -2.447518836E+02 -4.745486260E+01 -9.185895606E+02  9.518204817E+02  1.078959322E-05  0.00000E+00  9.000E+00
#rwgt            1           1   3.2794092843471408E-002           2      217054           0
</event>
<event>
      5   9999  3.19816E-02  4.44361E+02 -1.00000E+00  1.00330E-01
      21    -1     0     0   502   501  0.000000000E+00  0.000000000E+00  3.758923192E+03  3.758923192E+03  0.000000000E+00  0.00000E+00  9.000E+00
      21    -1     0     0   511   502  0.000000000E+00  0.000000000E+00 -5.400960866E+02  5.400960866E+02  0.000000000E+00  0.00000E+00  9.000E+00
      25     1     1     2     0     0 -1.206893675E+02 -8.287304101E+02  2.092733123E+03  2.257546664E+03  1.250000000E+02  0.00000E+00  9.000E+00
      25     1     1     2     0     0  4.393746637E+02  1.138401852E+03  6.424760327E+02  1.384705501E+03  1.250000000E+02  0.00000E+00  9.000E+00
      21     1     1     2   511   501 -3.186852963E+02 -3.096714422E+02  4.836179499E+02  6.567671137E+02  0.000000000E+00  0.00000E+00  9.000E+00
#rwgt            1           1   7.6486915593429058E-002           2      217090           0
</event>
<event>
      5   9999  3.19816E-02  1.68177E+01 -1.00000E+00  1.72828E-01
      21    -1     0     0   502   512  0.000000000E+00  0.000000000E+00  2.048288381E+03  2.048288381E+03  0.000000000E+00  0.00000E+00  9.000E+00
      21    -1     0     0   501   502  0.000000000E+00  0.000000000E+00 -4.526719246E+01  4.526719246E+01  0.000000000E+00  0.00000E+00  9.000E+00
      25     1     1     2     0     0  1.794336781E+01  1.080099485E+02  1.340284693E+02  2.134871050E+02  1.250000000E+02  0.00000E+00  9.000E+00
      25     1     1     2     0     0 -1.625345944E+01 -1.247425398E+02  1.811684425E+03  1.820343465E+03  1.250000000E+02  0.00000E+00  9.000E+00
      21     1     1     2   501   512 -1.689908372E+00  1.673259132E+01  5.730829492E+01  5.972500372E+01  0.000000000E+00  0.00000E+00  9.000E+00
#rwgt            1           1   2.5037683375252331E-002           2      217138           0
</event>
<event>
      5   9999  3.19816E-02  1.07756E+01 -1.00000E+00  1.92080E-01
      21    -1     0     0   511   501  0.000000000E+00  0.000000000E+00  2.130654764E+02  2.130654764E+02  0.000000000E+00  0.00000E+00  9.000E+00
      21    -1     0     0   501   502  0.000000000E+00  0.000000000E+00 -2.636216377E+02  2.636216377E+02  0.000000000E+00  0.00000E+00  9.000E+00
      25     1     1     2     0     0  1.149636467E+02  3.854756805E+01  8.404862024E+01  1.933694020E+02  1.250000000E+02  0.00000E+00  9.000E+00
      25     1     1     2     0     0 -1.244827934E+02 -3.349781371E+01 -1.694201180E+02  2.468729344E+02  1.250000000E+02  0.00000E+00  9.000E+00
      21     1     1     2   511   502  9.519146696E+00 -5.049754346E+00  3.481533640E+01  3.644477770E+01  0.000000000E+00  0.00000E+00  9.000E+00
#rwgt            1           1   2.8794599508840706E-002           2      217349           0
</event>
<event>
      5   9999  3.19816E-02  1.52506E+02 -1.00000E+00  1.16109E-01
      21    -1     0     0   512   501  0.000000000E+00  0.000000000E+00  2.376267655E+02  2.376267655E+02  0.000000000E+00  0.00000E+00  9.000E+00
      21    -1     0     0   501   502  0.000000000E+00  0.000000000E+00 -6.125434223E+02  6.125434223E+02  0.000000000E+00  0.00000E+00  9.000E+00
      25     1     1     2     0     0  2.399612485E+02 -5.299428477E+01 -4.316951178E+02  5.122259948E+02  1.250000000E+02  0.00000E+00  9.000E+00
      25     1     1     2     0     0 -8.749011088E+01  5.626655715E+01  8.398982933E+01  1.830293320E+02  1.250000000E+02  0.00000E+00  9.000E+00
      21     1     1     2   512   502 -1.524711377E+02 -3.272272388E+00 -2.721136837E+01  1.549148610E+02  3.337860107E-06  0.00000E+00  9.000E+00
#rwgt            1           1   2.8791255284325204E-002           2      217551           0
</event>
<event>
      5   9999  3.19816E-02  4.58848E+01 -1.00000E+00  1.41238E-01
       3    -1     0     0   502     0  0.000000000E+00  0.000000000E+00  5.968295877E+02  5.968295877E+02  0.000000000E+00  0.00000E+00  9.000E+00
      21    -1     0     0   501   502  0.000000000E+00  0.000000000E+00 -7.325835316E+02  7.325835316E+02  0.000000000E+00  0.00000E+00  9.000E+00
      25     1     1     2     0     0  3.101075652E+02  4.185100893E+02 -1.195049761E+02  5.488386248E+02  1.250000000E+02  0.00000E+00  9.000E+00
      25     1     1     2     0     0 -3.540595960E+02 -4.053330669E+02 -2.027245365E+02  5.885366007E+02  1.250000000E+02  0.00000E+00  9.000E+00
       3     1     1     2   501     0  4.395203084E+01 -1.317702240E+01  1.864755687E+02  1.920378938E+02  4.672030912E-06  0.00000E+00  9.000E+00
#rwgt            1           1   2.9214188455317036E-002           2      217609           0
</event>
<event>
      5   9999  3.19816E-02  1.04018E+02 -1.00000E+00  1.23063E-01
      21    -1     0     0   502   501  0.000000000E+00  0.000000000E+00  1.411160894E+02  1.411160894E+02  0.000000000E+00  0.00000E+00  9.000E+00
      21    -1     0     0   511   502  0.000000000E+00  0.000000000E+00 -8.359027659E+02  8.359027659E+02  0.000000000E+00  0.00000E+00  9.000E+00
      25     1     1     2     0     0  1.014584929E+01  2.011061350E+02 -1.082617300E+02  2.605613517E+02  1.250000000E+02  0.00000E+00  9.000E+00
      25     1     1     2     0     0 -9.262901092E+01 -2.644797072E+02 -4.543944498E+02  5.482964209E+02  1.250000000E+02  0.00000E+00  9.000E+00
      21     1     1     2   511   501  8.248316163E+01  6.337357219E+01 -1.321304966E+02  1.681610827E+02  1.907348633E-06  0.00000E+00  9.000E+00
#rwgt            1           1   2.6338610097143968E-002           2      217767           0
</event>
<event>
      5   9999  3.19816E-02  2.02824E+02 -1.00000E+00  1.11427E-01
      21    -1     0     0   502   501  0.000000000E+00  0.000000000E+00  1.467368481E+03  1.467368481E+03  0.000000000E+00  0.00000E+00  9.000E+00
      21    -1     0     0   501   512  0.000000000E+00  0.000000000E+00 -4.384865650E+02  4.384865650E+02  0.000000000E+00  0.00000E+00  9.000E+00
      25     1     1     2     0     0 -5.436502329E+02 -1.769914954E+02  1.004792383E+03  1.162804497E+03  1.250000000E+02  0.00000E+00  9.000E+00
      25     1     1     2     0     0  4.057071726E+02  3.256836452E+02  5.500591100E+01  5.378836276E+02  1.250000000E+02  0.00000E+00  9.000E+00
      21     1     1     2   502   512  1.379430603E+02 -1.486921498E+02 -3.091637786E+01  2.051669216E+02  3.371747881E-07  0.00000E+00  9.000E+00
#rwgt            2          11   5.6185523060577770E-003           2      217943           0
</event>
<event>
      5   9999  3.19816E-02  9.82618E+01 -1.00000E+00  1.24171E-01
      21    -1     0     0   502   501  0.000000000E+00  0.000000000E+00  6.567137663E+02  6.567137663E+02  0.000000000E+00  0.00000E+00  9.000E+00
       2    -1     0     0   501     0  0.000000000E+00  0.000000000E+00 -2.607538969E+03  2.607538969E+03  0.000000000E+00  0.00000E+00  9.000E+00
      25     1     1     2     0     0 -5.653282253E+01 -2.958773623E+02  5.184575077E+02  6.125051517E+02  1.250000000E+02  0.00000E+00  9.000E+00
      25     1     1     2     0     0  1.153913890E+02  3.745605293E+02 -3.796146338E+02  5.597705181E+02  1.250000000E+02  0.00000E+00  9.000E+00
       2     1     1     2   502     0 -5.885856648E+01 -7.868316697E+01 -2.089668077E+03  2.091977065E+03  3.051757812E-05  0.00000E+00  9.000E+00
#rwgt            1           1   2.7106053224618985E-002           2      217963           0
</event>
<event>
      5   9999  3.19816E-02  3.23670E+02 -1.00000E+00  1.04531E-01
       2    -1     0     0   502     0  0.000000000E+00  0.000000000E+00  2.802343520E+03  2.802343520E+03  0.000000000E+00  0.00000E+00  9.000E+00
      21    -1     0     0   501   502  0.000000000E+00  0.000000000E+00 -4.272690290E+02  4.272690290E+02  0.000000000E+00  0.00000E+00  9.000E+00
      25     1     1     2     0     0  4.107541885E+02 -1.415291903E+02 -1.445156083E+02  4.746148713E+02  1.250000000E+02  0.00000E+00  9.000E+00
      25     1     1     2     0     0 -7.038184027E+02  2.789189466E+02  1.493741968E+03  1.679299315E+03  1.250000000E+02  0.00000E+00  9.000E+00
       2     1     1     2   501     0  2.930642142E+02 -1.373897563E+02  1.025848131E+03  1.075698362E+03  0.000000000E+00  0.00000E+00  9.000E+00
#rwgt            2          18   1.7052772968792315E-003           2      218132           0
</event>
<event>
      5   9999  3.19840E-02  7.97244E+01 -1.00000E+00  1.28422E-01
      21    -1     0     0   511   501  0.000000000E+00  0.000000000E+00  1.296079545E+03  1.296079545E+03  0.000000000E+00  0.00000E+00  9.000E+00
      21    -1     0     0   501   502  0.000000000E+00  0.000000000E+00 -1.463299252E+03  1.463299252E+03  0.000000000E+00  0.00000E+00  9.000E+00
      25     1     1     2     0     0 -4.021665084E+02  3.907453011E+02  7.513738644E+02  9.458369177E+02  1.250000000E+02  0.00000E+00  9.000E+00
      25     1     1     2     0     0  4.776495121E+02 -4.164026698E+02 -1.285199087E+03  1.438367802E+03  1.250000000E+02  0.00000E+00  9.000E+00
      21     1     1     2   511   502 -7.548300370E+01  2.565736874E+01  3.666055155E+02  3.751740775E+02  5.394796609E-06  0.00000E+00  9.000E+00
#rwgt            1           1   7.7006621188417612E-002           2      218196           0
</event>
<event>
      5   9999  3.19816E-02  1.77193E+01 -1.00000E+00  1.70828E-01
      21    -1     0     0   512   501  0.000000000E+00  0.000000000E+00  2.451808026E+02  2.451808026E+02  0.000000000E+00  0.00000E+00  9.000E+00
      21    -1     0     0   501   502  0.000000000E+00  0.000000000E+00 -1.399220706E+03  1.399220706E+03  0.000000000E+00  0.00000E+00  9.000E+00
      25     1     1     2     0     0 -5.334391387E+02  1.365059275E+02 -6.824435166E+02  8.857456386E+02  1.250000000E+02  0.00000E+00  9.000E+00
      25     1     1     2     0     0  5.309090018E+02 -1.189682099E+02 -4.824852471E+02  7.378582634E+02  1.250000000E+02  0.00000E+00  9.000E+00
      21     1     1     2   512   502  2.530136929E+00 -1.753771761E+01  1.088886079E+01  2.079760613E+01  4.129530925E-07  0.00000E+00  9.000E+00
#rwgt            1           1   2.8007368373849907E-002           2      218296           0
</event>
<event>
      5   9999  3.19816E-02  2.82083E+01 -1.00000E+00  1.54921E-01
      21    -1     0     0   502   501  0.000000000E+00  0.000000000E+00  1.179753144E+03  1.179753144E+03  0.000000000E+00  0.00000E+00  9.000E+00
      21    -1     0     0   501   511  0.000000000E+00  0.000000000E+00 -1.871334063E+02  1.871334063E+02  0.000000000E+00  0.00000E+00  9.000E+00
      25     1     1     2     0     0  3.661109083E+02  9.125711366E+01  5.757361573E+02  6.996157380E+02  1.250000000E+02  0.00000E+00  9.000E+00
      25     1     1     2     0     0 -3.379060334E+02 -9.081903208E+01  4.747703517E+02  6.028768290E+02  1.250000000E+02  0.00000E+00  9.000E+00
      21     1     1     2   502   511 -2.820487489E+01 -4.380815768E-01 -5.788677092E+01  6.439398366E+01  2.236564522E-06  0.00000E+00  9.000E+00
#rwgt            1           1   2.7595685586109149E-002           2      218493           0
</event>
<event>
      5   9999  3.19816E-02  2.52530E+02 -1.00000E+00  1.08081E-01
      21    -1     0     0   502   501  0.000000000E+00  0.000000000E+00  3.951882179E+02  3.951882179E+02  0.000000000E+00  0.00000E+00  9.000E+00
      21    -1     0     0   512   502  0.000000000E+00  0.000000000E+00 -2.043598343E+03  2.043598343E+03  0.000000000E+00  0.00000E+00  9.000E+00
      25     1     1     2     0     0 -6.173535504E+01  3.640412480E+02  2.075639637E+02  4.416390872E+02  1.250000000E+02  0.00000E+00  9.000E+00
      25     1     1     2     0     0  2.861736491E+02 -2.482876109E+02 -1.549494693E+03  1.600031530E+03  1.250000000E+02  0.00000E+00  9.000E+00
      21     1     1     2   512   501 -2.244382941E+02 -1.157536370E+02 -3.064793964E+02  3.971159437E+02  3.814697266E-06  0.00000E+00  9.000E+00
#rwgt            1           1   3.6298940979230386E-002           2      218658           0
</event>
<event>
      5   9999  3.19816E-02  1.66690E+02 -1.00000E+00  1.14606E-01
      21    -1     0     0   511   501  0.000000000E+00  0.000000000E+00  8.220204834E+02  8.220204834E+02  0.000000000E+00  0.00000E+00  9.000E+00
      21    -1     0     0   501   502  0.000000000E+00  0.000000000E+00 -4.929712017E+02  4.929712017E+02  0.000000000E+00  0.00000E+00  9.000E+00
      25     1     1     2     0     0 -3.242687254E+02  3.264844655E+02  3.300939223E+02  5.799390572E+02  1.250000000E+02  0.00000E+00  9.000E+00
      25     1     1     2     0     0  4.003774566E+02 -1.781838451E+02 -1.804676443E+02  4.901481011E+02  1.250000000E+02  0.00000E+00  9.000E+00
      21     1     1     2   511   502 -7.610873119E+01 -1.483006205E+02  1.794230037E+02  2.449045268E+02  1.907348633E-06  0.00000E+00  9.000E+00
#rwgt            1           1   3.1638834707190311E-002           2      218740           0
</event>
<event>
      5   9999  3.19816E-02  2.01005E+01 -1.00000E+00  1.66190E-01
      21    -1     0     0   502   512  0.000000000E+00  0.000000000E+00  8.154188368E+01  8.154188368E+01  0.000000000E+00  0.00000E+00  9.000E+00
      21    -1     0     0   501   502  0.000000000E+00  0.000000000E+00 -4.073721925E+02  4.073721925E+02  0.000000000E+00  0.00000E+00  9.000E+00
      25     1     1     2     0     0  5.323016995E+01  4.853544377E+01 -1.789541674E+02  2.298667752E+02  1.250000000E+02  0.00000E+00  9.000E+00
      25     1     1     2     0     0 -3.513411320E+01 -5.728537253E+01 -1.744743318E+02  2.249051184E+02  1.250000000E+02  0.00000E+00  9.000E+00
      21     1     1     2   501   512 -1.809605675E+01  8.749928762E+00  2.759819038E+01  3.414218264E+01  8.920806376E-07  0.00000E+00  9.000E+00
#rwgt            1           1   2.8930743046043837E-002           2      218794           0
</event>
<event>
      5   9999  3.19816E-02  9.55311E+01 -1.00000E+00  1.24728E-01
      21    -1     0     0   502   501  0.000000000E+00  0.000000000E+00  2.400353259E+02  2.400353259E+02  0.000000000E+00  0.00000E+00  9.000E+00
      21    -1     0     0   511   502  0.000000000E+00  0.000000000E+00 -1.449861683E+03  1.449861683E+03  0.000000000E+00  0.00000E+00  9.000E+00
      25     1     1     2     0     0  3.888837088E+02  1.750039586E+02 -1.043532398E+03  1.134214173E+03  1.250000000E+02  0.00000E+00  9.000E+00
      25     1     1     2     0     0 -3.018123573E+02 -1.357004037E+02  1.141737324E+01  3.539218205E+02  1.250000000E+02  0.00000E+00  9.000E+00
      21     1     1     2   511   501 -8.707135145E+01 -3.930355491E+01 -1.777113318E+02  2.017610149E+02  2.697398305E-06  0.00000E+00  9.000E+00
#rwgt            1           1   2.8227004912365544E-002           2      218921           0
</event>
<event>
      5   9999  3.19816E-02  1.49800E+02 -1.00000E+00  1.16417E-01
      21    -1     0     0   502   512  0.000000000E+00  0.000000000E+00  3.946067215E+02  3.946067215E+02  0.000000000E+00  0.00000E+00  9.000E+00
      21    -1     0     0   501   502  0.000000000E+00  0.000000000E+00 -3.137919758E+02  3.137919758E+02  0.000000000E+00  0.00000E+00  9.000E+00
      25     1     1     2     0     0 -2.056165584E+02 -4.033711453E+01  6.928422623E+01  2.536346898E+02  1.250000000E+02  0.00000E+00  9.000E+00
      25     1     1     2     0     0  1.427080315E+02 -9.561307612E+01 -1.296823831E+02  2.488974951E+02  1.250000000E+02  0.00000E+00  9.000E+00
      21     1     1     2   501   512  6.290852687E+01  1.359501906E+02  1.412129025E+02  2.058665124E+02  1.907348633E-06  0.00000E+00  9.000E+00
#rwgt            1           1   2.6354241434911222E-002           2      219009           0
</event>
<event>
      5   9999  3.19816E-02  2.92459E+01 -1.00000E+00  1.53812E-01
      21    -1     0     0   502   501  0.000000000E+00  0.000000000E+00  1.323954966E+03  1.323954966E+03  0.000000000E+00  0.00000E+00  9.000E+00
      21    -1     0     0   501   511  0.000000000E+00  0.000000000E+00 -6.274858125E+02  6.274858125E+02  0.000000000E+00  0.00000E+00  9.000E+00
      25     1     1     2     0     0 -5.478435004E+02 -5.276121269E+02  8.345243587E+02  1.136029473E+03  1.250000000E+02  0.00000E+00  9.000E+00
      25     1     1     2     0     0  5.676645208E+02  5.061074233E+02 -1.474365205E+02  7.846975594E+02  1.250000000E+02  0.00000E+00  9.000E+00
      21     1     1     2   502   511 -1.982102042E+01  2.150470355E+01  9.381314805E+00  3.071374599E+01  4.768371582E-07  0.00000E+00  9.000E+00
#rwgt            1           1   3.2518518795409984E-002           2      219082           0
</event>
<event>
      5   9999  3.19816E-02  4.74224E+01 -1.00000E+00  1.40400E-01
      21    -1     0     0   502   512  0.000000000E+00  0.000000000E+00  1.895807711E+03  1.895807711E+03  0.000000000E+00  0.00000E+00  9.000E+00
      21    -1     0     0   501   502  0.000000000E+00  0.000000000E+00 -1.047049528E+02  1.047049528E+02  0.000000000E+00  0.00000E+00  9.000E+00
      25     1     1     2     0     0  2.651324380E+01  2.238813202E+02  1.807205009E+02  3.148185145E+02  1.250000000E+02  0.00000E+00  9.000E+00
      25     1     1     2     0     0 -5.358298481E+01 -1.849439701E+02  3.167434732E+02  3.911864468E+02  1.250000000E+02  0.00000E+00  9.000E+00
      21     1     1     2   501   512  2.706974100E+01 -3.893735008E+01  1.293638784E+03  1.294507702E+03  2.157918644E-05  0.00000E+00  9.000E+00
#rwgt            2          11   7.4041629570513955E-004           2      219372           0
</event>
<event>
      5   9999  3.19816E-02  6.00712E+01 -1.00000E+00  1.34676E-01
      21    -1     0     0   511   501  0.000000000E+00  0.000000000E+00  2.781678755E+02  2.781678755E+02  0.000000000E+00  0.00000E+00  9.000E+00
      21    -1     0     0   501   502  0.000000000E+00  0.000000000E+00 -8.740664083E+02  8.740664083E+02  0.000000000E+00  0.00000E+00  9.000E+00
      25     1     1     2     0     0 -8.196604324E+01 -1.067039540E+02  1.757961962E+02  2.542311323E+02  1.250000000E+02  0.00000E+00  9.000E+00
      25     1     1     2     0     0  5.037845901E+01  1.577996486E+02 -8.036159862E+02  8.299773319E+02  1.250000000E+02  0.00000E+00  9.000E+00
      21     1     1     2   511   502  3.158758423E+01 -5.109569458E+01  3.192125720E+01  6.802581968E+01  7.539457465E-07  0.00000E+00  9.000E+00
#rwgt            2          11   3.1949908158729196E-003           2      219392           0
</event>
<event>
      5   9999  3.19816E-02  5.12509E+01 -1.00000E+00  1.38466E-01
      21    -1     0     0   502   501  0.000000000E+00  0.000000000E+00  7.393178266E+02  7.393178266E+02  0.000000000E+00  0.00000E+00  9.000E+00
      21    -1     0     0   512   502  0.000000000E+00  0.000000000E+00 -1.404033630E+02  1.404033630E+02  0.000000000E+00  0.00000E+00  9.000E+00
      25     1     1     2     0     0 -8.251456333E+01 -4.202523893E+01  6.372248506E+02  6.559384758E+02  1.250000000E+02  0.00000E+00  9.000E+00
      25     1     1     2     0     0  3.177289734E+01  4.923222583E+01 -7.835882967E+01  1.587401501E+02  1.250000000E+02  0.00000E+00  9.000E+00
      21     1     1     2   512   501  5.074166599E+01 -7.206986900E+00  4.004844268E+01  6.504256367E+01  1.348699152E-06  0.00000E+00  9.000E+00
#rwgt            1           1   2.9700258908180417E-002           2      219412           0
</event>
<event>
      5   9999  3.19816E-02  7.44939E+01 -1.00000E+00  1.29867E-01
      21    -1     0     0   502   501  0.000000000E+00  0.000000000E+00  1.364220211E+03  1.364220211E+03  0.000000000E+00  0.00000E+00  9.000E+00
      21    -1     0     0   501   511  0.000000000E+00  0.000000000E+00 -8.028264689E+01  8.028264689E+01  0.000000000E+00  0.00000E+00  9.000E+00
      25     1     1     2     0     0 -6.658895276E+01 -5.026700304E+01  6.057173345E+02  6.240828066E+02  1.250000000E+02  0.00000E+00  9.000E+00
      25     1     1     2     0     0  1.099289473E+02  1.108556525E+02  7.113219853E+02  7.389027784E+02  1.250000000E+02  0.00000E+00  9.000E+00
      21     1     1     2   502   511 -4.333999457E+01 -6.058864944E+01 -3.310175558E+01  8.151727297E+01  1.966049969E-06  0.00000E+00  9.000E+00
#rwgt            1           1   3.6624656970516888E-002           2      219524           0
</event>
<event>
      5   9999  3.19816E-02  2.10708E+01 -1.00000E+00  1.64522E-01
      21    -1     0     0   502   501  0.000000000E+00  0.000000000E+00  1.060797258E+02  1.060797258E+02  0.000000000E+00  0.00000E+00  9.000E+00
       2    -1     0     0   501     0  0.000000000E+00  0.000000000E+00 -9.105536405E+02  9.105536405E+02  0.000000000E+00  0.00000E+00  9.000E+00
      25     1     1     2     0     0  1.328091395E+02  1.712388979E+02 -2.701396577E+02  3.681867222E+02  1.250000000E+02  0.00000E+00  9.000E+00
      25     1     1     2     0     0 -1.161936060E+02 -1.582811150E+02 -1.819677953E+02  2.954507471E+02  1.250000000E+02  0.00000E+00  9.000E+00
       2     1     1     2   502     0 -1.661553348E+01 -1.295778293E+01 -3.523664616E+02  3.529958971E+02  0.000000000E+00  0.00000E+00  9.000E+00
#rwgt            1           1   2.6565633269899712E-002           2      219572           0
</event>
<event>
      5   9999  3.19816E-02  1.27139E+02 -1.00000E+00  1.19313E-01
      21    -1     0     0   502   501  0.000000000E+00  0.000000000E+00  6.622190579E+02  6.622190579E+02  0.000000000E+00  0.00000E+00  9.000E+00
      21    -1     0     0   501   511  0.000000000E+00  0.000000000E+00 -5.244290526E+02  5.244290526E+02  0.000000000E+00  0.00000E+00  9.000E+00
      25     1     1     2     0     0  8.951133109E+01  4.482742065E+00  5.846079545E+02  6.045029643E+02  1.250000000E+02  0.00000E+00  9.000E+00
      25     1     1     2     0     0 -1.112571946E+01  9.561702794E+01 -4.247507502E+02  4.531055037E+02  1.250000000E+02  0.00000E+00  9.000E+00
      21     1     1     2   502   511 -7.838561164E+01 -1.000997700E+02 -2.206719899E+01  1.290396425E+02  2.477718555E-06  0.00000E+00  9.000E+00
#rwgt            1           1   2.9501817011361533E-002           2      219673           0
</event>
<event>
      5   9999  3.19816E-02  6.40662E+01 -1.00000E+00  1.33199E-01
      -1    -1     0     0     0   501  0.000000000E+00  0.000000000E+00  9.459079906E+01  9.459079906E+01  0.000000000E+00  0.00000E+00  9.000E+00
      21    -1     0     0   501   502  0.000000000E+00  0.000000000E+00 -1.896912580E+03  1.896912580E+03  0.000000000E+00  0.00000E+00  9.000E+00
      25     1     1     2     0     0  1.270075688E+02 -1.246172081E+01 -1.404307914E+03  1.415624221E+03  1.250000000E+02  0.00000E+00  9.000E+00
      25     1     1     2     0     0 -8.211343488E+01  5.816727384E+01 -4.597239754E+02  4.869262588E+02  1.250000000E+02  0.00000E+00  9.000E+00
      -1     1     1     2     0   502 -4.489413396E+01 -4.570555303E+01  6.171010849E+01  8.895289951E+01  3.438521648E-06  0.00000E+00  9.000E+00
#rwgt            1           1   8.1450204337547252E-002           2      219737           0
</event>
<event>
      5   9999  3.19816E-02  1.23013E+02 -1.00000E+00  1.19913E-01
      21    -1     0     0   502   501  0.000000000E+00  0.000000000E+00  8.003884716E+02  8.003884716E+02  0.000000000E+00  0.00000E+00  9.000E+00
      21    -1     0     0   501   511  0.000000000E+00  0.000000000E+00 -3.198444581E+02  3.198444581E+02  0.000000000E+00  0.00000E+00  9.000E+00
      25     1     1     2     0     0  2.018646712E+02 -3.393269210E+01  2.954110746E+02  3.805173795E+02  1.250000000E+02  0.00000E+00  9.000E+00
      25     1     1     2     0     0 -2.362588594E+02  1.520397249E+02  3.924959646E+02  4.986104781E+02  1.250000000E+02  0.00000E+00  9.000E+00
      21     1     1     2   502   511  3.439418819E+01 -1.181070328E+02 -2.073630257E+02  2.411050722E+02  4.672030912E-06  0.00000E+00  9.000E+00
#rwgt            1           1   3.3120854009494306E-002           2      219817           0
</event>
<event>
      5   9999  3.19816E-02  1.24566E+02 -1.00000E+00  1.19684E-01
      21    -1     0     0   512   501  0.000000000E+00  0.000000000E+00  7.882867973E+02  7.882867973E+02  0.000000000E+00  0.00000E+00  9.000E+00
      21    -1     0     0   501   502  0.000000000E+00  0.000000000E+00 -1.020950384E+03  1.020950384E+03  0.000000000E+00  0.00000E+00  9.000E+00
      25     1     1     2     0     0  1.928818065E+02  7.691352718E+02 -3.512114013E+02  8.762116788E+02  1.250000000E+02  0.00000E+00  9.000E+00
      25     1     1     2     0     0 -6.940422794E+01 -7.855666217E+02  7.918646770E+01  8.023885347E+02  1.250000000E+02  0.00000E+00  9.000E+00
      21     1     1     2   512   502 -1.234775786E+02  1.643134992E+01  3.936134712E+01  1.306369677E+02  2.821006671E-06  0.00000E+00  9.000E+00
#rwgt            1           1   3.5643436228288139E-002           2      219867           0
</event>
<event>
      5   9999  3.19816E-02  6.69715E+02 -1.00000E+00  9.53753E-02
      21    -1     0     0   502   501  0.000000000E+00  0.000000000E+00  3.259694339E+02  3.259694339E+02  0.000000000E+00  0.00000E+00  9.000E+00
      -1    -1     0     0     0   502  0.000000000E+00  0.000000000E+00 -1.554876764E+03  1.554876764E+03  0.000000000E+00  0.00000E+00  9.000E+00
      25     1     1     2     0     0 -1.742728310E+02  4.557882744E+02 -3.661024759E+02  6.227118062E+02  1.250000000E+02  0.00000E+00  9.000E+00
      25     1     1     2     0     0 -8.743094250E+01  1.606767191E+02 -3.517127765E+02  4.156778259E+02  1.250000000E+02  0.00000E+00  9.000E+00
      -1     1     1     2     0   501  2.617037735E+02 -6.164649935E+02 -5.110920775E+02  8.424565656E+02  1.525878906E-05  0.00000E+00  9.000E+00
#rwgt            2          10   9.2595853341991284E-005           2      219927           0
</event>
<event>
      5   9999  3.19816E-02  3.53075E+00 -1.00000E+00  2.76930E-01
      21    -1     0     0   502   501  0.000000000E+00  0.000000000E+00  1.211049276E+03  1.211049276E+03  0.000000000E+00  0.00000E+00  9.000E+00
      21    -1     0     0   511   502  0.000000000E+00  0.000000000E+00 -3.055917400E+02  3.055917400E+02  0.000000000E+00  0.00000E+00  9.000E+00
      25     1     1     2     0     0  3.940748856E+02 -3.725308818E+02  2.513682201E+02  6.106433128E+02  1.250000000E+02  0.00000E+00  9.000E+00
      25     1     1     2     0     0 -3.954694452E+02  3.757745544E+02  6.795179723E+02  8.803250948E+02  1.250000000E+02  0.00000E+00  9.000E+00
      21     1     1     2   511   501  1.394559545E+00 -3.243672594E+00 -2.542865688E+01  2.567260795E+01  0.000000000E+00  0.00000E+00  9.000E+00
#rwgt            1           1   2.8136243537756005E-002           2      219976           0
</event>
<event>
      5   9999  3.19816E-02  1.73100E+01 -1.00000E+00  1.71717E-01
      21    -1     0     0   502   501  0.000000000E+00  0.000000000E+00  4.022713481E+01  4.022713481E+01  0.000000000E+00  0.00000E+00  9.000E+00
      21    -1     0     0   512   502  0.000000000E+00  0.000000000E+00 -9.143917303E+02  9.143917303E+02  0.000000000E+00  0.00000E+00  9.000E+00
      25     1     1     2     0     0 -2.009751314E+01  1.191088963E+02 -3.918613964E+02  4.286854245E+02  1.250000000E+02  0.00000E+00  9.000E+00
      25     1     1     2     0     0  3.543821334E+01 -1.271276558E+02 -3.693032875E+02  4.116153860E+02  1.250000000E+02  0.00000E+00  9.000E+00
      21     1     1     2   512   501 -1.534070020E+01  8.018759550E+00 -1.129999115E+02  1.143180545E+02  1.348699152E-06  0.00000E+00  9.000E+00
#rwgt            1           1   2.8911721471972369E-002           2      220435           0
</event>
<event>
      5   9999  3.19816E-02  2.10045E+02 -1.00000E+00  1.10879E-01
      21    -1     0     0   502   501  0.000000000E+00  0.000000000E+00  7.128008607E+01  7.128008607E+01  0.000000000E+00  0.00000E+00  9.000E+00
      21    -1     0     0   511   502  0.000000000E+00  0.000000000E+00 -1.443359305E+03  1.443359305E+03  0.000000000E+00  0.00000E+00  9.000E+00
      25     1     1     2     0     0 -1.218843819E+02  1.722680129E+02 -7.079705597E+02  7.492525503E+02  1.250000000E+02  0.00000E+00  9.000E+00
      25     1     1     2     0     0 -2.712573623E+01 -2.423071569E+01 -1.022138973E+02  1.655162045E+02  1.250000000E+02  0.00000E+00  9.000E+00
      21     1     1     2   511   501  1.490101181E+02 -1.480372972E+02 -5.618947617E+02  5.998706359E+02  1.078959322E-05  0.00000E+00  9.000E+00
#rwgt            1           1   2.7410406130638137E-002           2      220546           0
</event>
<event>
      5   9999  3.19816E-02  2.48907E+02 -1.00000E+00  1.08295E-01
      21    -1     0     0   502   501  0.000000000E+00  0.000000000E+00  2.097049537E+03  2.097049537E+03  0.000000000E+00  0.00000E+00  9.000E+00
      21    -1     0     0   512   502  0.000000000E+00  0.000000000E+00 -6.405261227E+02  6.405261227E+02  0.000000000E+00  0.00000E+00  9.000E+00
      25     1     1     2     0     0  4.572625299E+02 -7.484626672E+02  5.101261594E+02  1.022320441E+03  1.250000000E+02  0.00000E+00  9.000E+00
      25     1     1     2     0     0 -6.786070220E+02  8.623106159E+02  9.636933457E+02  1.465747916E+03  1.250000000E+02  0.00000E+00  9.000E+00
      21     1     1     2   512   501  2.213444922E+02 -1.138479487E+02 -1.729609052E+01  2.495073032E+02  4.915124924E-06  0.00000E+00  9.000E+00
#rwgt            1           1   4.1147115908736577E-002           2      220584           0
</event>
<event>
      5   9999  3.19816E-02  1.85022E+02 -1.00000E+00  1.12893E-01
       2    -1     0     0   502     0  0.000000000E+00  0.000000000E+00  1.922910381E+03  1.922910381E+03  0.000000000E+00  0.00000E+00  9.000E+00
      21    -1     0     0   501   502  0.000000000E+00  0.000000000E+00 -2.223956672E+02  2.223956672E+02  0.000000000E+00  0.00000E+00  9.000E+00
      25     1     1     2     0     0  4.102577921E+02  2.839259062E+02  3.904506665E+02  6.457569970E+02  1.250000000E+02  0.00000E+00  9.000E+00
      25     1     1     2     0     0 -5.083405175E+02 -1.270406403E+02  8.864064111E+02  1.037251528E+03  1.250000000E+02  0.00000E+00  9.000E+00
       2     1     1     2   501     0  9.808272534E+01 -1.568852659E+02  4.236576364E+02  4.622975238E+02  5.394796609E-06  0.00000E+00  9.000E+00
#rwgt            1           1   2.3457453815391584E-002           2      220697           0
</event>
<event>
      5   9999  3.19816E-02  8.16746E+01 -1.00000E+00  1.27916E-01
       2    -1     0     0   502     0  0.000000000E+00  0.000000000E+00  3.964852973E+02  3.964852973E+02  0.000000000E+00  0.00000E+00  9.000E+00
      21    -1     0     0   501   502  0.000000000E+00  0.000000000E+00 -3.299425031E+02  3.299425031E+02  0.000000000E+00  0.00000E+00  9.000E+00
      25     1     1     2     0     0  4.525524934E+01  7.191074320E+01  1.603318915E+02  2.203417982E+02  1.250000000E+02  0.00000E+00  9.000E+00
      25     1     1     2     0     0  3.543288188E+01 -8.456645540E+01 -2.702975001E+02  3.115970364E+02  1.250000000E+02  0.00000E+00  9.000E+00
       2     1     1     2   501     0 -8.068813121E+01  1.265571219E+01  1.765084028E+02  1.944889658E+02  2.697398305E-06  0.00000E+00  9.000E+00
#rwgt            1           1   2.8510276336221725E-002           2      220765           0
</event>
<event>
      5   9999  3.19816E-02  8.27438E+01 -1.00000E+00  1.27645E-01
      21    -1     0     0   502   501  0.000000000E+00  0.000000000E+00  9.844564599E+01  9.844564599E+01  0.000000000E+00  0.00000E+00  9.000E+00
       1    -1     0     0   501     0  0.000000000E+00  0.000000000E+00 -1.158391876E+03  1.158391876E+03  0.000000000E+00  0.00000E+00  9.000E+00
      25     1     1     2     0     0  2.496124839E+02 -3.328714157E+01 -6.430979338E+02  7.018649289E+02  1.250000000E+02  0.00000E+00  9.000E+00
      25     1     1     2     0     0 -2.213743456E+02  1.110633693E+02 -2.742231348E+02  3.900833251E+02  1.250000000E+02  0.00000E+00  9.000E+00
       1     1     1     2   502     0 -2.823813829E+01 -7.777622776E+01 -1.426251618E+02  1.648892684E+02  1.907348633E-06  0.00000E+00  9.000E+00
#rwgt            2          12   1.0463693188023349E-004           2      220874           0
</event>
<event>
      5   9999  3.19816E-02  4.08280E+01 -1.00000E+00  1.44290E-01
      21    -1     0     0   511   501  0.000000000E+00  0.000000000E+00  1.000757033E+02  1.000757033E+02  0.000000000E+00  0.00000E+00  9.000E+00
      21    -1     0     0   501   502  0.000000000E+00  0.000000000E+00 -1.012671836E+03  1.012671836E+03  0.000000000E+00  0.00000E+00  9.000E+00
      25     1     1     2     0     0 -2.110046269E+02  6.782748889E+01 -4.426555557E+02  5.105805145E+02  1.250000000E+02  0.00000E+00  9.000E+00
      25     1     1     2     0     0  2.476412851E+02 -4.980858823E+01 -4.830740165E+02  5.592786488E+02  1.250000000E+02  0.00000E+00  9.000E+00
      21     1     1     2   511   502 -3.663665828E+01 -1.801890066E+01  1.313343997E+01  4.288837554E+01  2.384185791E-07  0.00000E+00  9.000E+00
#rwgt            1           1   2.9604929733506521E-002           2      220893           0
</event>
<event>
      5   9999  3.19816E-02  1.26005E+02 -1.00000E+00  1.19475E-01
      21    -1     0     0   502   501  0.000000000E+00  0.000000000E+00  1.428956842E+02  1.428956842E+02  0.000000000E+00  0.00000E+00  9.000E+00
      21    -1     0     0   501   512  0.000000000E+00  0.000000000E+00 -2.974463828E+03  2.974463828E+03  0.000000000E+00  0.00000E+00  9.000E+00
      25     1     1     2     0     0 -4.540765867E+02  2.292524652E+02 -1.364365894E+03  1.461458700E+03  1.250000000E+02  0.00000E+00  9.000E+00
      25     1     1     2     0     0  4.432743443E+02 -1.037112760E+02 -5.279751099E+02  7.082590556E+02  1.250000000E+02  0.00000E+00  9.000E+00
      21     1     1     2   502   512  1.080224237E+01 -1.255411892E+02 -9.392271398E+02  9.476417566E+02  1.078959322E-05  0.00000E+00  9.000E+00
#rwgt            1           1   2.4383581518004949E-002           2      221058           0
</event>
<event>
      5   9999  3.19816E-02  1.30660E+02 -1.00000E+00  1.18820E-01
      21    -1     0     0   502   501  0.000000000E+00  0.000000000E+00  2.984787455E+02  2.984787455E+02  0.000000000E+00  0.00000E+00  9.000E+00
      21    -1     0     0   501   511  0.000000000E+00  0.000000000E+00 -1.195213906E+03  1.195213906E+03  0.000000000E+00  0.00000E+00  9.000E+00
      25     1     1     2     0     0  4.939773230E+02 -9.078934781E+01 -7.678525452E+02  9.260015294E+02  1.250000000E+02  0.00000E+00  9.000E+00
      25     1     1     2     0     0 -3.634341111E+02  8.527179240E+01 -1.434669290E+01  3.939371261E+02  1.250000000E+02  0.00000E+00  9.000E+00
      21     1     1     2   502   511 -1.305432119E+02  5.517555411E+00 -1.145359221E+02  1.737539958E+02  1.907348633E-06  0.00000E+00  9.000E+00
#rwgt            1           1   2.5956745191765617E-002           2      221154           0
</event>
<event>
      5   9999  3.19816E-02  3.35907E+02 -1.00000E+00  1.04021E-01
      21    -1     0     0   502   501  0.000000000E+00  0.000000000E+00  1.786015879E+03  1.786015879E+03  0.000000000E+00  0.00000E+00  9.000E+00
       2    -1     0     0   501     0  0.000000000E+00  0.000000000E+00 -5.202466347E+02  5.202466347E+02  0.000000000E+00  0.00000E+00  9.000E+00
      25     1     1     2     0     0 -8.682309175E+00 -3.495276330E+02  1.205498241E+03  1.261386522E+03  1.250000000E+02  0.00000E+00  9.000E+00
      25     1     1     2     0     0 -3.084689913E+02  2.388533112E+02  3.961291407E+02  5.698660535E+02  1.250000000E+02  0.00000E+00  9.000E+00
       2     1     1     2   502     0  3.171513004E+02  1.106743218E+02 -3.358581375E+02  4.750099382E+02  9.344061824E-06  0.00000E+00  9.000E+00
#rwgt            2          13   1.2238267266950630E-003           2      221363           0
</event>
<event>
      5   9999  3.19816E-02  4.18965E+02 -1.00000E+00  1.01084E-01
      21    -1     0     0   502   511  0.000000000E+00  0.000000000E+00  1.226904221E+03  1.226904221E+03  0.000000000E+00  0.00000E+00  9.000E+00
      21    -1     0     0   501   502  0.000000000E+00  0.000000000E+00 -6.352272540E+02  6.352272540E+02  0.000000000E+00  0.00000E+00  9.000E+00
      25     1     1     2     0     0 -3.967991237E+02  1.631418269E+02 -8.291682736E+01  4.544942250E+02  1.250000000E+02  0.00000E+00  9.000E+00
      25     1     1     2     0     0 -1.973905791E+01 -2.081750471E+02 -2.764024650E+02  3.684424016E+02  1.250000000E+02  0.00000E+00  9.000E+00
      21     1     1     2   501   511  4.165381816E+02  4.503322021E+01  9.509962589E+02  1.039194848E+03  1.078959322E-05  0.00000E+00  9.000E+00
#rwgt            2          11   3.4280493184161379E-003           2      221397           0
</event>
<event>
      5   9999  3.19816E-02  4.50580E+01 -1.00000E+00  1.41704E-01
      21    -1     0     0   502   501  0.000000000E+00  0.000000000E+00  5.834060316E+02  5.834060316E+02  0.000000000E+00  0.00000E+00  9.000E+00
      21    -1     0     0   501   512  0.000000000E+00  0.000000000E+00 -2.990741472E+02  2.990741472E+02  0.000000000E+00  0.00000E+00  9.000E+00
      25     1     1     2     0     0  2.131817592E+02 -2.276902298E+02 -4.152753579E+01  3.385835783E+02  1.250000000E+02  0.00000E+00  9.000E+00
      25     1     1     2     0     0 -2.123250313E+02  2.727400993E+02  3.356919593E+02  4.977782360E+02  1.250000000E+02  0.00000E+00  9.000E+00
      21     1     1     2   502   512 -8.567279660E-01 -4.504986945E+01 -9.832539137E+00  4.611836452E+01  5.840038640E-07  0.00000E+00  9.000E+00
#rwgt            1           1   2.9786711439331037E-002           2      221417           0
</event>
<event>
      5   9999  3.19816E-02  3.35712E+01 -1.00000E+00  1.49723E-01
      21    -1     0     0   511   501  0.000000000E+00  0.000000000E+00  2.166958768E+02  2.166958768E+02  0.000000000E+00  0.00000E+00  9.000E+00
      21    -1     0     0   501   502  0.000000000E+00  0.000000000E+00 -1.049424321E+03  1.049424321E+03  0.000000000E+00  0.00000E+00  9.000E+00
      25     1     1     2     0     0 -1.732539698E+02  3.735138470E+02 -3.720378373E+02  5.688292225E+02  1.250000000E+02  0.00000E+00  9.000E+00
      25     1     1     2     0     0  1.647171990E+02 -3.410461694E+02 -5.038581462E+02  6.426058487E+02  1.250000000E+02  0.00000E+00  9.000E+00
      21     1     1     2   511   502  8.536770796E+00 -3.246767767E+01  4.316753973E+01  5.468512627E+01  6.743495762E-07  0.00000E+00  9.000E+00
#rwgt            1           1   9.5898390276942264E-003           2      221531           0
</event>
<event>
      5   9999  3.19816E-02  1.78864E+02 -1.00000E+00  1.13443E-01
      21    -1     0     0   502   501  0.000000000E+00  0.000000000E+00  2.839353381E+02  2.839353381E+02  0.000000000E+00  0.00000E+00  9.000E+00
       1    -1     0     0   501     0  0.000000000E+00  0.000000000E+00 -2.131884384E+03  2.131884384E+03  0.000000000E+00  0.00000E+00  9.000E+00
      25     1     1     2     0     0 -2.954630360E+02  1.384991248E+02 -8.213794476E+02  8.926195215E+02  1.250000000E+02  0.00000E+00  9.000E+00
      25     1     1     2     0     0  1.428274218E+02 -4.525371254E+01  2.024850046E+02  2.811987695E+02  1.250000000E+02  0.00000E+00  9.000E+00
       1     1     1     2   502     0  1.526356143E+02 -9.324541228E+01 -1.229054603E+03  1.242001431E+03  1.525878906E-05  0.00000E+00  9.000E+00
#rwgt            1           1   2.8219683812276374E-002           2      221720           0
</event>
<event>
      5   9999  3.19816E-02  1.05359E+02 -1.00000E+00  1.22817E-01
      21    -1     0     0   502   511  0.000000000E+00  0.000000000E+00  1.262784521E+03  1.262784521E+03  0.000000000E+00  0.00000E+00  9.000E+00
      21    -1     0     0   501   502  0.000000000E+00  0.000000000E+00 -8.900498571E+01  8.900498571E+01  0.000000000E+00  0.00000E+00  9.000E+00
      25     1     1     2     0     0  6.429590037E+01  4.262833008E+01  6.281643670E+00  1.470224349E+02  1.250000000E+02  0.00000E+00  9.000E+00
      25     1     1     2     0     0 -1.431023367E+02  2.730010517E+01  7.610322495E+02  7.848685618E+02  1.250000000E+02  0.00000E+00  9.000E+00
      21     1     1     2   501   511  7.880643631E+01 -6.992843525E+01  4.064656425E+02  4.198985103E+02  0.000000000E+00  0.00000E+00  9.000E+00
#rwgt            2          11   2.2110425699736124E-003           2      221784           0
</event>
<event>
      5   9999  3.19816E-02  1.95244E+01 -1.00000E+00  1.67236E-01
      21    -1     0     0   512   501  0.000000000E+00  0.000000000E+00  8.429976843E+02  8.429976843E+02  0.000000000E+00  0.00000E+00  9.000E+00
      21    -1     0     0   501   502  0.000000000E+00  0.000000000E+00 -1.079077056E+02  1.079077056E+02  0.000000000E+00  0.00000E+00  9.000E+00
      25     1     1     2     0     0  1.278625313E+02 -7.347017383E+01  3.955369828E+01  1.973225492E+02  1.250000000E+02  0.00000E+00  9.000E+00
      25     1     1     2     0     0 -1.430893489E+02  8.569088553E+01  3.490325019E+02  4.065294294E+02  1.250000000E+02  0.00000E+00  9.000E+00
      21     1     1     2   512   502  1.522681754E+01 -1.222071170E+01  3.465037786E+02  3.470534113E+02  5.394796609E-06  0.00000E+00  9.000E+00
#rwgt            1           1   2.8549686967386495E-002           2      221819           0
</event>
<event>
      5   9999  3.19816E-02  8.81810E+01 -1.00000E+00  1.26336E-01
      21    -1     0     0   511   501  0.000000000E+00  0.000000000E+00  3.814466220E+02  3.814466220E+02  0.000000000E+00  0.00000E+00  9.000E+00
      21    -1     0     0   501   502  0.000000000E+00  0.000000000E+00 -5.674788491E+02  5.674788491E+02  0.000000000E+00  0.00000E+00  9.000E+00
      25     1     1     2     0     0  3.313771120E+02 -5.100255997E+01 -3.196146651E+02  4.797818105E+02  1.250000000E+02  0.00000E+00  9.000E+00
      25     1     1     2     0     0 -2.586370955E+02  1.155019151E+00 -2.431737949E+01  2.882894660E+02  1.250000000E+02  0.00000E+00  9.000E+00
      21     1     1     2   511   502 -7.274001649E+01  4.984754082E+01  1.578998176E+02  1.808541946E+02  2.697398305E-06  0.00000E+00  9.000E+00
#rwgt            1           1   2.6518782881604086E-002           2      221927           0
</event>
<event>
      5   9999  3.19816E-02  2.37628E+02 -1.00000E+00  1.08989E-01
      21    -1     0     0   502   501  0.000000000E+00  0.000000000E+00  1.859588979E+02  1.859588979E+02  0.000000000E+00  0.00000E+00  9.000E+00
       2    -1     0     0   501     0  0.000000000E+00  0.000000000E+00 -1.272234499E+03  1.272234499E+03  0.000000000E+00  0.00000E+00  9.000E+00
      25     1     1     2     0     0  8.011202879E+01  1.196800566E+02 -6.443294060E+02  6.719573175E+02  1.250000000E+02  0.00000E+00  9.000E+00
      25     1     1     2     0     0 -2.543518048E+02 -2.812582175E+02 -3.515665074E+02  5.320009724E+02  1.250000000E+02  0.00000E+00  9.000E+00
       2     1     1     2   502     0  1.742397760E+02  1.615781610E+02 -9.037968771E+01  2.542351069E+02  3.015782986E-06  0.00000E+00  9.000E+00
#rwgt            1           1   3.0682337867089036E-002           2      221990           0
</event>
<event>
      5   9999  3.19816E-02  8.98166E+01 -1.00000E+00  1.25963E-01
      21    -1     0     0   502   501  0.000000000E+00  0.000000000E+00  2.188470541E+02  2.188470541E+02  0.000000000E+00  0.00000E+00  9.000E+00
       1    -1     0     0   501     0  0.000000000E+00  0.000000000E+00 -4.848125949E+02  4.848125949E+02  0.000000000E+00  0.00000E+00  9.000E+00
      25     1     1     2     0     0  1.130014604E+02  1.030865876E+01  7.081571770E+01  1.830722927E+02  1.250000000E+02  0.00000E+00  9.000E+00
      25     1     1     2     0     0 -8.774214459E+01  7.588289452E+01 -3.832376846E+02  4.194675440E+02  1.250000000E+02  0.00000E+00  9.000E+00
       1     1     1     2   502     0 -2.525931578E+01 -8.619155328E+01  4.645642606E+01  1.011198122E+02  1.784161275E-06  0.00000E+00  9.000E+00
#rwgt            2          12   1.6461407005997970E-005           2      222044           0
</event>
<event>
      5   9999  3.19816E-02  9.76261E+01 -1.00000E+00  1.24299E-01
      21    -1     0     0   502   511  0.000000000E+00  0.000000000E+00  6.087335985E+02  6.087335985E+02  0.000000000E+00  0.00000E+00  9.000E+00
      21    -1     0     0   501   502  0.000000000E+00  0.000000000E+00 -4.753599913E+02  4.753599913E+02  0.000000000E+00  0.00000E+00  9.000E+00
      25     1     1     2     0     0  1.490730886E+02  6.233646903E+01  2.139158697E+01  2.054050173E+02  1.250000000E+02  0.00000E+00  9.000E+00
      25     1     1     2     0     0 -8.678975962E+01 -1.375139185E+02 -3.504533538E+02  4.060604553E+02  1.250000000E+02  0.00000E+00  9.000E+00
      21     1     1     2   501   511 -6.228332902E+01  7.517744949E+01  4.624353740E+02  4.726281172E+02  5.394796609E-06  0.00000E+00  9.000E+00
#rwgt            1           1   3.1943980671700144E-002           2      222063           0
</event>
<event>
      5   9999  3.19816E-02  7.16055E+00 -1.00000E+00  2.14171E-01
      21    -1     0     0   502   512  0.000000000E+00  0.000000000E+00  1.190296020E+02  1.190296020E+02  0.000000000E+00  0.00000E+00  9.000E+00
      21    -1     0     0   501   502  0.000000000E+00  0.000000000E+00 -1.243736224E+03  1.243736224E+03  0.000000000E+00  0.00000E+00  9.000E+00
      25     1     1     2     0     0 -1.449844739E+02  3.040049875E+02 -3.272466986E+02  4.859577469E+02  1.250000000E+02  0.00000E+00  9.000E+00
      25     1     1     2     0     0  1.397927868E+02 -2.990734644E+02 -7.938308460E+02  8.687803936E+02  1.250000000E+02  0.00000E+00  9.000E+00
      21     1     1     2   501   512  5.191687039E+00 -4.931523102E+00 -3.629077765E+00  8.027685833E+00  1.519626234E-07  0.00000E+00  9.000E+00
#rwgt            1           1   3.1761072490435777E-002           2      222129           0
</event>
<event>
      5   9999  3.19816E-02  1.00045E+02 -1.00000E+00  1.23819E-01
      21    -1     0     0   502   501  0.000000000E+00  0.000000000E+00  5.746983659E+02  5.746983659E+02  0.000000000E+00  0.00000E+00  9.000E+00
      21    -1     0     0   501   511  0.000000000E+00  0.000000000E+00 -6.124362706E+02  6.124362706E+02  0.000000000E+00  0.00000E+00  9.000E+00
      25     1     1     2     0     0 -4.101544450E+02  3.896395541E+02 -1.614806689E+01  5.795959032E+02  1.250000000E+02  0.00000E+00  9.000E+00
      25     1     1     2     0     0  3.105205694E+02 -3.805809815E+02 -1.133628339E+01  5.069698401E+02  1.250000000E+02  0.00000E+00  9.000E+00
      21     1     1     2   502   511  9.963387565E+01 -9.058572667E+00 -1.025355436E+01  1.005688933E+02  1.353957259E-06  0.00000E+00  9.000E+00
#rwgt            1           1   2.6230142083199525E-002           2      222505           0
</event>
<event>
      5   9999  3.19816E-02  3.73347E+01 -1.00000E+00  1.46722E-01
      21    -1     0     0   502   501  0.000000000E+00  0.000000000E+00  7.117668222E+02  7.117668222E+02  0.000000000E+00  0.00000E+00  9.000E+00
       1    -1     0     0   501     0  0.000000000E+00  0.000000000E+00 -2.790253572E+03  2.790253572E+03  0.000000000E+00  0.00000E+00  9.000E+00
      25     1     1     2     0     0  1.651104528E+01 -9.477913253E+02 -6.483938417E+01  9.583371832E+02  1.250000000E+02  0.00000E+00  9.000E+00
      25     1     1     2     0     0  5.854814021E+00  9.776853307E+02 -6.525979016E+02  1.182121781E+03  1.250000000E+02  0.00000E+00  9.000E+00
       1     1     1     2   502     0 -2.236585930E+01 -2.989400537E+01 -1.361049464E+03  1.361561430E+03  2.642899792E-05  0.00000E+00  9.000E+00
#rwgt            1           1   3.3395079163395291E-002           2      222567           0
</event>
<event>
      5   9999  3.19816E-02  1.18436E+02 -1.00000E+00  1.20611E-01
      21    -1     0     0   502   501  0.000000000E+00  0.000000000E+00  1.134643133E+03  1.134643133E+03  0.000000000E+00  0.00000E+00  9.000E+00
      21    -1     0     0   501   511  0.000000000E+00  0.000000000E+00 -9.406279718E+02  9.406279718E+02  0.000000000E+00  0.00000E+00  9.000E+00
      25     1     1     2     0     0  3.745552471E+02  8.037068613E+02 -1.468274290E+02  9.074247329E+02  1.250000000E+02  0.00000E+00  9.000E+00
      25     1     1     2     0     0 -3.326632316E+02 -6.929268373E+02  5.319008225E+02  9.430566858E+02  1.250000000E+02  0.00000E+00  9.000E+00
      21     1     1     2   502   511 -4.189201555E+01 -1.107800240E+02 -1.910582326E+02  2.247896860E+02  2.697398305E-06  0.00000E+00  9.000E+00
#rwgt            1           1   2.4523902717548507E-002           2      222758           0
</event>
<event>
      5   9999  3.19816E-02  4.47652E+01 -1.00000E+00  1.41872E-01
      21    -1     0     0   502   512  0.000000000E+00  0.000000000E+00  2.216489048E+02  2.216489048E+02  0.000000000E+00  0.00000E+00  9.000E+00
      21    -1     0     0   501   502  0.000000000E+00  0.000000000E+00 -1.009080190E+03  1.009080190E+03  0.000000000E+00  0.00000E+00  9.000E+00
      25     1     1     2     0     0 -3.165037154E+02 -1.525956837E+02 -9.947281002E+01  3.859791244E+02  1.250000000E+02  0.00000E+00  9.000E+00
      25     1     1     2     0     0  3.124495334E+02  1.080144029E+02 -7.112963090E+02  7.942664927E+02  1.250000000E+02  0.00000E+00  9.000E+00
      21     1     1     2   501   512  4.054181988E+00  4.458128073E+01  2.333783426E+01  5.048347741E+01  5.840038640E-07  0.00000E+00  9.000E+00
#rwgt            1           1   3.0181895508127499E-002           2      222819           0
</event>
<event>
      5   9999  3.19816E-02  4.08829E+01 -1.00000E+00  1.44255E-01
      21    -1     0     0   502   501  0.000000000E+00  0.000000000E+00  9.962190640E+02  9.962190640E+02  0.000000000E+00  0.00000E+00  9.000E+00
      21    -1     0     0   501   511  0.000000000E+00  0.000000000E+00 -1.103924958E+03  1.103924958E+03  0.000000000E+00  0.00000E+00  9.000E+00
      25     1     1     2     0     0  2.846316518E+01  1.704465875E+02  2.432758370E+02  3.235279336E+02  1.250000000E+02  0.00000E+00  9.000E+00
      25     1     1     2     0     0 -6.927871393E+01 -1.681016516E+02  6.953343579E+02  7.295015934E+02  1.250000000E+02  0.00000E+00  9.000E+00
      21     1     1     2   502   511  4.081554875E+01 -2.344935877E+00 -1.046316089E+03  1.047114495E+03  1.525878906E-05  0.00000E+00  9.000E+00
#rwgt            1           1   2.7702052647002720E-002           2      222953           0
</event>
<event>
      5   9999  3.19816E-02  5.04403E+02 -1.00000E+00  9.87440E-02
      21    -1     0     0   512   501  0.000000000E+00  0.000000000E+00  2.623530381E+03  2.623530381E+03  0.000000000E+00  0.00000E+00  9.000E+00
      21    -1     0     0   501   502  0.000000000E+00  0.000000000E+00 -3.655775905E+02  3.655775905E+02  0.000000000E+00  0.00000E+00  9.000E+00
      25     1     1     2     0     0  1.233814772E+02 -3.339860284E+02  1.362107427E+03  1.413411228E+03  1.250000000E+02  0.00000E+00  9.000E+00
      25     1     1     2     0     0  3.501586907E+02  5.077152737E+02  1.054492702E+02  6.380677522E+02  1.250000000E+02  0.00000E+00  9.000E+00
      21     1     1     2   512   502 -4.735401679E+02 -1.737292452E+02  7.903960925E+02  9.376289907E+02  1.078959322E-05  0.00000E+00  9.000E+00
#rwgt            2          11   1.4362957362415113E-003           2      223088           0
</event>
<event>
      5   9999  3.19816E-02  3.47282E+01 -1.00000E+00  1.48752E-01
      21    -1     0     0   502   501  0.000000000E+00  0.000000000E+00  9.633150611E+01  9.633150611E+01  0.000000000E+00  0.00000E+00  9.000E+00
      21    -1     0     0   501   511  0.000000000E+00  0.000000000E+00 -1.500249049E+03  1.500249049E+03  0.000000000E+00  0.00000E+00  9.000E+00
      25     1     1     2     0     0 -1.449006805E+02 -1.614304884E+02 -1.636354515E+02  2.990945850E+02  1.250000000E+02  0.00000E+00  9.000E+00
      25     1     1     2     0     0  1.405226981E+02  1.269792996E+02 -4.277867128E+02  4.842487407E+02  1.250000000E+02  0.00000E+00  9.000E+00
      21     1     1     2   502   511  4.377982407E+00  3.445118878E+01 -8.124953785E+02  8.132372294E+02  1.525878906E-05  0.00000E+00  9.000E+00
#rwgt            1           1   2.6426840246516915E-002           2      223213           0
</event>
<event>
      5   9999  3.19816E-02  1.83189E+01 -1.00000E+00  1.69578E-01
      21    -1     0     0   502   512  0.000000000E+00  0.000000000E+00  3.344286744E+02  3.344286744E+02  0.000000000E+00  0.00000E+00  9.000E+00
      21    -1     0     0   501   502  0.000000000E+00  0.000000000E+00 -1.702374333E+02  1.702374333E+02  0.000000000E+00  0.00000E+00  9.000E+00
      25     1     1     2     0     0 -1.504627748E+02  4.276265753E+01 -4.694896589E+01  2.056620940E+02  1.250000000E+02  0.00000E+00  9.000E+00
      25     1     1     2     0     0  1.453966043E+02 -2.515823842E+01  1.936845382E+02  2.737002189E+02  1.250000000E+02  0.00000E+00  9.000E+00
      21     1     1     2   501   512  5.066170567E+00 -1.760441911E+01  1.745566884E+01  2.530379480E+01  4.129530925E-07  0.00000E+00  9.000E+00
#rwgt            1           1   2.9661336154201110E-002           2      223372           0
</event>
<event>
      5   9999  3.19816E-02  1.07356E+02 -1.00000E+00  1.22457E-01
       1    -1     0     0   502     0  0.000000000E+00  0.000000000E+00  7.840458152E+02  7.840458152E+02  0.000000000E+00  0.00000E+00  9.000E+00
      21    -1     0     0   501   502  0.000000000E+00  0.000000000E+00 -3.455012503E+02  3.455012503E+02  0.000000000E+00  0.00000E+00  9.000E+00
      25     1     1     2     0     0 -2.199680988E+02  6.981166171E+01  2.366047290E+02  3.533644442E+02  1.250000000E+02  0.00000E+00  9.000E+00
      25     1     1     2     0     0  1.131269658E+02 -5.930662900E+01 -2.524362854E+02  3.092960795E+02  1.250000000E+02  0.00000E+00  9.000E+00
       1     1     1     2   501     0  1.068411330E+02 -1.050503271E+01  4.543761212E+02  4.668865418E+02  5.394796609E-06  0.00000E+00  9.000E+00
#rwgt            1           1   2.5872094432869617E-002           2      223523           0
</event>
<event>
      5   9999  3.19816E-02  2.43743E+01 -1.00000E+00  1.59580E-01
      21    -1     0     0   502   501  0.000000000E+00  0.000000000E+00  4.661009112E+02  4.661009112E+02  0.000000000E+00  0.00000E+00  9.000E+00
      21    -1     0     0   501   511  0.000000000E+00  0.000000000E+00 -2.892602111E+02  2.892602111E+02  0.000000000E+00  0.00000E+00  9.000E+00
      25     1     1     2     0     0 -9.925534363E+00  2.902991865E+02  2.661852590E+02  4.133421416E+02  1.250000000E+02  0.00000E+00  9.000E+00
      25     1     1     2     0     0  2.722223740E+01 -2.731256203E+02 -6.700337147E+01  3.089548615E+02  1.250000000E+02  0.00000E+00  9.000E+00
      21     1     1     2   502   511 -1.729670304E+01 -1.717356628E+01 -2.234118744E+01  3.306411909E+01  4.768371582E-07  0.00000E+00  9.000E+00
#rwgt            1           1   2.7608904587307279E-002           2      223613           0
</event>
<event>
      5   9999  3.19816E-02  3.80950E+01 -1.00000E+00  1.46167E-01
      -3    -1     0     0     0   501  0.000000000E+00  0.000000000E+00  2.669692585E+02  2.669692585E+02  0.000000000E+00  0.00000E+00  9.000E+00
      21    -1     0     0   501   502  0.000000000E+00  0.000000000E+00 -6.381249572E+02  6.381249572E+02  0.000000000E+00  0.00000E+00  9.000E+00
      25     1     1     2     0     0  2.025165056E+02  8.251994824E+01 -7.643409711E+00  2.520037670E+02  1.250000000E+02  0.00000E+00  9.000E+00
      25     1     1     2     0     0 -2.260112305E+02 -5.253288180E+01 -4.706271394E+02  5.394030815E+02  1.250000000E+02  0.00000E+00  9.000E+00
      -3     1     1     2     0   502  2.349472494E+01 -2.998706644E+01  1.071148504E+02  1.136873671E+02  1.907348633E-06  0.00000E+00  9.000E+00
#rwgt            1           1   2.4783047091409889E-002           2      223730           0
</event>
<event>
      5   9999  3.19816E-02  7.23297E+00 -1.00000E+00  2.13564E-01
      21    -1     0     0   502   511  0.000000000E+00  0.000000000E+00  5.674526348E+02  5.674526348E+02  0.000000000E+00  0.00000E+00  9.000E+00
      21    -1     0     0   501   502  0.000000000E+00  0.000000000E+00 -1.924159986E+03  1.924159986E+03  0.000000000E+00  0.00000E+00  9.000E+00
      25     1     1     2     0     0 -1.096484587E+02  2.815220280E+02 -1.741652734E+03  1.772076940E+03  1.250000000E+02  0.00000E+00  9.000E+00
      25     1     1     2     0     0  1.160876687E+02 -2.848163218E+02 -2.516741976E+00  3.320060511E+02  1.250000000E+02  0.00000E+00  9.000E+00
      21     1     1     2   501   511 -6.439209996E+00  3.294293804E+00  3.874621246E+02  3.875296296E+02  5.394796609E-06  0.00000E+00  9.000E+00
#rwgt            1           1   2.8769957987543105E-002           2      223825           0
</event>
<event>
      5   9999  3.19816E-02  2.02850E+02 -1.00000E+00  1.11425E-01
      21    -1     0     0   502   501  0.000000000E+00  0.000000000E+00  1.078949450E+03  1.078949450E+03  0.000000000E+00  0.00000E+00  9.000E+00
      21    -1     0     0   512   502  0.000000000E+00  0.000000000E+00 -1.013790085E+02  1.013790085E+02  0.000000000E+00  0.00000E+00  9.000E+00
      25     1     1     2     0     0 -5.753029920E+01 -2.104028140E+01  6.263833837E+02  6.416646882E+02  1.250000000E+02  0.00000E+00  9.000E+00
      25     1     1     2     0     0 -1.238483815E+02 -6.978788153E+01  2.452770777E+02  3.098299773E+02  1.250000000E+02  0.00000E+00  9.000E+00
      21     1     1     2   512   501  1.813786807E+02  9.082816293E+01  1.059099805E+02  2.288337933E+02  4.672030912E-06  0.00000E+00  9.000E+00
#rwgt            2          11   1.1869456244647136E-002           2      224258           0
</event>
<event>
      5   9999  3.19816E-02  5.55316E+01 -1.00000E+00  1.36524E-01
      21    -1     0     0   511   501  0.000000000E+00  0.000000000E+00  2.125008886E+03  2.125008886E+03  0.000000000E+00  0.00000E+00  9.000E+00
      21    -1     0     0   501   502  0.000000000E+00  0.000000000E+00 -6.085062882E+02  6.085062882E+02  0.000000000E+00  0.00000E+00  9.000E+00
      25     1     1     2     0     0 -2.132592900E+02 -3.489190896E+02 -4.897480656E+02  6.501555380E+02  1.250000000E+02  0.00000E+00  9.000E+00
      25     1     1     2     0     0  2.681508516E+02  3.573261136E+02  1.406235973E+03  1.480780687E+03  1.250000000E+02  0.00000E+00  9.000E+00
      21     1     1     2   511   502 -5.489156157E+01 -8.407023978E+00  6.000146900E+02  6.025789490E+02  7.629394531E-06  0.00000E+00  9.000E+00
#rwgt            1           1   3.7120686533457396E-002           2      224278           0
</event>
<event>
      5   9999  3.19816E-02  7.73051E+01 -1.00000E+00  1.29074E-01
      21    -1     0     0   502   512  0.000000000E+00  0.000000000E+00  4.222175858E+01  4.222175858E+01  0.000000000E+00  0.00000E+00  9.000E+00
      21    -1     0     0   501   502  0.000000000E+00  0.000000000E+00 -2.081442142E+03  2.081442142E+03  0.000000000E+00  0.00000E+00  9.000E+00
      25     1     1     2     0     0  6.030232287E+01  1.707252700E+02 -1.310983612E+03  1.329318065E+03  1.250000000E+02  0.00000E+00  9.000E+00
      25     1     1     2     0     0 -1.260567941E+02 -1.300751369E+02 -6.412876188E+02  6.780004916E+02  1.250000000E+02  0.00000E+00  9.000E+00
      21     1     1     2   501   512  6.575447128E+01 -4.065013308E+01 -8.694915223E+01  1.163453432E+02  2.132480600E-06  0.00000E+00  9.000E+00
#rwgt            1           1   9.3162925139786912E-002           2      224439           0
</event>
<event>
      5   9999  3.19816E-02  3.18746E+01 -1.00000E+00  1.51234E-01
      21    -1     0     0   502   511  0.000000000E+00  0.000000000E+00  5.039171579E+02  5.039171579E+02  0.000000000E+00  0.00000E+00  9.000E+00
      21    -1     0     0   501   502  0.000000000E+00  0.000000000E+00 -3.198138981E+02  3.198138981E+02  0.000000000E+00  0.00000E+00  9.000E+00
      25     1     1     2     0     0  5.620463356E+01  2.076383235E+02  3.897857446E+02  4.624181667E+02  1.250000000E+02  0.00000E+00  9.000E+00
      25     1     1     2     0     0 -2.433391026E+01 -2.081348572E+02 -2.179404816E+02  3.271625154E+02  1.250000000E+02  0.00000E+00  9.000E+00
      21     1     1     2   501   511 -3.187072330E+01  4.965337207E-01  1.225799675E+01  3.415037385E+01  3.371747881E-07  0.00000E+00  9.000E+00
#rwgt            1           1   2.8510866320133249E-002           2      224547           0
</event>
<event>
      5   9999  3.19816E-02  5.57268E+01 -1.00000E+00  1.36441E-01
      21    -1     0     0   502   501  0.000000000E+00  0.000000000E+00  3.410449309E+02  3.410449309E+02  0.000000000E+00  0.00000E+00  9.000E+00
      21    -1     0     0   512   502  0.000000000E+00  0.000000000E+00 -5.301536478E+02  5.301536478E+02  0.000000000E+00  0.00000E+00  9.000E+00
      25     1     1     2     0     0 -1.745275859E+02 -3.230478079E+02 -3.522300538E+01  3.894681303E+02  1.250000000E+02  0.00000E+00  9.000E+00
      25     1     1     2     0     0  1.829336008E+02  2.679586952E+02 -3.378666840E+01  3.493323684E+02  1.250000000E+02  0.00000E+00  9.000E+00
      21     1     1     2   512   501 -8.406014944E+00  5.508911267E+01 -1.200990431E+02  1.323980800E+02  0.000000000E+00  0.00000E+00  9.000E+00
#rwgt            1           1   2.9251484564394116E-002           2      224684           0
</event>
<event>
      5   9999  3.19816E-02  5.38780E+01 -1.00000E+00  1.37249E-01
      21    -1     0     0   502   501  0.000000000E+00  0.000000000E+00  3.302364966E+02  3.302364966E+02  0.000000000E+00  0.00000E+00  9.000E+00
       1    -1     0     0   501     0  0.000000000E+00  0.000000000E+00 -2.322479108E+02  2.322479108E+02  0.000000000E+00  0.00000E+00  9.000E+00
      25     1     1     2     0     0 -1.221550695E+02 -1.097249375E+02 -1.010052831E+02  2.297574594E+02  1.250000000E+02  0.00000E+00  9.000E+00
      25     1     1     2     0     0  8.556444933E+01  1.492718986E+02  1.626354789E+02  2.677287315E+02  1.250000000E+02  0.00000E+00  9.000E+00
       1     1     1     2   502     0  3.659062017E+01 -3.954696106E+01  3.635839009E+01  6.499821646E+01  9.536743164E-07  0.00000E+00  9.000E+00
#rwgt            1           1   2.7319686799765659E-002           2      224772           0
</event>
<event>
      5   9999  3.19816E-02  8.45847E+01 -1.00000E+00  1.27189E-01
      21    -1     0     0   502   501  0.000000000E+00  0.000000000E+00  1.212077347E+03  1.212077347E+03  0.000000000E+00  0.00000E+00  9.000E+00
      21    -1     0     0   511   502  0.000000000E+00  0.000000000E+00 -1.342397279E+02  1.342397279E+02  0.000000000E+00  0.00000E+00  9.000E+00
      25     1     1     2     0     0 -9.372365856E+01 -2.723458372E+02  2.049597244E+02  3.749531542E+02  1.250000000E+02  0.00000E+00  9.000E+00
      25     1     1     2     0     0  1.141809238E+02  1.902722391E+02  8.446196497E+02  8.821837456E+02  1.250000000E+02  0.00000E+00  9.000E+00
      21     1     1     2   511   501 -2.045726523E+01  8.207359812E+01  2.825824498E+01  8.918017503E+01  7.539457465E-07  0.00000E+00  9.000E+00
#rwgt            1           1   2.8759353066864592E-002           2      224833           0
</event>
<event>
      5   9999  3.19816E-02  9.53094E+01 -1.00000E+00  1.24774E-01
      21    -1     0     0   502   512  0.000000000E+00  0.000000000E+00  5.891675054E+02  5.891675054E+02  0.000000000E+00  0.00000E+00  9.000E+00
      21    -1     0     0   501   502  0.000000000E+00  0.000000000E+00 -3.751188626E+02  3.751188626E+02  0.000000000E+00  0.00000E+00  9.000E+00
      25     1     1     2     0     0 -2.553375754E+02  3.246408231E+02  7.656204272E+01  4.382644040E+02  1.250000000E+02  0.00000E+00  9.000E+00
      25     1     1     2     0     0  3.052831260E+02 -2.434661312E+02  9.098025634E+01  4.199713694E+02  1.250000000E+02  0.00000E+00  9.000E+00
      21     1     1     2   501   512 -4.994555057E+01 -8.117469191E+01  4.650634374E+01  1.060505947E+02  1.348699152E-06  0.00000E+00  9.000E+00
#rwgt            1           1   2.9753449725537954E-002           2      224918           0
</event>
<event>
      5   9999  3.19816E-02  1.40557E+02 -1.00000E+00  1.17524E-01
      -2    -1     0     0     0   501  0.000000000E+00  0.000000000E+00  1.803853991E+03  1.803853991E+03  0.000000000E+00  0.00000E+00  9.000E+00
      21    -1     0     0   501   502  0.000000000E+00  0.000000000E+00 -2.361512400E+02  2.361512400E+02  0.000000000E+00  0.00000E+00  9.000E+00
      25     1     1     2     0     0  4.103875541E+02 -2.582483371E+02  3.194641493E+02  5.939633750E+02  1.250000000E+02  0.00000E+00  9.000E+00
      25     1     1     2     0     0 -5.282941080E+02  1.817342229E+02  8.598332025E+02  1.032986025E+03  1.250000000E+02  0.00000E+00  9.000E+00
      -2     1     1     2     0   502  1.179065539E+02  7.651411416E+01  3.884053993E+02  4.130558308E+02  5.394796609E-06  0.00000E+00  9.000E+00
#rwgt            1           1   3.3742388840737825E-002           2      224972           0
</event>
<event>
      5   9999  3.19816E-02  1.35189E+02 -1.00000E+00  1.18212E-01
      21    -1     0     0   511   501  0.000000000E+00  0.000000000E+00  8.598142741E+02  8.598142741E+02  0.000000000E+00  0.00000E+00  9.000E+00
      21    -1     0     0   501   502  0.000000000E+00  0.000000000E+00 -3.623019011E+02  3.623019011E+02  0.000000000E+00  0.00000E+00  9.000E+00
      25     1     1     2     0     0  3.724429951E+02  1.225287714E+02 -8.920978080E+01  4.210824972E+02  1.250000000E+02  0.00000E+00  9.000E+00
      25     1     1     2     0     0 -3.901105117E+02  1.150083652E+01  4.284736208E+02  5.929022890E+02  1.250000000E+02  0.00000E+00  9.000E+00
      21     1     1     2   511   502  1.766751657E+01 -1.340296079E+02  1.582485330E+02  2.081313891E+02  2.697398305E-06  0.00000E+00  9.000E+00
#rwgt            1           1   2.9320715129178568E-002           2      225047           0
</event>
<event>
      5   9999  3.19816E-02  7.68673E+01 -1.00000E+00  1.29195E-01
      21    -1     0     0   502   501  0.000000000E+00  0.000000000E+00  1.350416698E+03  1.350416698E+03  0.000000000E+00  0.00000E+00  9.000E+00
      21    -1     0     0   501   512  0.000000000E+00  0.000000000E+00 -6.018796616E+01  6.018796616E+01  0.000000000E+00  0.00000E+00  9.000E+00
      25     1     1     2     0     0 -1.753064194E+01 -1.776689774E+02  2.309759933E+02  3.175665260E+02  1.250000000E+02  0.00000E+00  9.000E+00
      25     1     1     2     0     0 -2.220546090E+01  1.118691241E+02  9.051218302E+02  9.208030793E+02  1.250000000E+02  0.00000E+00  9.000E+00
      21     1     1     2   502   512  3.973610285E+01  6.579985334E+01  1.541309081E+02  1.722350586E+02  3.814697266E-06  0.00000E+00  9.000E+00
#rwgt            1           1   2.5578085325898049E-002           2      225131           0
</event>
<event>
      5   9999  3.19816E-02  7.14728E+01 -1.00000E+00  1.30764E-01
      21    -1     0     0   502   501  0.000000000E+00  0.000000000E+00  5.605775381E+01  5.605775381E+01  0.000000000E+00  0.00000E+00  9.000E+00
      21    -1     0     0   501   511  0.000000000E+00  0.000000000E+00 -7.226906257E+02  7.226906257E+02  0.000000000E+00  0.00000E+00  9.000E+00
      25     1     1     2     0     0  5.989057486E+01  1.192424995E+02 -2.944305081E+02  3.465832927E+02  1.250000000E+02  0.00000E+00  9.000E+00
      25     1     1     2     0     0 -1.182988738E+01 -6.634135343E+01 -1.961602372E+02  2.421672151E+02  1.250000000E+02  0.00000E+00  9.000E+00
      21     1     1     2   502   511 -4.806068748E+01 -5.290114607E+01 -1.760421266E+02  1.899978717E+02  1.907348633E-06  0.00000E+00  9.000E+00
#rwgt            1           1   6.6855747156045239E-002           2      225210           0
</event>
<event>
      5   9999  3.19816E-02  6.25471E+01 -1.00000E+00  1.33746E-01
      21    -1     0     0   512   501  0.000000000E+00  0.000000000E+00  7.996712151E+02  7.996712151E+02  0.000000000E+00  0.00000E+00  9.000E+00
      21    -1     0     0   501   502  0.000000000E+00  0.000000000E+00 -8.362110379E+02  8.362110379E+02  0.000000000E+00  0.00000E+00  9.000E+00
      25     1     1     2     0     0 -3.863330958E+02  2.167102247E+02  2.606110256E+02  5.289231410E+02  1.250000000E+02  0.00000E+00  9.000E+00
      25     1     1     2     0     0  4.218784104E+02 -1.652449656E+02 -6.200499308E+02  7.780579724E+02  1.250000000E+02  0.00000E+00  9.000E+00
      21     1     1     2   512   502 -3.554531457E+01 -5.146525916E+01  3.228990824E+02  3.289011397E+02  5.394796609E-06  0.00000E+00  9.000E+00
#rwgt            1           1   2.6634942023289171E-002           2      225256           0
</event>
<event>
      5   9999  3.19816E-02  4.86265E+01 -1.00000E+00  1.39769E-01
      21    -1     0     0   502   501  0.000000000E+00  0.000000000E+00  1.177095275E+02  1.177095275E+02  0.000000000E+00  0.00000E+00  9.000E+00
      21    -1     0     0   511   502  0.000000000E+00  0.000000000E+00 -5.005244397E+02  5.005244397E+02  0.000000000E+00  0.00000E+00  9.000E+00
      25     1     1     2     0     0  1.665914327E+02 -9.314144925E+01 -2.672251804E+02  3.513720707E+02  1.250000000E+02  0.00000E+00  9.000E+00
      25     1     1     2     0     0 -1.233815208E+02  7.083809847E+01 -7.564281750E+01  2.039310465E+02  1.250000000E+02  0.00000E+00  9.000E+00
      21     1     1     2   511   501 -4.320991181E+01  2.230335078E+01 -3.994691422E+01  6.293085007E+01  1.348699152E-06  0.00000E+00  9.000E+00
#rwgt            1           1   2.7910734944778550E-002           2      225333           0
</event>
<event>
      5   9999  3.19816E-02  5.11337E+01 -1.00000E+00  1.38522E-01
      21    -1     0     0   502   512  0.000000000E+00  0.000000000E+00  2.543036018E+02  2.543036018E+02  0.000000000E+00  0.00000E+00  9.000E+00
      21    -1     0     0   501   502  0.000000000E+00  0.000000000E+00 -2.465752817E+02  2.465752817E+02  0.000000000E+00  0.00000E+00  9.000E+00
      25     1     1     2     0     0 -1.179936233E+02  1.270018625E+02  4.574493939E+01  2.185625029E+02  1.250000000E+02  0.00000E+00  9.000E+00
      25     1     1     2     0     0  1.213431023E+02 -7.597801401E+01 -8.921643845E+01  2.099556619E+02  1.250000000E+02  0.00000E+00  9.000E+00
      21     1     1     2   501   512 -3.349479069E+00 -5.102384846E+01  5.119981914E+01  7.236071864E+01  1.507891493E-06  0.00000E+00  9.000E+00
#rwgt            1           1   2.5603469065238429E-002           2      225409           0
</event>
<event>
      5   9999  3.19816E-02  5.31274E+01 -1.00000E+00  1.37589E-01
      21    -1     0     0   511   501  0.000000000E+00  0.000000000E+00  8.184350284E+01  8.184350284E+01  0.000000000E+00  0.00000E+00  9.000E+00
      21    -1     0     0   501   502  0.000000000E+00  0.000000000E+00 -1.290204231E+03  1.290204231E+03  0.000000000E+00  0.00000E+00  9.000E+00
      25     1     1     2     0     0  1.144161708E+02  2.063823784E+02 -2.863907939E+02  3.915730240E+02  1.250000000E+02  0.00000E+00  9.000E+00
      25     1     1     2     0     0 -1.037211270E+02 -1.543426485E+02 -8.915075070E+02  9.192335723E+02  1.250000000E+02  0.00000E+00  9.000E+00
      21     1     1     2   511   502 -1.069504382E+01 -5.203972989E+01 -3.046242706E+01  6.124113741E+01  1.215700987E-06  0.00000E+00  9.000E+00
#rwgt            1           1   2.7033770822701440E-002           2      225479           0
</event>
<event>
      5   9999  3.19816E-02  8.19891E+00 -1.00000E+00  2.06286E-01
      21    -1     0     0   502   501  0.000000000E+00  0.000000000E+00  5.407635282E+01  5.407635282E+01  0.000000000E+00  0.00000E+00  9.000E+00
      21    -1     0     0   501   512  0.000000000E+00  0.000000000E+00 -1.078641174E+03  1.078641174E+03  0.000000000E+00  0.00000E+00  9.000E+00
      25     1     1     2     0     0  7.653920166E+01  7.785211848E+01 -4.184899494E+02  4.501977782E+02  1.250000000E+02  0.00000E+00  9.000E+00
      25     1     1     2     0     0 -7.346638892E+01 -7.025080973E+01 -1.317496123E+02  2.081236337E+02  1.250000000E+02  0.00000E+00  9.000E+00
      21     1     1     2   502   512 -3.072812746E+00 -7.601308756E+00 -4.743252598E+02  4.743961152E+02  0.000000000E+00  0.00000E+00  9.000E+00
#rwgt            1           1   3.1366713446560987E-002           2      225624           0
</event>
<event>
      5   9999  3.19816E-02  5.52848E+01 -1.00000E+00  1.36631E-01
       2    -1     0     0   502     0  0.000000000E+00  0.000000000E+00  4.145512379E+03  4.145512379E+03  0.000000000E+00  0.00000E+00  9.000E+00
      21    -1     0     0   501   502  0.000000000E+00  0.000000000E+00 -1.395089504E+03  1.395089504E+03  0.000000000E+00  0.00000E+00  9.000E+00
      25     1     1     2     0     0  1.569060101E+03 -1.050147643E+03  5.380775501E+02  1.967209221E+03  1.250000000E+02  0.00000E+00  9.000E+00
      25     1     1     2     0     0 -1.615170730E+03  1.080647101E+03  7.141488674E+02  2.074176523E+03  1.250000000E+02  0.00000E+00  9.000E+00
       2     1     1     2   501     0  4.611062965E+01 -3.049945791E+01  1.498196457E+03  1.499216139E+03  3.051757812E-05  0.00000E+00  9.000E+00
#rwgt            1           1   1.8735245391904336E-002           2      225860           0
</event>
<event>
      5   9999  3.19816E-02  5.46994E+01 -1.00000E+00  1.36886E-01
      21    -1     0     0   502   501  0.000000000E+00  0.000000000E+00  1.472915906E+02  1.472915906E+02  0.000000000E+00  0.00000E+00  9.000E+00
      21    -1     0     0   511   502  0.000000000E+00  0.000000000E+00 -4.273156103E+02  4.273156103E+02  0.000000000E+00  0.00000E+00  9.000E+00
      25     1     1     2     0     0 -2.851467551E+01  2.816509035E+01  9.099120061E+01  1.597208741E+02  1.250000000E+02  0.00000E+00  9.000E+00
      25     1     1     2     0     0 -1.158297563E+01  9.039790435E+00 -2.993392326E+02  3.247227422E+02  1.250000000E+02  0.00000E+00  9.000E+00
      21     1     1     2   511   501  4.009765113E+01 -3.720488079E+01 -7.167598763E+01  9.016358457E+01  9.536743164E-07  0.00000E+00  9.000E+00
#rwgt            1           1   2.8121877282153818E-002           2      226063           0
</event>
<event>
      5   9999  3.19816E-02  1.24920E+02 -1.00000E+00  1.19632E-01
      21    -1     0     0   502   501  0.000000000E+00  0.000000000E+00  3.073046105E+02  3.073046105E+02  0.000000000E+00  0.00000E+00  9.000E+00
      21    -1     0     0   501   512  0.000000000E+00  0.000000000E+00 -3.127365598E+02  3.127365598E+02  0.000000000E+00  0.00000E+00  9.000E+00
      25     1     1     2     0     0  2.573175858E+00  1.873435419E+02 -1.093036246E+02  2.503527636E+02  1.250000000E+02  0.00000E+00  9.000E+00
      25     1     1     2     0     0  1.108174133E+02 -1.349250512E+02  1.162068517E+02  2.441603999E+02  1.250000000E+02  0.00000E+00  9.000E+00
      21     1     1     2   502   512 -1.133905892E+02 -5.241849071E+01 -1.233517638E+01  1.255280067E+02  2.198110689E-06  0.00000E+00  9.000E+00
#rwgt            1           1   2.3304565127301374E-002           2      226191           0
</event>
<event>
      5   9999  3.19816E-02  7.41789E+01 -1.00000E+00  1.29958E-01
      21    -1     0     0   502   501  0.000000000E+00  0.000000000E+00  1.861608805E+02  1.861608805E+02  0.000000000E+00  0.00000E+00  9.000E+00
      21    -1     0     0   511   502  0.000000000E+00  0.000000000E+00 -4.958502721E+02  4.958502721E+02  0.000000000E+00  0.00000E+00  9.000E+00
      25     1     1     2     0     0  4.226069377E+01 -1.773297479E+02 -1.051995028E+01  2.212859577E+02  1.250000000E+02  0.00000E+00  9.000E+00
      25     1     1     2     0     0  1.064625241E+01  2.293236339E+02 -1.701311386E+02  3.118850367E+02  1.250000000E+02  0.00000E+00  9.000E+00
      21     1     1     2   511   501 -5.290694618E+01 -5.199388604E+01 -1.290383027E+02  1.488401582E+02  2.697398305E-06  0.00000E+00  9.000E+00
#rwgt            1           1   3.2568552618171216E-002           2      226274           0
</event>
<event>
      5   9999  3.19816E-02  1.00731E+02 -1.00000E+00  1.23686E-01
      21    -1     0     0   502   501  0.000000000E+00  0.000000000E+00  7.389408703E+02  7.389408703E+02  0.000000000E+00  0.00000E+00  9.000E+00
      21    -1     0     0   512   502  0.000000000E+00  0.000000000E+00 -1.101388210E+02  1.101388210E+02  0.000000000E+00  0.00000E+00  9.000E+00
      25     1     1     2     0     0 -3.137129137E+01 -8.981637520E+01  5.261244447E+02  5.490747403E+02  1.250000000E+02  0.00000E+00  9.000E+00
      25     1     1     2     0     0  1.202712833E+02  4.245111785E+01  4.595705953E+01  1.844026310E+02  1.250000000E+02  0.00000E+00  9.000E+00
      21     1     1     2   512   501 -8.889999188E+01  4.736525735E+01  5.672054512E+01  1.156023200E+02  1.168007728E-06  0.00000E+00  9.000E+00
#rwgt            2          11   3.3520556384920180E-003           2      226690           0
</event>
<event>
      5   9999  3.19816E-02  4.22985E+01 -1.00000E+00  1.43351E-01
      21    -1     0     0   502   511  0.000000000E+00  0.000000000E+00  3.076115892E+02  3.076115892E+02  0.000000000E+00  0.00000E+00  9.000E+00
      21    -1     0     0   501   502  0.000000000E+00  0.000000000E+00 -5.296459122E+02  5.296459122E+02  0.000000000E+00  0.00000E+00  9.000E+00
      25     1     1     2     0     0 -2.226302740E+02  9.482535797E+01 -3.752038371E+01  2.749342951E+02  1.250000000E+02  0.00000E+00  9.000E+00
      25     1     1     2     0     0  2.563200130E+02 -1.204020137E+02 -3.050384156E+02  4.345917958E+02  1.250000000E+02  0.00000E+00  9.000E+00
      21     1     1     2   501   511 -3.368973900E+01  2.557665569E+01  1.205244763E+02  1.277314105E+02  1.907348633E-06  0.00000E+00  9.000E+00
#rwgt            1           1   2.8942952449481460E-002           2      226740           0
</event>
<event>
      5   9999  3.19816E-02  7.70899E+01 -1.00000E+00  1.29133E-01
      21    -1     0     0   502   501  0.000000000E+00  0.000000000E+00  1.906201061E+02  1.906201061E+02  0.000000000E+00  0.00000E+00  9.000E+00
      21    -1     0     0   512   502  0.000000000E+00  0.000000000E+00 -5.505230500E+02  5.505230500E+02  0.000000000E+00  0.00000E+00  9.000E+00
      25     1     1     2     0     0  7.451187711E+01  5.626927136E+01  1.216630532E+02  1.978513312E+02  1.250000000E+02  0.00000E+00  9.000E+00
      25     1     1     2     0     0 -2.762259962E+01 -1.174594848E+02 -3.145110989E+02  3.593076257E+02  1.250000000E+02  0.00000E+00  9.000E+00
      21     1     1     2   512   501 -4.688927749E+01  6.119021345E+01 -1.670548982E+02  1.839841993E+02  0.000000000E+00  0.00000E+00  9.000E+00
#rwgt            1           1   2.6014023002139324E-002           2      226866           0
</event>
<event>
      5   9999  3.19816E-02  4.66234E+02 -1.00000E+00  9.97224E-02
      21    -1     0     0   502   501  0.000000000E+00  0.000000000E+00  4.994223028E+02  4.994223028E+02  0.000000000E+00  0.00000E+00  9.000E+00
       2    -1     0     0   501     0  0.000000000E+00  0.000000000E+00 -1.092527598E+03  1.092527598E+03  0.000000000E+00  0.00000E+00  9.000E+00
      25     1     1     2     0     0 -8.884698080E+01 -3.734362731E+02  1.493579406E+02  4.304430630E+02  1.250000000E+02  0.00000E+00  9.000E+00
      25     1     1     2     0     0  3.718876395E+02  2.947786238E+00 -1.820885873E+02  4.325394311E+02  1.250000000E+02  0.00000E+00  9.000E+00
       2     1     1     2   502     0 -2.830406587E+02  3.704884868E+02 -5.603746488E+02  7.289674069E+02  1.078959322E-05  0.00000E+00  9.000E+00
#rwgt            2          13   1.0301628578248494E-003           2      226940           0
</event>
<event>
      5   9999  3.19816E-02  1.66536E+02 -1.00000E+00  1.14622E-01
      21    -1     0     0   502   501  0.000000000E+00  0.000000000E+00  2.555319506E+02  2.555319506E+02  0.000000000E+00  0.00000E+00  9.000E+00
       2    -1     0     0   501     0  0.000000000E+00  0.000000000E+00 -4.648414290E+02  4.648414290E+02  0.000000000E+00  0.00000E+00  9.000E+00
      25     1     1     2     0     0  1.104388915E+02 -1.046901753E+02  4.277472236E+01  2.015228484E+02  1.250000000E+02  0.00000E+00  9.000E+00
      25     1     1     2     0     0  3.154325799E+01  1.917270984E+02 -1.822952467E+01  2.317575737E+02  1.250000000E+02  0.00000E+00  9.000E+00
       2     1     1     2   502     0 -1.419821494E+02 -8.703692313E+01 -2.338546761E+02  2.870929576E+02  6.607249480E-06  0.00000E+00  9.000E+00
#rwgt            1           1   3.0123393134585435E-002           2      226959           0
</event>
<event>
      5   9999  3.19816E-02  1.16791E+02 -1.00000E+00  1.20870E-01
      21    -1     0     0   511   501  0.000000000E+00  0.000000000E+00  4.461786644E+02  4.461786644E+02  0.000000000E+00  0.00000E+00  9.000E+00
      21    -1     0     0   501   502  0.000000000E+00  0.000000000E+00 -4.859518788E+02  4.859518788E+02  0.000000000E+00  0.00000E+00  9.000E+00
      25     1     1     2     0     0  1.192712181E+02 -1.231207501E+02 -3.875145117E+02  4.417882291E+02  1.250000000E+02  0.00000E+00  9.000E+00
      25     1     1     2     0     0 -2.372194544E+01  1.902807443E+02  2.324176695E+02  3.262092357E+02  1.250000000E+02  0.00000E+00  9.000E+00
      21     1     1     2   511   502 -9.554927269E+01 -6.715999419E+01  1.153236278E+02  1.641330785E+02  2.697398305E-06  0.00000E+00  9.000E+00
#rwgt            1           1   2.8138236124986785E-002           2      227015           0
</event>
<event>
      5   9999  3.19816E-02  2.27485E+01 -1.00000E+00  1.61883E-01
      21    -1     0     0   502   501  0.000000000E+00  0.000000000E+00  2.010360654E+01  2.010360654E+01  0.000000000E+00  0.00000E+00  9.000E+00
      21    -1     0     0   512   502  0.000000000E+00  0.000000000E+00 -4.105782295E+03  4.105782295E+03  0.000000000E+00  0.00000E+00  9.000E+00
      25     1     1     2     0     0  8.121777773E+01  2.041702191E+02 -2.949620959E+03  2.960434192E+03  1.250000000E+02  0.00000E+00  9.000E+00
      25     1     1     2     0     0 -7.594927388E+01 -1.820402379E+02 -9.631993499E+02  9.911028847E+02  1.250000000E+02  0.00000E+00  9.000E+00
      21     1     1     2   512   501 -5.268503849E+00 -2.212998119E+01 -1.728583799E+02  1.743488248E+02  1.907348633E-06  0.00000E+00  9.000E+00
#rwgt            1           1   5.6877055475980454E-003           2      227065           0
</event>
<event>
      5   9999  3.19816E-02  8.43577E+01 -1.00000E+00  1.27244E-01
      21    -1     0     0   511   501  0.000000000E+00  0.000000000E+00  8.395673157E+01  8.395673157E+01  0.000000000E+00  0.00000E+00  9.000E+00
      21    -1     0     0   501   502  0.000000000E+00  0.000000000E+00 -9.449032678E+02  9.449032678E+02  0.000000000E+00  0.00000E+00  9.000E+00
      25     1     1     2     0     0 -4.345621996E+00  1.418357650E+02 -1.035498612E+02  2.156011188E+02  1.250000000E+02  0.00000E+00  9.000E+00
      25     1     1     2     0     0  7.244708385E+01 -9.205213621E+01 -6.709433765E+02  6.924681871E+02  1.250000000E+02  0.00000E+00  9.000E+00
      21     1     1     2   511   502 -6.810146186E+01 -4.978362877E+01 -8.645329853E+01  1.207906935E+02  1.348699152E-06  0.00000E+00  9.000E+00
#rwgt            1           1   3.3407234258118722E-002           2      227179           0
</event>
<event>
      5   9999  3.19816E-02  6.24649E+01 -1.00000E+00  1.33776E-01
      21    -1     0     0   502   501  0.000000000E+00  0.000000000E+00  1.634478050E+02  1.634478050E+02  0.000000000E+00  0.00000E+00  9.000E+00
      21    -1     0     0   512   502  0.000000000E+00  0.000000000E+00 -3.364073206E+02  3.364073206E+02  0.000000000E+00  0.00000E+00  9.000E+00
      25     1     1     2     0     0  8.583381260E+01 -4.640077141E+01  8.228145930E+01  1.786496950E+02  1.250000000E+02  0.00000E+00  9.000E+00
      25     1     1     2     0     0 -4.235671924E+01  1.549853113E+00 -1.617898048E+02  2.087999872E+02  1.250000000E+02  0.00000E+00  9.000E+00
      21     1     1     2   512   501 -4.347709337E+01  4.485091830E+01 -9.345117015E+01  1.124054435E+02  0.000000000E+00  0.00000E+00  9.000E+00
#rwgt            1           1   3.3877709274441253E-002           2      227247           0
</event>
<event>
      5   9999  3.19816E-02  9.01271E+01 -1.00000E+00  1.25893E-01
      21    -1     0     0   502   501  0.000000000E+00  0.000000000E+00  1.325738924E+03  1.325738924E+03  0.000000000E+00  0.00000E+00  9.000E+00
      21    -1     0     0   501   511  0.000000000E+00  0.000000000E+00 -2.119633741E+02  2.119633741E+02  0.000000000E+00  0.00000E+00  9.000E+00
      25     1     1     2     0     0  1.558612619E+02  3.443815204E+02  6.831185235E+02  7.906752062E+02  1.250000000E+02  0.00000E+00  9.000E+00
      25     1     1     2     0     0 -1.687140551E+02 -4.335875104E+02  4.449235249E+02  6.557777859E+02  1.250000000E+02  0.00000E+00  9.000E+00
      21     1     1     2   502   511  1.285279315E+01  8.920598992E+01 -1.426649821E+01  9.124930630E+01  2.071636581E-06  0.00000E+00  9.000E+00
#rwgt            1           1   3.1261912263870033E-002           2      227311           0
</event>
<event>
      5   9999  3.19816E-02  1.10413E+02 -1.00000E+00  1.21923E-01
      21    -1     0     0   502   501  0.000000000E+00  0.000000000E+00  1.029218456E+03  1.029218456E+03  0.000000000E+00  0.00000E+00  9.000E+00
      21    -1     0     0   512   502  0.000000000E+00  0.000000000E+00 -4.691849122E+02  4.691849122E+02  0.000000000E+00  0.00000E+00  9.000E+00
      25     1     1     2     0     0 -3.508444061E+02 -1.204657605E+02  8.784484826E+02  9.617174914E+02  1.250000000E+02  0.00000E+00  9.000E+00
      25     1     1     2     0     0  2.430034990E+02  1.441579174E+02 -1.729872839E+02  3.540929343E+02  1.250000000E+02  0.00000E+00  9.000E+00
      21     1     1     2   512   501  1.078409071E+02 -2.369215696E+01 -1.454276553E+02  1.825929420E+02  1.907348633E-06  0.00000E+00  9.000E+00
#rwgt            1           1   2.6948824692442652E-002           2      227427           0
</event>
<event>
      5   9999  3.19816E-02  1.42861E+02 -1.00000E+00  1.17239E-01
      21    -1     0     0   502   501  0.000000000E+00  0.000000000E+00  2.508164961E+02  2.508164961E+02  0.000000000E+00  0.00000E+00  9.000E+00
       2    -1     0     0   501     0  0.000000000E+00  0.000000000E+00 -6.685421749E+02  6.685421749E+02  0.000000000E+00  0.00000E+00  9.000E+00
      25     1     1     2     0     0 -1.041443295E+02 -1.136250951E+02 -3.387983711E+01  2.013195146E+02  1.250000000E+02  0.00000E+00  9.000E+00
      25     1     1     2     0     0  2.317075693E+02  4.930751984E+01  3.994756904E+01  2.708143967E+02  1.250000000E+02  0.00000E+00  9.000E+00
       2     1     1     2   502     0 -1.275632398E+02  6.431757526E+01 -4.237934108E+02  4.472247597E+02  5.394796609E-06  0.00000E+00  9.000E+00
#rwgt            1           1   2.9721439300133937E-002           2      227594           0
</event>
<event>
      5   9999  3.19816E-02  1.32189E+02 -1.00000E+00  1.18612E-01
       2    -1     0     0   502     0  0.000000000E+00  0.000000000E+00  2.463912678E+03  2.463912678E+03  0.000000000E+00  0.00000E+00  9.000E+00
      21    -1     0     0   501   502  0.000000000E+00  0.000000000E+00 -4.705999825E+02  4.705999825E+02  0.000000000E+00  0.00000E+00  9.000E+00
      25     1     1     2     0     0 -7.925369767E+02  1.072371903E+01  6.570492582E+02  1.037096228E+03  1.250000000E+02  0.00000E+00  9.000E+00
      25     1     1     2     0     0  8.479304347E+02  1.092987889E+02  4.004661558E+02  9.523289292E+02  1.250000000E+02  0.00000E+00  9.000E+00
       2     1     1     2   501     0 -5.539345801E+01 -1.200225079E+02  9.357972813E+02  9.450875035E+02  1.868812365E-05  0.00000E+00  9.000E+00
#rwgt            1           1   3.6005298306612261E-002           2      227659           0
</event>
<event>
      5   9999  3.19816E-02  1.65432E+01 -1.00000E+00  1.73469E-01
      21    -1     0     0   511   501  0.000000000E+00  0.000000000E+00  4.340788541E+02  4.340788541E+02  0.000000000E+00  0.00000E+00  9.000E+00
      21    -1     0     0   501   502  0.000000000E+00  0.000000000E+00 -2.119999373E+02  2.119999373E+02  0.000000000E+00  0.00000E+00  9.000E+00
      25     1     1     2     0     0  1.199580949E+02 -1.703930685E+02 -6.191053420E+01  2.507621514E+02  1.250000000E+02  0.00000E+00  9.000E+00
      25     1     1     2     0     0 -1.336596385E+02  1.796637909E+02  2.533312250E+02  3.604798002E+02  1.250000000E+02  0.00000E+00  9.000E+00
      21     1     1     2   511   502  1.370154365E+01 -9.270722405E+00  3.065822597E+01  3.483683987E+01  4.768371582E-07  0.00000E+00  9.000E+00
#rwgt            1           1   2.6633454804933402E-002           2      227765           0
</event>
<event>
      5   9999  3.19816E-02  3.56870E+01 -1.00000E+00  1.47982E-01
      21    -1     0     0   502   512  0.000000000E+00  0.000000000E+00  3.734931023E+02  3.734931023E+02  0.000000000E+00  0.00000E+00  9.000E+00
      21    -1     0     0   501   502  0.000000000E+00  0.000000000E+00 -3.293994400E+02  3.293994400E+02  0.000000000E+00  0.00000E+00  9.000E+00
      25     1     1     2     0     0  2.842152581E+02 -9.721245870E+00 -1.368887725E+02  3.394648017E+02  1.250000000E+02  0.00000E+00  9.000E+00
      25     1     1     2     0     0 -2.491139990E+02  1.616039272E+01  1.554168521E+02  3.195283097E+02  1.250000000E+02  0.00000E+00  9.000E+00
      21     1     1     2   501   512 -3.510125915E+01 -6.439146852E+00  2.556558281E+01  4.389943087E+01  4.768371582E-07  0.00000E+00  9.000E+00
#rwgt            1           1   2.7246454590968611E-002           2      227895           0
</event>
<event>
      5   9999  3.19816E-02  4.33979E+01 -1.00000E+00  1.42678E-01
      21    -1     0     0   502   501  0.000000000E+00  0.000000000E+00  8.852770448E+02  8.852770448E+02  0.000000000E+00  0.00000E+00  9.000E+00
      21    -1     0     0   511   502  0.000000000E+00  0.000000000E+00 -1.198746361E+02  1.198746361E+02  0.000000000E+00  0.00000E+00  9.000E+00
      25     1     1     2     0     0  1.776721561E+02 -1.490597695E+02  1.520842739E+02  3.042052536E+02  1.250000000E+02  0.00000E+00  9.000E+00
      25     1     1     2     0     0 -1.606300904E+02  1.889715154E+02  5.890048078E+02  6.512019066E+02  1.250000000E+02  0.00000E+00  9.000E+00
      21     1     1     2   511   501 -1.704206571E+01 -3.991174595E+01  2.431332706E+01  4.974452072E+01  4.768371582E-07  0.00000E+00  9.000E+00
#rwgt            1           1   2.9473174331062370E-002           2      228021           0
</event>
<event>
      5   9999  3.19816E-02  6.01271E+01 -1.00000E+00  1.34654E-01
      21    -1     0     0   502   501  0.000000000E+00  0.000000000E+00  1.395761341E+02  1.395761341E+02  0.000000000E+00  0.00000E+00  9.000E+00
      21    -1     0     0   512   502  0.000000000E+00  0.000000000E+00 -7.980428968E+02  7.980428968E+02  0.000000000E+00  0.00000E+00  9.000E+00
      25     1     1     2     0     0  1.007658965E+02 -1.064915266E+02 -4.205475045E+02  4.625790902E+02  1.250000000E+02  0.00000E+00  9.000E+00
      25     1     1     2     0     0 -1.020401130E+02  4.637788058E+01  5.448894269E+01  1.765138446E+02  1.250000000E+02  0.00000E+00  9.000E+00
      21     1     1     2   512   501  1.274216477E+00  6.011364597E+01 -2.924082009E+02  2.985260960E+02  3.814697266E-06  0.00000E+00  9.000E+00
#rwgt            1           1   2.2687395641444164E-002           2      228109           0
</event>
<event>
      5   9999  3.19816E-02  3.90186E+01 -1.00000E+00  1.45512E-01
      21    -1     0     0   502   501  0.000000000E+00  0.000000000E+00  2.938951311E+02  2.938951311E+02  0.000000000E+00  0.00000E+00  9.000E+00
      21    -1     0     0   511   502  0.000000000E+00  0.000000000E+00 -5.611028712E+02  5.611028712E+02  0.000000000E+00  0.00000E+00  9.000E+00
      25     1     1     2     0     0 -2.344277353E+02 -9.322121261E+01  1.496763209E+02  3.188644832E+02  1.250000000E+02  0.00000E+00  9.000E+00
      25     1     1     2     0     0  2.314704902E+02  1.321275859E+02 -3.905025151E+02  4.890332310E+02  1.250000000E+02  0.00000E+00  9.000E+00
      21     1     1     2   511   501  2.957245149E+00 -3.890637329E+01 -2.638154593E+01  4.710028818E+01  0.000000000E+00  0.00000E+00  9.000E+00
#rwgt            1           1   2.3633531305247570E-002           2      228196           0
</event>
<event>
      5   9999  3.19816E-02  1.59417E+02 -1.00000E+00  1.15355E-01
      21    -1     0     0   502   512  0.000000000E+00  0.000000000E+00  4.136131694E+02  4.136131694E+02  0.000000000E+00  0.00000E+00  9.000E+00
      21    -1     0     0   501   502  0.000000000E+00  0.000000000E+00 -3.958263397E+02  3.958263397E+02  0.000000000E+00  0.00000E+00  9.000E+00
      25     1     1     2     0     0 -2.097521821E+02  2.356751499E+02 -5.314268284E+01  3.434936665E+02  1.250000000E+02  0.00000E+00  9.000E+00
      25     1     1     2     0     0  5.181612771E+01 -2.139967795E+02 -5.936648004E+01  2.600555935E+02  1.250000000E+02  0.00000E+00  9.000E+00
      21     1     1     2   501   512  1.579360544E+02 -2.167837041E+01  1.302959926E+02  2.058902492E+02  2.697398305E-06  0.00000E+00  9.000E+00
#rwgt            1           1   2.8226803478498860E-002           2      228288           0
</event>
<event>
      5   9999  3.19816E-02  8.03741E+01 -1.00000E+00  1.28251E-01
      21    -1     0     0   502   511  0.000000000E+00  0.000000000E+00  9.542916135E+02  9.542916135E+02  0.000000000E+00  0.00000E+00  9.000E+00
      21    -1     0     0   501   502  0.000000000E+00  0.000000000E+00 -2.072900243E+02  2.072900243E+02  0.000000000E+00  0.00000E+00  9.000E+00
      25     1     1     2     0     0 -1.294016645E+02 -8.374573353E+01 -1.167684884E+02  2.302564191E+02  1.250000000E+02  0.00000E+00  9.000E+00
      25     1     1     2     0     0  2.059360486E+02  1.082913490E+02  7.151222036E+02  7.623394510E+02  1.250000000E+02  0.00000E+00  9.000E+00
      21     1     1     2   501   511 -7.653438412E+01 -2.454561552E+01  1.486478740E+02  1.689857676E+02  0.000000000E+00  0.00000E+00  9.000E+00
#rwgt            1           1   2.7588516076701552E-002           2      228379           0
</event>
<event>
      5   9999  3.19816E-02  1.36220E+02 -1.00000E+00  1.18077E-01
      21    -1     0     0   502   512  0.000000000E+00  0.000000000E+00  4.905856660E+02  4.905856660E+02  0.000000000E+00  0.00000E+00  9.000E+00
      21    -1     0     0   501   502  0.000000000E+00  0.000000000E+00 -1.946266631E+03  1.946266631E+03  0.000000000E+00  0.00000E+00  9.000E+00
      25     1     1     2     0     0 -3.967339771E+02 -7.208052875E+02 -4.941701956E+02  9.678777264E+02  1.250000000E+02  0.00000E+00  9.000E+00
      25     1     1     2     0     0  2.900810777E+02  6.360650261E+02 -1.077214149E+03  1.290248453E+03  1.250000000E+02  0.00000E+00  9.000E+00
      21     1     1     2   501   512  1.066528994E+02  8.474026140E+01  1.157033795E+02  1.787261170E+02  3.568322551E-06  0.00000E+00  9.000E+00
#rwgt            1           1   2.7097264325677557E-002           2      228487           0
</event>
<event>
      5   9999  3.19816E-02  2.01677E+01 -1.00000E+00  1.66070E-01
      21    -1     0     0   502   501  0.000000000E+00  0.000000000E+00  1.187539681E+03  1.187539681E+03  0.000000000E+00  0.00000E+00  9.000E+00
      21    -1     0     0   511   502  0.000000000E+00  0.000000000E+00 -9.561138188E+01  9.561138188E+01  0.000000000E+00  0.00000E+00  9.000E+00
      25     1     1     2     0     0  1.600116055E+02  1.224951797E+02  9.753471766E+02  1.003760877E+03  1.250000000E+02  0.00000E+00  9.000E+00
      25     1     1     2     0     0 -1.671661207E+02 -1.036391798E+02  1.014164579E+02  2.541572140E+02  1.250000000E+02  0.00000E+00  9.000E+00
      21     1     1     2   511   501  7.154515256E+00 -1.885599995E+01  1.516466462E+01  2.523297199E+01  3.371747881E-07  0.00000E+00  9.000E+00
#rwgt            1           1   2.7616514392836126E-002           2      228554           0
</event>
<event>
      5   9999  3.19816E-02  9.84115E+01 -1.00000E+00  1.24142E-01
      21    -1     0     0   502   501  0.000000000E+00  0.000000000E+00  1.098087715E+03  1.098087715E+03  0.000000000E+00  0.00000E+00  9.000E+00
      21    -1     0     0   501   512  0.000000000E+00  0.000000000E+00 -4.269856760E+02  4.269856760E+02  0.000000000E+00  0.00000E+00  9.000E+00
      25     1     1     2     0     0  4.865161626E+02 -2.657527763E+02  4.663390660E+02  7.351323956E+02  1.250000000E+02  0.00000E+00  9.000E+00
      25     1     1     2     0     0 -5.770520396E+02  3.043283495E+02  1.711320402E+02  6.859416709E+02  1.250000000E+02  0.00000E+00  9.000E+00
      21     1     1     2   502   512  9.053587703E+01 -3.857557318E+01  3.363093291E+01  1.039993246E+02  4.768371582E-07  0.00000E+00  9.000E+00
#rwgt            2          11   7.0203917633474121E-003           2      228703           0
</event>
<event>
      5   9999  3.19816E-02  1.05918E+01 -1.00000E+00  1.92914E-01
      21    -1     0     0   502   501  0.000000000E+00  0.000000000E+00  6.630235002E+02  6.630235002E+02  0.000000000E+00  0.00000E+00  9.000E+00
      21    -1     0     0   511   502  0.000000000E+00  0.000000000E+00 -1.914548737E+02  1.914548737E+02  0.000000000E+00  0.00000E+00  9.000E+00
      25     1     1     2     0     0 -8.736633028E+01 -1.594246342E+02 -8.367870953E+01  2.359580812E+02  1.250000000E+02  0.00000E+00  9.000E+00
      25     1     1     2     0     0  8.205675625E+01  1.685894510E+02  5.623144372E+02  6.057872898E+02  1.250000000E+02  0.00000E+00  9.000E+00
      21     1     1     2   511   501  5.309574034E+00 -9.164816739E+00 -7.067101207E+00  1.273300286E+01  3.153981341E-07  0.00000E+00  9.000E+00
#rwgt            1           1   3.0710828533301225E-002           2      228723           0
</event>
<event>
      5   9999  3.19816E-02  5.26840E+01 -1.00000E+00  1.37792E-01
      -1    -1     0     0     0   501  0.000000000E+00  0.000000000E+00  1.120407105E+03  1.120407105E+03  0.000000000E+00  0.00000E+00  9.000E+00
      21    -1     0     0   501   502  0.000000000E+00  0.000000000E+00 -8.292307542E+02  8.292307542E+02  0.000000000E+00  0.00000E+00  9.000E+00
      25     1     1     2     0     0  1.202045581E+02  4.173881196E+01 -4.556179523E+02  4.892892628E+02  1.250000000E+02  0.00000E+00  9.000E+00
      25     1     1     2     0     0 -6.754515123E+01 -4.334802032E+01 -3.406494180E+02  3.716294180E+02  1.250000000E+02  0.00000E+00  9.000E+00
      -1     1     1     2     0   502 -5.265940682E+01  1.609208357E+00  1.087443721E+03  1.088719178E+03  0.000000000E+00  0.00000E+00  9.000E+00
#rwgt            1           1   2.9635808120903467E-002           2      229077           0
</event>
<event>
      5   9999  3.19816E-02  7.16532E+01 -1.00000E+00  1.30709E-01
      21    -1     0     0   502   501  0.000000000E+00  0.000000000E+00  1.179561046E+02  1.179561046E+02  0.000000000E+00  0.00000E+00  9.000E+00
      21    -1     0     0   511   502  0.000000000E+00  0.000000000E+00 -7.148630291E+02  7.148630291E+02  0.000000000E+00  0.00000E+00  9.000E+00
      25     1     1     2     0     0 -2.183100220E+02  3.065543944E+01 -1.092193203E+02  2.759581156E+02  1.250000000E+02  0.00000E+00  9.000E+00
      25     1     1     2     0     0  1.467674330E+02 -3.463445596E+01 -3.800522717E+02  4.275569601E+02  1.250000000E+02  0.00000E+00  9.000E+00
      21     1     1     2   511   501  7.154258894E+01  3.979016515E+00 -1.076353325E+02  1.293040579E+02  1.348699152E-06  0.00000E+00  9.000E+00
#rwgt            1           1   3.1292007312028185E-002           2      229166           0
</event>
<event>
      5   9999  3.19816E-02  1.42711E+02 -1.00000E+00  1.17258E-01
       2    -1     0     0   502     0  0.000000000E+00  0.000000000E+00  1.264606944E+03  1.264606944E+03  0.000000000E+00  0.00000E+00  9.000E+00
      21    -1     0     0   501   502  0.000000000E+00  0.000000000E+00 -1.627053082E+03  1.627053082E+03  0.000000000E+00  0.00000E+00  9.000E+00
      25     1     1     2     0     0  4.795980751E+02  2.656611500E+02 -1.055322931E+03  1.195793313E+03  1.250000000E+02  0.00000E+00  9.000E+00
      25     1     1     2     0     0 -3.673221281E+02 -3.537543377E+02 -3.579014631E+02  6.354416847E+02  1.250000000E+02  0.00000E+00  9.000E+00
       2     1     1     2   501     0 -1.122759470E+02  8.809318776E+01  1.050778256E+03  1.060425028E+03  1.525878906E-05  0.00000E+00  9.000E+00
#rwgt            1           1   2.2328947779430643E-002           2      229225           0
</event>
<event>
      5   9999  3.19816E-02  7.44296E+01 -1.00000E+00  1.29885E-01
      21    -1     0     0   502   511  0.000000000E+00  0.000000000E+00  6.657208805E+02  6.657208805E+02  0.000000000E+00  0.00000E+00  9.000E+00
      21    -1     0     0   501   502  0.000000000E+00  0.000000000E+00 -1.018649916E+03  1.018649916E+03  0.000000000E+00  0.00000E+00  9.000E+00
      25     1     1     2     0     0 -2.494165414E+02 -4.591227244E+02  1.971363737E+02  5.722674523E+02  1.250000000E+02  0.00000E+00  9.000E+00
      25     1     1     2     0     0  2.758987594E+02  5.286817793E+02 -7.100581405E+02  9.356452918E+02  1.250000000E+02  0.00000E+00  9.000E+00
      21     1     1     2   501   511 -2.648221802E+01 -6.955905491E+01  1.599927315E+02  1.764580521E+02  2.697398305E-06  0.00000E+00  9.000E+00
#rwgt            1           1   2.8760842066023001E-002           2      229301           0
</event>
<event>
      5   9999  3.19816E-02  2.30727E+02 -1.00000E+00  1.09434E-01
      21    -1     0     0   502   501  0.000000000E+00  0.000000000E+00  8.607832653E+02  8.607832653E+02  0.000000000E+00  0.00000E+00  9.000E+00
      21    -1     0     0   501   512  0.000000000E+00  0.000000000E+00 -1.546734997E+02  1.546734997E+02  0.000000000E+00  0.00000E+00  9.000E+00
      25     1     1     2     0     0  1.636620833E+02  2.060848462E+01  4.537733616E+02  4.987436725E+02  1.250000000E+02  0.00000E+00  9.000E+00
      25     1     1     2     0     0  3.285395948E+01 -1.415071914E+02  2.060315277E+02  2.813852489E+02  1.250000000E+02  0.00000E+00  9.000E+00
      21     1     1     2   502   512 -1.965160428E+02  1.208987068E+02  4.630487630E+01  2.353278435E+02  4.815819234E-06  0.00000E+00  9.000E+00
#rwgt            1           1   2.4830963115592439E-002           2      229442           0
</event>
<event>
      5   9999  3.19816E-02  4.38036E+01 -1.00000E+00  1.42435E-01
      21    -1     0     0   502   501  0.000000000E+00  0.000000000E+00  2.989395622E+02  2.989395622E+02  0.000000000E+00  0.00000E+00  9.000E+00
      21    -1     0     0   501   511  0.000000000E+00  0.000000000E+00 -1.663803600E+03  1.663803600E+03  0.000000000E+00  0.00000E+00  9.000E+00
      25     1     1     2     0     0 -3.354559338E+02  4.756222361E+01 -1.348199395E+03  1.395729006E+03  1.250000000E+02  0.00000E+00  9.000E+00
      25     1     1     2     0     0  3.623259216E+02 -1.296803694E+01  1.369929070E+02  4.072349445E+02  1.250000000E+02  0.00000E+00  9.000E+00
      21     1     1     2   502   511 -2.686998781E+01 -3.459418667E+01 -1.536575494E+02  1.597792117E+02  1.907348633E-06  0.00000E+00  9.000E+00
#rwgt            1           1   2.6633020739625268E-002           2      229480           0
</event>
<event>
      5   9999  3.19816E-02  1.16950E+02 -1.00000E+00  1.20845E-01
      21    -1     0     0   512   501  0.000000000E+00  0.000000000E+00  9.867278110E+02  9.867278110E+02  0.000000000E+00  0.00000E+00  9.000E+00
      21    -1     0     0   501   502  0.000000000E+00  0.000000000E+00 -6.972816879E+02  6.972816879E+02  0.000000000E+00  0.00000E+00  9.000E+00
      25     1     1     2     0     0 -2.396400435E+02 -3.917320341E+00 -6.302114677E+02  6.857362393E+02  1.250000000E+02  0.00000E+00  9.000E+00
      25     1     1     2     0     0  2.059368014E+02  1.159055765E+02  7.020913169E+02  7.512664548E+02  1.250000000E+02  0.00000E+00  9.000E+00
      21     1     1     2   512   502  3.370324212E+01 -1.119882561E+02  2.175662739E+02  2.470068047E+02  0.000000000E+00  0.00000E+00  9.000E+00
#rwgt            1           1   3.1758054367281088E-002           2      229731           0
</event>
<event>
      5   9999  3.19816E-02  8.26418E+02 -1.00000E+00  9.30239E-02
      21    -1     0     0   511   501  0.000000000E+00  0.000000000E+00  1.485489106E+03  1.485489106E+03  0.000000000E+00  0.00000E+00  9.000E+00
      21    -1     0     0   501   502  0.000000000E+00  0.000000000E+00 -1.399921505E+03  1.399921505E+03  0.000000000E+00  0.00000E+00  9.000E+00
      25     1     1     2     0     0  1.255272517E+03  5.516209342E+01 -5.331965264E+02  1.370647834E+03  1.250000000E+02  0.00000E+00  9.000E+00
      25     1     1     2     0     0 -4.478241071E+02  1.208891689E+02  4.756602554E+02  6.760460788E+02  1.250000000E+02  0.00000E+00  9.000E+00
      21     1     1     2   511   502 -8.074484099E+02 -1.760512623E+02  1.431038717E+02  8.387166981E+02  1.144409180E-05  0.00000E+00  9.000E+00
#rwgt            2          11   1.5335345628111751E-003           2      229842           0
</event>
<event>
      5   9999  3.19816E-02  1.34007E+01 -1.00000E+00  1.82124E-01
      21    -1     0     0   502   512  0.000000000E+00  0.000000000E+00  3.834680694E+02  3.834680694E+02  0.000000000E+00  0.00000E+00  9.000E+00
      21    -1     0     0   501   502  0.000000000E+00  0.000000000E+00 -2.096054206E+02  2.096054206E+02  0.000000000E+00  0.00000E+00  9.000E+00
      25     1     1     2     0     0 -2.115052245E+02  1.073907388E+02  5.076716498E+01  2.728910695E+02  1.250000000E+02  0.00000E+00  9.000E+00
      25     1     1     2     0     0  2.088826251E+02 -1.205323332E+02  9.278821774E+01  2.870446790E+02  1.250000000E+02  0.00000E+00  9.000E+00
      21     1     1     2   501   512  2.622599393E+00  1.314159434E+01  3.030726607E+01  3.313774142E+01  0.000000000E+00  0.00000E+00  9.000E+00
#rwgt            1           1   2.9785340128576292E-002           2      229937           0
</event>
<event>
      5   9999  3.19816E-02  7.24786E+01 -1.00000E+00  1.30460E-01
      21    -1     0     0   511   501  0.000000000E+00  0.000000000E+00  1.877226118E+02  1.877226118E+02  0.000000000E+00  0.00000E+00  9.000E+00
      21    -1     0     0   501   502  0.000000000E+00  0.000000000E+00 -2.157229328E+02  2.157229328E+02  0.000000000E+00  0.00000E+00  9.000E+00
      25     1     1     2     0     0 -4.945113852E+01  7.697209855E+01 -9.380017460E+01  1.810900102E+02  1.250000000E+02  0.00000E+00  9.000E+00
      25     1     1     2     0     0  5.171978791E+01 -4.529046226E+00  2.053082277E+01  1.369012907E+02  1.250000000E+02  0.00000E+00  9.000E+00
      21     1     1     2   511   502 -2.268649395E+00 -7.244305233E+01  4.526903081E+01  8.545424361E+01  1.348699152E-06  0.00000E+00  9.000E+00
#rwgt            1           1   5.9083212067702125E-002           2      230176           0
</event>
<event>
      5   9999  3.19816E-02  1.54386E+01 -1.00000E+00  1.76213E-01
      21    -1     0     0   512   501  0.000000000E+00  0.000000000E+00  4.146355927E+02  4.146355927E+02  0.000000000E+00  0.00000E+00  9.000E+00
      21    -1     0     0   501   502  0.000000000E+00  0.000000000E+00 -2.005058146E+02  2.005058146E+02  0.000000000E+00  0.00000E+00  9.000E+00
      25     1     1     2     0     0 -1.364373333E+02  1.897556905E+02  3.373504441E+01  2.671805031E+02  1.250000000E+02  0.00000E+00  9.000E+00
      25     1     1     2     0     0  1.220425240E+02 -1.953359356E+02  1.247945705E+02  2.902571105E+02  1.250000000E+02  0.00000E+00  9.000E+00
      21     1     1     2   512   502  1.439480937E+01  5.580245112E+00  5.560016317E+01  5.770379378E+01  0.000000000E+00  0.00000E+00  9.000E+00
#rwgt            1           1   3.0067661425375106E-002           2      230262           0
</event>
<event>
      5   9999  3.19816E-02  2.72002E+02 -1.00000E+00  1.06993E-01
      -5    -1     0     0     0   501  0.000000000E+00  0.000000000E+00  5.023197726E+02  5.023197726E+02  0.000000000E+00  0.00000E+00  9.000E+00
      21    -1     0     0   501   502  0.000000000E+00  0.000000000E+00 -1.736013744E+03  1.736013744E+03  0.000000000E+00  0.00000E+00  9.000E+00
      25     1     1     2     0     0 -2.489967358E+02 -1.854974114E+02 -3.887519078E+02  5.129928945E+02  1.250000000E+02  0.00000E+00  9.000E+00
      25     1     1     2     0     0 -2.166238994E+01  2.124953464E+02 -1.229583031E+03  1.254241987E+03  1.250000000E+02  0.00000E+00  9.000E+00
      -5     1     1     2     0   502  2.706591257E+02 -2.699793502E+01  3.846409671E+02  4.710986355E+02  7.629394531E-06  0.00000E+00  9.000E+00
#rwgt            1           1   3.6751299088947441E-002           2      230468           0
</event>
<event>
      5   9999  3.19816E-02  8.38338E+00 -1.00000E+00  2.05048E-01
      21    -1     0     0   502   511  0.000000000E+00  0.000000000E+00  5.863501499E+02  5.863501499E+02  0.000000000E+00  0.00000E+00  9.000E+00
      21    -1     0     0   501   502  0.000000000E+00  0.000000000E+00 -1.005894767E+03  1.005894767E+03  0.000000000E+00  0.00000E+00  9.000E+00
      25     1     1     2     0     0 -7.117673173E+02 -4.425041550E+01 -4.612636098E+02  8.584637039E+02  1.250000000E+02  0.00000E+00  9.000E+00
      25     1     1     2     0     0  7.090153776E+02  5.216924643E+01  3.440702194E+01  7.226570965E+02  1.250000000E+02  0.00000E+00  9.000E+00
      21     1     1     2   501   511  2.751939677E+00 -7.918830932E+00  7.311970626E+00  1.112411658E+01  2.230201594E-07  0.00000E+00  9.000E+00
#rwgt            1           1   3.1881518099288852E-002           2      230497           0
</event>
<event>
      5   9999  3.19816E-02  1.85261E+01 -1.00000E+00  1.69160E-01
      21    -1     0     0   502   501  0.000000000E+00  0.000000000E+00  9.675486404E+02  9.675486404E+02  0.000000000E+00  0.00000E+00  9.000E+00
      21    -1     0     0   512   502  0.000000000E+00  0.000000000E+00 -4.293022062E+01  4.293022062E+01  0.000000000E+00  0.00000E+00  9.000E+00
      25     1     1     2     0     0 -2.876018759E+01  1.062302677E+02  1.934126122E+02  2.552360804E+02  1.250000000E+02  0.00000E+00  9.000E+00
      25     1     1     2     0     0  1.035399860E+01 -1.083347410E+02  6.959877824E+02  7.154492398E+02  1.250000000E+02  0.00000E+00  9.000E+00
      21     1     1     2   512   501  1.840618899E+01  2.104473258E+00  3.521802514E+01  3.979354087E+01  9.536743164E-07  0.00000E+00  9.000E+00
#rwgt            1           1   2.3778773504037724E-002           2      230921           0
</event>
<event>
      5   9999  3.19816E-02  1.50119E+02 -1.00000E+00  1.16380E-01
      21    -1     0     0   502   511  0.000000000E+00  0.000000000E+00  3.887386371E+02  3.887386371E+02  0.000000000E+00  0.00000E+00  9.000E+00
      21    -1     0     0   501   502  0.000000000E+00  0.000000000E+00 -1.612539692E+03  1.612539692E+03  0.000000000E+00  0.00000E+00  9.000E+00
      25     1     1     2     0     0 -1.868847388E+02  3.915643102E+02 -1.206883203E+03  1.288580840E+03  1.250000000E+02  0.00000E+00  9.000E+00
      25     1     1     2     0     0  1.166449334E+02 -5.242373485E+02 -6.460927715E+01  5.551848311E+02  1.250000000E+02  0.00000E+00  9.000E+00
      21     1     1     2   501   511  7.023980541E+01  1.326730383E+02  4.769142559E+01  1.575126580E+02  2.523185073E-06  0.00000E+00  9.000E+00
#rwgt            2          11   5.1432667184402219E-003           2      231103           0
</event>
<event>
      5   9999  3.19816E-02  6.35051E+01 -1.00000E+00  1.33399E-01
      21    -1     0     0   502   512  0.000000000E+00  0.000000000E+00  1.913294902E+02  1.913294902E+02  0.000000000E+00  0.00000E+00  9.000E+00
      21    -1     0     0   501   502  0.000000000E+00  0.000000000E+00 -1.147574429E+03  1.147574429E+03  0.000000000E+00  0.00000E+00  9.000E+00
      25     1     1     2     0     0 -2.044137108E+02  1.249725079E+02  3.575114747E+01  2.725917046E+02  1.250000000E+02  0.00000E+00  9.000E+00
      25     1     1     2     0     0  1.694768590E+02 -1.780038066E+02 -9.523090364E+02  9.914258730E+02  1.250000000E+02  0.00000E+00  9.000E+00
      21     1     1     2   501   512  3.493685185E+01  5.303129872E+01 -3.968705026E+01  7.488634201E+01  9.536743164E-07  0.00000E+00  9.000E+00
#rwgt            1           1   3.3703262857278891E-002           2      231123           0
</event>
<event>
      5   9999  3.19816E-02  9.77598E+01 -1.00000E+00  1.24272E-01
      21    -1     0     0   502   501  0.000000000E+00  0.000000000E+00  1.007145877E+03  1.007145877E+03  0.000000000E+00  0.00000E+00  9.000E+00
      21    -1     0     0   511   502  0.000000000E+00  0.000000000E+00 -2.719610251E+02  2.719610251E+02  0.000000000E+00  0.00000E+00  9.000E+00
      25     1     1     2     0     0 -6.519314253E+01  4.058699544E+01  1.246767538E+02  1.925272525E+02  1.250000000E+02  0.00000E+00  9.000E+00
      25     1     1     2     0     0  5.970258717E+01  5.701853912E+01  8.315232051E+02  8.449090799E+02  1.250000000E+02  0.00000E+00  9.000E+00
      21     1     1     2   511   501  5.490555359E+00 -9.760553456E+01 -2.210151071E+02  2.416705695E+02  2.697398305E-06  0.00000E+00  9.000E+00
#rwgt            1           1   3.0109373269162742E-002           2      231278           0
</event>
<event>
      5   9999  3.19816E-02  1.20166E+02 -1.00000E+00  1.20343E-01
      21    -1     0     0   512   501  0.000000000E+00  0.000000000E+00  1.011353955E+03  1.011353955E+03  0.000000000E+00  0.00000E+00  9.000E+00
      21    -1     0     0   501   502  0.000000000E+00  0.000000000E+00 -1.518037644E+02  1.518037644E+02  0.000000000E+00  0.00000E+00  9.000E+00
      25     1     1     2     0     0 -3.718897953E+01  1.489876029E+02  4.252902321E+02  4.691237657E+02  1.250000000E+02  0.00000E+00  9.000E+00
      25     1     1     2     0     0  4.895519636E+01 -2.685757055E+02  6.703672902E+01  3.076498722E+02  1.250000000E+02  0.00000E+00  9.000E+00
      21     1     1     2   512   502 -1.176621683E+01  1.195881026E+02  3.672232291E+02  3.863840811E+02  9.344061824E-06  0.00000E+00  9.000E+00
#rwgt            1           1   2.8095639839003535E-002           2      231408           0
</event>
<event>
      5   9999  3.19816E-02  8.60489E+01 -1.00000E+00  1.26836E-01
      21    -1     0     0   511   501  0.000000000E+00  0.000000000E+00  5.159643386E+02  5.159643386E+02  0.000000000E+00  0.00000E+00  9.000E+00
      21    -1     0     0   501   502  0.000000000E+00  0.000000000E+00 -4.124662891E+02  4.124662891E+02  0.000000000E+00  0.00000E+00  9.000E+00
      25     1     1     2     0     0 -3.327326059E+02 -1.433681795E+00 -9.756591571E+01  3.685880497E+02  1.250000000E+02  0.00000E+00  9.000E+00
      25     1     1     2     0     0  4.173932652E+02  1.682781078E+01  1.760383815E+02  4.702284815E+02  1.250000000E+02  0.00000E+00  9.000E+00
      21     1     1     2   511   502 -8.466065935E+01 -1.539412899E+01  2.502558377E+01  8.961409650E+01  1.815741803E-06  0.00000E+00  9.000E+00
#rwgt            1           1   2.6536672249672457E-002           2      231456           0
</event>
<event>
      5   9999  3.19816E-02  6.67202E+01 -1.00000E+00  1.32285E-01
      21    -1     0     0   512   501  0.000000000E+00  0.000000000E+00  7.773234293E+02  7.773234293E+02  0.000000000E+00  0.00000E+00  9.000E+00
      21    -1     0     0   501   502  0.000000000E+00  0.000000000E+00 -7.144880664E+02  7.144880664E+02  0.000000000E+00  0.00000E+00  9.000E+00
      25     1     1     2     0     0 -3.885970651E+02  1.452809307E+02 -5.292219174E+02  6.839700766E+02  1.250000000E+02  0.00000E+00  9.000E+00
      25     1     1     2     0     0  4.190874360E+02 -2.046267558E+02  5.163200818E+02  7.069072182E+02  1.250000000E+02  0.00000E+00  9.000E+00
      21     1     1     2   512   502 -3.049037085E+01  5.934582509E+01  7.573719849E+01  1.009342009E+02  9.536743164E-07  0.00000E+00  9.000E+00
#rwgt            1           1   2.8421749892669091E-002           2      231519           0
</event>
<event>
      5   9999  3.19816E-02  3.00214E+02 -1.00000E+00  1.05582E-01
      21    -1     0     0   502   501  0.000000000E+00  0.000000000E+00  7.250337341E+02  7.250337341E+02  0.000000000E+00  0.00000E+00  9.000E+00
      21    -1     0     0   511   502  0.000000000E+00  0.000000000E+00 -1.340825623E+03  1.340825623E+03  0.000000000E+00  0.00000E+00  9.000E+00
      25     1     1     2     0     0 -3.778944780E+02 -4.665029421E+02  4.618526843E+02  7.676992467E+02  1.250000000E+02  0.00000E+00  9.000E+00
      25     1     1     2     0     0  2.245916417E+02  2.083814988E+02 -2.412000810E+02  4.094712855E+02  1.250000000E+02  0.00000E+00  9.000E+00
      21     1     1     2   511   501  1.533028362E+02  2.581214433E+02 -8.364444918E+02  8.886888246E+02  0.000000000E+00  0.00000E+00  9.000E+00
#rwgt            2          11   2.4365969768356806E-003           2      231782           0
</event>
<event>
      5   9999  3.19816E-02  2.53578E+02 -1.00000E+00  1.08020E-01
      21    -1     0     0   502   512  0.000000000E+00  0.000000000E+00  1.938959482E+03  1.938959482E+03  0.000000000E+00  0.00000E+00  9.000E+00
      21    -1     0     0   501   502  0.000000000E+00  0.000000000E+00 -4.329790111E+02  4.329790111E+02  0.000000000E+00  0.00000E+00  9.000E+00
      25     1     1     2     0     0  3.777005212E+02  4.289001283E+02  1.024606262E+03  1.179854227E+03  1.250000000E+02  0.00000E+00  9.000E+00
      25     1     1     2     0     0 -2.700930301E+02 -6.585139376E+02  9.349132964E+01  7.286676057E+02  1.250000000E+02  0.00000E+00  9.000E+00
      21     1     1     2   501   512 -1.076074911E+02  2.296138093E+02  3.878828790E+02  4.634166606E+02  5.394796609E-06  0.00000E+00  9.000E+00
#rwgt            1           1   3.1049553348521306E-002           2      231862           0
</event>
<event>
      5   9999  3.19816E-02  1.58542E+01 -1.00000E+00  1.75147E-01
      21    -1     0     0   511   501  0.000000000E+00  0.000000000E+00  6.791903442E+01  6.791903442E+01  0.000000000E+00  0.00000E+00  9.000E+00
      21    -1     0     0   501   502  0.000000000E+00  0.000000000E+00 -7.993200521E+02  7.993200521E+02  0.000000000E+00  0.00000E+00  9.000E+00
      25     1     1     2     0     0  1.431773062E+02 -3.275811210E+01 -3.040936194E+02  3.600982704E+02  1.250000000E+02  0.00000E+00  9.000E+00
      25     1     1     2     0     0 -1.443805295E+02  4.856654702E+01 -4.429905411E+02  4.848402482E+02  1.250000000E+02  0.00000E+00  9.000E+00
      21     1     1     2   511   502  1.203223262E+00 -1.580843491E+01  1.568314285E+01  2.230056794E+01  2.384185791E-07  0.00000E+00  9.000E+00
#rwgt            1           1   3.3494776382382151E-002           2      231960           0
</event>
<event>
      5   9999  3.19816E-02  5.89680E+01 -1.00000E+00  1.35107E-01
      21    -1     0     0   502   501  0.000000000E+00  0.000000000E+00  4.410488940E+02  4.410488940E+02  0.000000000E+00  0.00000E+00  9.000E+00
      21    -1     0     0   512   502  0.000000000E+00  0.000000000E+00 -3.193120438E+02  3.193120438E+02  0.000000000E+00  0.00000E+00  9.000E+00
      25     1     1     2     0     0 -6.967939432E+01 -1.226503995E+02  2.717759431E+02  3.307347907E+02  1.250000000E+02  0.00000E+00  9.000E+00
      25     1     1     2     0     0  7.557292467E+01  6.397765271E+01  8.954828014E+01  1.828887680E+02  1.250000000E+02  0.00000E+00  9.000E+00
      21     1     1     2   512   501 -5.893530349E+00  5.867274679E+01 -2.395873731E+02  2.467373792E+02  0.000000000E+00  0.00000E+00  9.000E+00
#rwgt            1           1   2.4673042260762969E-002           2      232125           0
</event>
<event>
      5   9999  3.19816E-02  2.91169E+01 -1.00000E+00  1.53947E-01
      21    -1     0     0   502   501  0.000000000E+00  0.000000000E+00  8.469621907E+02  8.469621907E+02  0.000000000E+00  0.00000E+00  9.000E+00
      21    -1     0     0   511   502  0.000000000E+00  0.000000000E+00 -8.068152078E+01  8.068152078E+01  0.000000000E+00  0.00000E+00  9.000E+00
      25     1     1     2     0     0  3.523923513E+01 -6.247859843E+01  1.645917904E+02  2.187711965E+02  1.250000000E+02  0.00000E+00  9.000E+00
      25     1     1     2     0     0 -4.193697200E+01  9.081469979E+01  6.405835969E+02  6.602865771E+02  1.250000000E+02  0.00000E+00  9.000E+00
      21     1     1     2   511   501  6.697736872E+00 -2.833610136E+01 -3.889471736E+01  4.858593786E+01  2.336015456E-06  0.00000E+00  9.000E+00
#rwgt            1           1   2.7001072572842805E-002           2      232196           0
</event>
<event>
      5   9999  3.19816E-02  5.23446E+01 -1.00000E+00  1.37949E-01
      21    -1     0     0   502   501  0.000000000E+00  0.000000000E+00  7.818074895E+02  7.818074895E+02  0.000000000E+00  0.00000E+00  9.000E+00
      21    -1     0     0   501   512  0.000000000E+00  0.000000000E+00 -6.762843216E+02  6.762843216E+02  0.000000000E+00  0.00000E+00  9.000E+00
      25     1     1     2     0     0 -2.671109145E+02  5.126256578E+00  7.014758313E+02  7.609650853E+02  1.250000000E+02  0.00000E+00  9.000E+00
      25     1     1     2     0     0  2.687105571E+02 -5.744636563E+01 -5.503368556E+02  6.276950717E+02  1.250000000E+02  0.00000E+00  9.000E+00
      21     1     1     2   502   512 -1.599642522E+00  5.232010905E+01 -4.561580784E+01  6.943165411E+01  6.743495762E-07  0.00000E+00  9.000E+00
#rwgt            2          11   5.4502961337002630E-003           2      232346           0
</event>
<event>
      5   9999  3.19816E-02  2.63998E+01 -1.00000E+00  1.56999E-01
      21    -1     0     0   511   501  0.000000000E+00  0.000000000E+00  4.286880073E+02  4.286880073E+02  0.000000000E+00  0.00000E+00  9.000E+00
      21    -1     0     0   501   502  0.000000000E+00  0.000000000E+00 -6.346267520E+02  6.346267520E+02  0.000000000E+00  0.00000E+00  9.000E+00
      25     1     1     2     0     0  2.607930982E+02 -9.973466986E+01  2.325408967E+02  3.842659406E+02  1.250000000E+02  0.00000E+00  9.000E+00
      25     1     1     2     0     0 -2.414721957E+02  8.174428388E+01 -5.204888587E+02  5.928951014E+02  1.250000000E+02  0.00000E+00  9.000E+00
      21     1     1     2   511   502 -1.932090249E+01  1.799038598E+01  8.200921734E+01  8.615371721E+01  9.536743164E-07  0.00000E+00  9.000E+00
#rwgt            1           1   2.3326619890618645E-002           2      232366           0
</event>
<event>
      5   9999  3.19816E-02  1.26899E+02 -1.00000E+00  1.19347E-01
      21    -1     0     0   502   501  0.000000000E+00  0.000000000E+00  1.740370537E+03  1.740370537E+03  0.000000000E+00  0.00000E+00  9.000E+00
       2    -1     0     0   501     0  0.000000000E+00  0.000000000E+00 -1.919192827E+02  1.919192827E+02  0.000000000E+00  0.00000E+00  9.000E+00
      25     1     1     2     0     0 -1.614708557E+02 -3.599942232E+01  1.568675822E+03  1.582320331E+03  1.250000000E+02  0.00000E+00  9.000E+00
      25     1     1     2     0     0  1.504471990E+02 -9.041977122E+01  2.108238034E+01  2.165168850E+02  1.250000000E+02  0.00000E+00  9.000E+00
       2     1     1     2   502     0  1.102365669E+01  1.264191935E+02 -4.130694787E+01  1.334526037E+02  4.101908334E-06  0.00000E+00  9.000E+00
#rwgt            1           1   3.0867080038936338E-002           2      232532           0
</event>
<event>
      5   9999  3.19816E-02  2.46257E+01 -1.00000E+00  1.59243E-01
      21    -1     0     0   511   501  0.000000000E+00  0.000000000E+00  4.049070558E+02  4.049070558E+02  0.000000000E+00  0.00000E+00  9.000E+00
      21    -1     0     0   501   502  0.000000000E+00  0.000000000E+00 -2.500633202E+02  2.500633202E+02  0.000000000E+00  0.00000E+00  9.000E+00
      25     1     1     2     0     0 -1.945477276E+02  1.313358220E+02 -9.470751680E+01  2.822984771E+02  1.250000000E+02  0.00000E+00  9.000E+00
      25     1     1     2     0     0  1.705413378E+02 -1.368237037E+02  2.320802566E+02  3.424782027E+02  1.250000000E+02  0.00000E+00  9.000E+00
      21     1     1     2   511   502  2.400638978E+01  5.487881678E+00  1.747099583E+01  3.019369621E+01  4.768371582E-07  0.00000E+00  9.000E+00
#rwgt            1           1   3.2194661016100495E-002           2      232579           0
</event>
<event>
      5   9999  3.19816E-02  4.53887E+01 -1.00000E+00  1.41516E-01
      21    -1     0     0   502   501  0.000000000E+00  0.000000000E+00  6.241073339E+02  6.241073339E+02  0.000000000E+00  0.00000E+00  9.000E+00
      21    -1     0     0   512   502  0.000000000E+00  0.000000000E+00 -1.957362827E+02  1.957362827E+02  0.000000000E+00  0.00000E+00  9.000E+00
      25     1     1     2     0     0  7.252351101E+01 -6.170614971E+00  5.455882339E+02  5.644371153E+02  1.250000000E+02  0.00000E+00  9.000E+00
      25     1     1     2     0     0 -1.137976892E+02 -1.271253809E+01 -5.465029356E+01  1.781100146E+02  1.250000000E+02  0.00000E+00  9.000E+00
      21     1     1     2   512   501  4.127417824E+01  1.888315306E+01 -6.256688907E+01  7.729648677E+01  1.168007728E-06  0.00000E+00  9.000E+00
#rwgt            1           1   2.7421553676055893E-002           2      232733           0
</event>
<event>
      5   9999  3.19816E-02  4.17383E+01 -1.00000E+00  1.43704E-01
      21    -1     0     0   511   501  0.000000000E+00  0.000000000E+00  1.286491602E+03  1.286491602E+03  0.000000000E+00  0.00000E+00  9.000E+00
      21    -1     0     0   501   502  0.000000000E+00  0.000000000E+00 -2.958232118E+01  2.958232118E+01  0.000000000E+00  0.00000E+00  9.000E+00
      25     1     1     2     0     0 -6.770268661E+01 -9.120630452E+01  6.550108092E+02  6.764365483E+02  1.250000000E+02  0.00000E+00  9.000E+00
      25     1     1     2     0     0  8.772167580E+01  5.458220392E+01  3.695124662E+02  4.035328636E+02  1.250000000E+02  0.00000E+00  9.000E+00
      21     1     1     2   511   502 -2.001898919E+01  3.662410060E+01  2.323860051E+02  2.361045108E+02  0.000000000E+00  0.00000E+00  9.000E+00
#rwgt            1           1   4.2476000846324469E-002           2      232852           0
</event>
<event>
      5   9999  3.19816E-02  6.86035E+01 -1.00000E+00  1.31665E-01
      21    -1     0     0   512   501  0.000000000E+00  0.000000000E+00  4.769539933E+02  4.769539933E+02  0.000000000E+00  0.00000E+00  9.000E+00
      21    -1     0     0   501   502  0.000000000E+00  0.000000000E+00 -3.728482861E+02  3.728482861E+02  0.000000000E+00  0.00000E+00  9.000E+00
      25     1     1     2     0     0  3.293644590E+02  2.875238802E+01  3.768937497E+01  3.554618624E+02  1.250000000E+02  0.00000E+00  9.000E+00
      25     1     1     2     0     0 -2.633557512E+02 -1.006302015E+01 -1.047580404E+02  3.099302552E+02  1.250000000E+02  0.00000E+00  9.000E+00
      21     1     1     2   512   502 -6.600870780E+01 -1.868936787E+01  1.711743726E+02  1.844101619E+02  0.000000000E+00  0.00000E+00  9.000E+00
#rwgt            1           1   2.8336304252975474E-002           2      232951           0
</event>
<event>
      5   9999  3.19816E-02  9.96052E+01 -1.00000E+00  1.23905E-01
      21    -1     0     0   502   501  0.000000000E+00  0.000000000E+00  5.819570018E+02  5.819570018E+02  0.000000000E+00  0.00000E+00  9.000E+00
      -1    -1     0     0     0   502  0.000000000E+00  0.000000000E+00 -4.272919946E+02  4.272919946E+02  0.000000000E+00  0.00000E+00  9.000E+00
      25     1     1     2     0     0 -3.701357949E+02 -2.089445522E+01  1.473927382E+02  4.180749983E+02  1.250000000E+02  0.00000E+00  9.000E+00
      25     1     1     2     0     0  4.586870936E+02 -2.471112765E+01  5.768396745E+01  4.795382464E+02  1.250000000E+02  0.00000E+00  9.000E+00
      -1     1     1     2     0   501 -8.855129869E+01  4.560558287E+01 -5.041169849E+01  1.116357516E+02  2.236564522E-06  0.00000E+00  9.000E+00
#rwgt            1           1   2.5201916556795809E-002           2      233029           0
</event>
<event>
      5   9999  3.19816E-02  3.30590E+01 -1.00000E+00  1.50168E-01
      21    -1     0     0   502   511  0.000000000E+00  0.000000000E+00  6.445494962E+02  6.445494962E+02  0.000000000E+00  0.00000E+00  9.000E+00
      21    -1     0     0   501   502  0.000000000E+00  0.000000000E+00 -5.791559811E+02  5.791559811E+02  0.000000000E+00  0.00000E+00  9.000E+00
      25     1     1     2     0     0 -3.568794299E+02  3.361289302E+02 -2.579359345E+02  5.678921829E+02  1.250000000E+02  0.00000E+00  9.000E+00
      25     1     1     2     0     0  3.716542699E+02 -3.657025437E+02  2.933374380E+02  6.111768152E+02  1.250000000E+02  0.00000E+00  9.000E+00
      21     1     1     2   501   511 -1.477484006E+01  2.957361358E+01  2.999201160E+01  4.463647924E+01  5.840038640E-07  0.00000E+00  9.000E+00
#rwgt            1           1   2.7681153027044065E-002           2      233097           0
</event>
<event>
      5   9999  3.19816E-02  7.68012E+01 -1.00000E+00  1.29213E-01
       2    -1     0     0   502     0  0.000000000E+00  0.000000000E+00  4.538933892E+02  4.538933892E+02  0.000000000E+00  0.00000E+00  9.000E+00
      21    -1     0     0   501   502  0.000000000E+00  0.000000000E+00 -2.298827147E+02  2.298827147E+02  0.000000000E+00  0.00000E+00  9.000E+00
      25     1     1     2     0     0 -3.059657307E+01 -1.225843629E+02 -1.377145190E+02  2.248407549E+02  1.250000000E+02  0.00000E+00  9.000E+00
      25     1     1     2     0     0  1.012953123E+02  9.258259682E+01  1.673084151E+02  2.498987460E+02  1.250000000E+02  0.00000E+00  9.000E+00
       2     1     1     2   501     0 -7.069873920E+01  3.000176609E+01  1.944167784E+02  2.090366030E+02  2.697398305E-06  0.00000E+00  9.000E+00
#rwgt            1           1   2.6693017624364584E-002           2      233191           0
</event>
<event>
      5   9999  3.19816E-02  2.55807E+01 -1.00000E+00  1.58008E-01
      21    -1     0     0   502   501  0.000000000E+00  0.000000000E+00  5.192415455E+02  5.192415455E+02  0.000000000E+00  0.00000E+00  9.000E+00
      21    -1     0     0   501   511  0.000000000E+00  0.000000000E+00 -4.762635195E+02  4.762635195E+02  0.000000000E+00  0.00000E+00  9.000E+00
      25     1     1     2     0     0 -2.485606569E+01 -1.456535203E+01 -4.653363849E+01  1.364564143E+02  1.250000000E+02  0.00000E+00  9.000E+00
      25     1     1     2     0     0  2.892114161E+00  1.452070787E+00  4.655964257E+02  4.820949123E+02  1.250000000E+02  0.00000E+00  9.000E+00
      21     1     1     2   502   511  2.196395153E+01  1.311328124E+01 -3.760847612E+02  3.769537384E+02  5.394796609E-06  0.00000E+00  9.000E+00
#rwgt            1           1   2.9584179990058201E-002           2      233254           0
</event>
<event>
      5   9999  3.19816E-02  9.24428E+01 -1.00000E+00  1.25383E-01
      21    -1     0     0   502   501  0.000000000E+00  0.000000000E+00  9.756171968E+02  9.756171968E+02  0.000000000E+00  0.00000E+00  9.000E+00
       2    -1     0     0   501     0  0.000000000E+00  0.000000000E+00 -2.473977703E+03  2.473977703E+03  0.000000000E+00  0.00000E+00  9.000E+00
      25     1     1     2     0     0 -1.073047521E+03 -3.185043927E+02 -1.582291977E+03  1.942202083E+03  1.250000000E+02  0.00000E+00  9.000E+00
      25     1     1     2     0     0  1.067842232E+03  4.108005205E+02  3.682533004E+02  1.208420288E+03  1.250000000E+02  0.00000E+00  9.000E+00
       2     1     1     2   502     0  5.205289075E+00 -9.229612780E+01 -2.843218301E+02  2.989725293E+02  0.000000000E+00  0.00000E+00  9.000E+00
#rwgt            1           1   4.2992758779965577E-002           2      233382           0
</event>
<event>
      5   9999  3.19816E-02  6.92321E+01 -1.00000E+00  1.31464E-01
      21    -1     0     0   502   501  0.000000000E+00  0.000000000E+00  8.114401620E+02  8.114401620E+02  0.000000000E+00  0.00000E+00  9.000E+00
      21    -1     0     0   501   511  0.000000000E+00  0.000000000E+00 -5.878098323E+02  5.878098323E+02  0.000000000E+00  0.00000E+00  9.000E+00
      25     1     1     2     0     0  3.562113969E+02 -1.320333172E+02  3.240577167E+02  5.147404782E+02  1.250000000E+02  0.00000E+00  9.000E+00
      25     1     1     2     0     0 -3.477610050E+02  2.007477208E+02  2.751768920E+02  5.025780396E+02  1.250000000E+02  0.00000E+00  9.000E+00
      21     1     1     2   502   511 -8.450391904E+00 -6.871440358E+01 -3.756042789E+02  3.819314765E+02  5.394796609E-06  0.00000E+00  9.000E+00
#rwgt            1           1   2.7127793674532472E-002           2      233498           0
</event>
<event>
      5   9999  3.19816E-02  1.37920E+01 -1.00000E+00  1.80889E-01
       1    -1     0     0   502     0  0.000000000E+00  0.000000000E+00  2.031355243E+03  2.031355243E+03  0.000000000E+00  0.00000E+00  9.000E+00
      21    -1     0     0   501   502  0.000000000E+00  0.000000000E+00 -3.329170028E+01  3.329170028E+01  0.000000000E+00  0.00000E+00  9.000E+00
      25     1     1     2     0     0 -7.768962186E+01  2.548524738E+01  4.770877681E+02  4.999229077E+02  1.250000000E+02  0.00000E+00  9.000E+00
      25     1     1     2     0     0  8.122490572E+01 -1.215401940E+01  2.342651796E+02  2.779395256E+02  1.250000000E+02  0.00000E+00  9.000E+00
       1     1     1     2   501     0 -3.535283860E+00 -1.333122797E+01  1.286710595E+03  1.286784510E+03  1.525878906E-05  0.00000E+00  9.000E+00
#rwgt            1           1   7.8025741412440133E-002           2      233635           0
</event>
<event>
      5   9999  3.19816E-02  1.74118E+02 -1.00000E+00  1.13884E-01
       2    -1     0     0   502     0  0.000000000E+00  0.000000000E+00  2.842824264E+03  2.842824264E+03  0.000000000E+00  0.00000E+00  9.000E+00
      21    -1     0     0   501   502  0.000000000E+00  0.000000000E+00 -2.938840292E+02  2.938840292E+02  0.000000000E+00  0.00000E+00  9.000E+00
      25     1     1     2     0     0  5.653661201E+01  2.108400929E+02 -2.071007041E+02  3.258306844E+02  1.250000000E+02  0.00000E+00  9.000E+00
      25     1     1     2     0     0  1.686045674E+01 -5.294787481E+01  1.664924881E+02  2.154820202E+02  1.250000000E+02  0.00000E+00  9.000E+00
       2     1     1     2   501     0 -7.339706875E+01 -1.578922181E+02  2.589548450E+03  2.595395588E+03  4.315837288E-05  0.00000E+00  9.000E+00
#rwgt            2          18   6.1750315279258793E-003           2      233801           0
</event>
<event>
      5   9999  3.19816E-02  2.05785E+02 -1.00000E+00  1.11199E-01
       2    -1     0     0   502     0  0.000000000E+00  0.000000000E+00  1.915518692E+03  1.915518692E+03  0.000000000E+00  0.00000E+00  9.000E+00
      21    -1     0     0   501   502  0.000000000E+00  0.000000000E+00 -1.000332183E+03  1.000332183E+03  0.000000000E+00  0.00000E+00  9.000E+00
      25     1     1     2     0     0 -1.255797407E+03  4.489561846E+02  5.961542738E+02  1.466156097E+03  1.250000000E+02  0.00000E+00  9.000E+00
      25     1     1     2     0     0  1.089110854E+03 -3.282782126E+02  9.931682341E+01  1.148659162E+03  1.250000000E+02  0.00000E+00  9.000E+00
       2     1     1     2   501     0  1.666865528E+02 -1.206779720E+02  2.197154120E+02  3.010356159E+02  5.394796609E-06  0.00000E+00  9.000E+00
#rwgt            2          18   1.3063917826539135E-003           2      233880           0
</event>
<event>
      5   9999  3.19816E-02  1.36899E+02 -1.00000E+00  1.17989E-01
      21    -1     0     0   502   501  0.000000000E+00  0.000000000E+00  3.675686245E+02  3.675686245E+02  0.000000000E+00  0.00000E+00  9.000E+00
      21    -1     0     0   511   502  0.000000000E+00  0.000000000E+00 -8.027147528E+02  8.027147528E+02  0.000000000E+00  0.00000E+00  9.000E+00
      25     1     1     2     0     0 -4.346115690E+02 -1.552871817E+02 -4.905784566E+01  4.806589195E+02  1.250000000E+02  0.00000E+00  9.000E+00
      25     1     1     2     0     0  4.064162752E+02  2.132323939E+01 -2.371729201E+02  4.873447068E+02  1.250000000E+02  0.00000E+00  9.000E+00
      21     1     1     2   511   501  2.819529383E+01  1.339639423E+02 -1.489153625E+02  2.022797509E+02  1.907348633E-06  0.00000E+00  9.000E+00
#rwgt            1           1   2.6377926075958808E-002           2      233899           0
</event>
<event>
      5   9999  3.19816E-02  1.70542E+02 -1.00000E+00  1.14227E-01
      21    -1     0     0   502   501  0.000000000E+00  0.000000000E+00  8.670289485E+02  8.670289485E+02  0.000000000E+00  0.00000E+00  9.000E+00
       4    -1     0     0   501     0  0.000000000E+00  0.000000000E+00 -7.969152930E+02  7.969152930E+02  0.000000000E+00  0.00000E+00  9.000E+00
      25     1     1     2     0     0 -1.437859853E+02  2.373404344E+02  9.178781330E+01  3.178913242E+02  1.250000000E+02  0.00000E+00  9.000E+00
      25     1     1     2     0     0 -2.646036753E+01 -2.473735208E+02  6.213073345E+02  6.808389044E+02  1.250000000E+02  0.00000E+00  9.000E+00
       4     1     1     2   502     0  1.702463528E+02  1.003308645E+01 -6.429814923E+02  6.652140129E+02  0.000000000E+00  0.00000E+00  9.000E+00
#rwgt            1           1   2.8591816401449588E-002           2      233976           0
</event>
<event>
      5   9999  3.19816E-02  8.08118E+01 -1.00000E+00  1.28138E-01
      21    -1     0     0   502   501  0.000000000E+00  0.000000000E+00  9.296691303E+02  9.296691303E+02  0.000000000E+00  0.00000E+00  9.000E+00
       1    -1     0     0   501     0  0.000000000E+00  0.000000000E+00 -1.292235755E+03  1.292235755E+03  0.000000000E+00  0.00000E+00  9.000E+00
      25     1     1     2     0     0  1.476527139E+02  2.886435377E+02 -1.455407159E+02  3.767273759E+02  1.250000000E+02  0.00000E+00  9.000E+00
      25     1     1     2     0     0 -6.925855659E+01 -2.690247436E+02  7.838928276E+02  8.410017987E+02  1.250000000E+02  0.00000E+00  9.000E+00
       1     1     1     2   502     0 -7.839415728E+01 -1.961879411E+01 -1.000918736E+03  1.004175710E+03  1.868812365E-05  0.00000E+00  9.000E+00
#rwgt            1           1   2.9973560581838650E-002           2      234052           0
</event>
<event>
      5   9999  3.19816E-02  1.72074E+01 -1.00000E+00  1.71945E-01
      21    -1     0     0   502   501  0.000000000E+00  0.000000000E+00  7.567106871E+02  7.567106871E+02  0.000000000E+00  0.00000E+00  9.000E+00
      21    -1     0     0   501   511  0.000000000E+00  0.000000000E+00 -5.453619130E+01  5.453619130E+01  0.000000000E+00  0.00000E+00  9.000E+00
      25     1     1     2     0     0  1.166265051E+02 -3.736633253E+01  2.555530338E+02  3.097262301E+02  1.250000000E+02  0.00000E+00  9.000E+00
      25     1     1     2     0     0 -1.147774579E+02  2.025854192E+01  4.522099333E+02  4.834284819E+02  1.250000000E+02  0.00000E+00  9.000E+00
      21     1     1     2   502   511 -1.849047219E+00  1.710779062E+01 -5.588471254E+00  1.809216644E+01  6.307962682E-07  0.00000E+00  9.000E+00
#rwgt            1           1   3.3899750188101492E-002           2      234139           0
</event>
<event>
      5   9999  3.19816E-02  7.24170E+01 -1.00000E+00  1.30478E-01
      21    -1     0     0   502   501  0.000000000E+00  0.000000000E+00  1.582738373E+03  1.582738373E+03  0.000000000E+00  0.00000E+00  9.000E+00
      21    -1     0     0   501   512  0.000000000E+00  0.000000000E+00 -9.895081981E+01  9.895081981E+01  0.000000000E+00  0.00000E+00  9.000E+00
      25     1     1     2     0     0 -1.993054492E+02  5.489038796E+01  1.188081751E+03  1.212393857E+03  1.250000000E+02  0.00000E+00  9.000E+00
      25     1     1     2     0     0  2.575834910E+02 -1.190333724E+01  2.661127271E+02  3.910651196E+02  1.250000000E+02  0.00000E+00  9.000E+00
      21     1     1     2   502   512 -5.827804183E+01 -4.298705072E+01  2.959307536E+01  7.823021665E+01  8.259061849E-07  0.00000E+00  9.000E+00
#rwgt            1           1   2.8751213270505723E-002           2      234262           0
</event>
<event>
      5   9999  3.19816E-02  1.30910E+02 -1.00000E+00  1.18786E-01
      21    -1     0     0   502   501  0.000000000E+00  0.000000000E+00  7.047116738E+02  7.047116738E+02  0.000000000E+00  0.00000E+00  9.000E+00
      -1    -1     0     0     0   502  0.000000000E+00  0.000000000E+00 -2.411944865E+02  2.411944865E+02  0.000000000E+00  0.00000E+00  9.000E+00
      25     1     1     2     0     0  5.048951308E+01 -2.722175029E+02  2.069328052E+02  3.675564524E+02  1.250000000E+02  0.00000E+00  9.000E+00
      25     1     1     2     0     0  6.777463475E+01  3.283507953E+02  2.678394234E+02  4.469570479E+02  1.250000000E+02  0.00000E+00  9.000E+00
      -1     1     1     2     0   501 -1.182641478E+02 -5.613329242E+01 -1.125504133E+01  1.313926601E+02  2.726220280E-06  0.00000E+00  9.000E+00
#rwgt            1           1   2.8967475455898044E-002           2      234328           0
</event>
<event>
      5   9999  3.19816E-02  9.65424E+01 -1.00000E+00  1.24519E-01
       2    -1     0     0   502     0  0.000000000E+00  0.000000000E+00  1.296987564E+03  1.296987564E+03  0.000000000E+00  0.00000E+00  9.000E+00
      21    -1     0     0   501   502  0.000000000E+00  0.000000000E+00 -2.469047669E+02  2.469047669E+02  0.000000000E+00  0.00000E+00  9.000E+00
      25     1     1     2     0     0 -6.953842117E+01  3.075185626E+02  1.483763296E+02  3.701942646E+02  1.250000000E+02  0.00000E+00  9.000E+00
      25     1     1     2     0     0  1.655890558E+02 -3.172509397E+02  1.372209586E+02  4.031407764E+02  1.250000000E+02  0.00000E+00  9.000E+00
       2     1     1     2   501     0 -9.605063459E+01  9.732377069E+00  7.644855088E+02  7.705572898E+02  1.078959322E-05  0.00000E+00  9.000E+00
#rwgt            2          18   9.4624512735958974E-004           2      234447           0
</event>
<event>
      5   9999  3.19816E-02  5.95988E+01 -1.00000E+00  1.34859E-01
      21    -1     0     0   511   501  0.000000000E+00  0.000000000E+00  2.181493648E+02  2.181493648E+02  0.000000000E+00  0.00000E+00  9.000E+00
      21    -1     0     0   501   502  0.000000000E+00  0.000000000E+00 -4.446814634E+02  4.446814634E+02  0.000000000E+00  0.00000E+00  9.000E+00
      25     1     1     2     0     0 -6.238690787E+01 -8.760014257E+01 -1.577561677E+01  1.656495739E+02  1.250000000E+02  0.00000E+00  9.000E+00
      25     1     1     2     0     0  1.866542726E+01  4.709772277E+01 -3.340430234E+02  3.602448267E+02  1.250000000E+02  0.00000E+00  9.000E+00
      21     1     1     2   511   502  4.372148061E+01  4.050241979E+01  1.232865416E+02  1.369364276E+02  2.336015456E-06  0.00000E+00  9.000E+00
#rwgt            1           1   3.1719647123194895E-002           2      234481           0
</event>
<event>
      5   9999  3.19816E-02  7.11703E+01 -1.00000E+00  1.30857E-01
      21    -1     0     0   512   501  0.000000000E+00  0.000000000E+00  8.955200098E+01  8.955200098E+01  0.000000000E+00  0.00000E+00  9.000E+00
      21    -1     0     0   501   502  0.000000000E+00  0.000000000E+00 -1.501676666E+03  1.501676666E+03  0.000000000E+00  0.00000E+00  9.000E+00
      25     1     1     2     0     0  5.367308119E+01  1.784880014E+02 -3.815282339E+02  4.426370517E+02  1.250000000E+02  0.00000E+00  9.000E+00
      25     1     1     2     0     0 -1.067414286E+02 -2.259112558E+02 -1.039936270E+03  1.076811067E+03  1.250000000E+02  0.00000E+00  9.000E+00
      21     1     1     2   512   502  5.306834741E+01  4.742325438E+01  9.339838787E+00  7.178054849E+01  1.198038533E-06  0.00000E+00  9.000E+00
#rwgt            1           1   3.5133117769195428E-002           2      234597           0
</event>
<event>
      5   9999  3.19816E-02  1.44866E+02 -1.00000E+00  1.16996E-01
      21    -1     0     0   502   511  0.000000000E+00  0.000000000E+00  1.554011490E+03  1.554011490E+03  0.000000000E+00  0.00000E+00  9.000E+00
      21    -1     0     0   501   502  0.000000000E+00  0.000000000E+00 -5.909701287E+01  5.909701287E+01  0.000000000E+00  0.00000E+00  9.000E+00
      25     1     1     2     0     0 -1.161891662E+02  9.751330119E+01  4.889779016E+02  5.270039417E+02  1.250000000E+02  0.00000E+00  9.000E+00
      25     1     1     2     0     0  1.755246211E+02  3.464406557E+01  3.358418184E+02  4.005294382E+02  1.250000000E+02  0.00000E+00  9.000E+00
      21     1     1     2   501   511 -5.933545484E+01 -1.321573668E+02  6.700947567E+02  6.855751226E+02  7.629394531E-06  0.00000E+00  9.000E+00
#rwgt            2          11   1.8009809076805618E-003           2      234683           0
</event>
<event>
      5   9999  3.19816E-02  1.33288E+02 -1.00000E+00  1.18464E-01
      21    -1     0     0   502   501  0.000000000E+00  0.000000000E+00  4.252902146E+02  4.252902146E+02  0.000000000E+00  0.00000E+00  9.000E+00
      21    -1     0     0   501   512  0.000000000E+00  0.000000000E+00 -9.236584931E+02  9.236584931E+02  0.000000000E+00  0.00000E+00  9.000E+00
      25     1     1     2     0     0 -4.707448330E+00  3.177049346E+02  2.458869082E+02  4.207659173E+02  1.250000000E+02  0.00000E+00  9.000E+00
      25     1     1     2     0     0 -1.097102125E+02 -3.860739291E+02 -5.410441086E+02  6.851592055E+02  1.250000000E+02  0.00000E+00  9.000E+00
      21     1     1     2   502   512  1.144176608E+02  6.836899444E+01 -2.032110782E+02  2.430235848E+02  2.697398305E-06  0.00000E+00  9.000E+00
#rwgt            1           1   3.1093942491428973E-002           2      234703           0
</event>
<event>
      5   9999  3.19816E-02  2.37492E+01 -1.00000E+00  1.60439E-01
      21    -1     0     0   502   501  0.000000000E+00  0.000000000E+00  1.292470635E+03  1.292470635E+03  0.000000000E+00  0.00000E+00  9.000E+00
      21    -1     0     0   501   511  0.000000000E+00  0.000000000E+00 -5.860921544E+02  5.860921544E+02  0.000000000E+00  0.00000E+00  9.000E+00
      25     1     1     2     0     0 -3.877224386E+02  1.235819485E+02  4.514931346E+02  6.205418906E+02  1.250000000E+02  0.00000E+00  9.000E+00
      25     1     1     2     0     0  4.114343928E+02 -1.249121223E+02  6.898355083E+02  8.224228392E+02  1.250000000E+02  0.00000E+00  9.000E+00
      21     1     1     2   502   511 -2.371195420E+01  1.330173826E+00 -4.349501622E+02  4.355980598E+02  5.394796609E-06  0.00000E+00  9.000E+00
#rwgt            1           1   3.2121479406986883E-002           2      234783           0
</event>
<event>
      5   9999  3.19816E-02  3.67809E+01 -1.00000E+00  1.47137E-01
      21    -1     0     0   512   501  0.000000000E+00  0.000000000E+00  5.555122443E+02  5.555122443E+02  0.000000000E+00  0.00000E+00  9.000E+00
      21    -1     0     0   501   502  0.000000000E+00  0.000000000E+00 -1.979538969E+02  1.979538969E+02  0.000000000E+00  0.00000E+00  9.000E+00
      25     1     1     2     0     0  1.704065532E+02  1.364484727E+02  3.527459028E+02  4.332565649E+02  1.250000000E+02  0.00000E+00  9.000E+00
      25     1     1     2     0     0 -1.508515059E+02 -1.676002689E+02 -4.142565096E+01  2.611266197E+02  1.250000000E+02  0.00000E+00  9.000E+00
      21     1     1     2   512   502 -1.955504737E+01  3.115179619E+01  4.623809558E+01  5.908295665E+01  6.743495762E-07  0.00000E+00  9.000E+00
#rwgt            1           1   2.8263685308800281E-002           2      234951           0
</event>
<event>
      5   9999  3.19816E-02  8.68176E+01 -1.00000E+00  1.26654E-01
      21    -1     0     0   502   501  0.000000000E+00  0.000000000E+00  1.366088477E+03  1.366088477E+03  0.000000000E+00  0.00000E+00  9.000E+00
      21    -1     0     0   501   511  0.000000000E+00  0.000000000E+00 -4.129087339E+02  4.129087339E+02  0.000000000E+00  0.00000E+00  9.000E+00
      25     1     1     2     0     0 -4.208145213E+02  5.484501385E+01  8.579422251E+01  4.506423033E+02  1.250000000E+02  0.00000E+00  9.000E+00
      25     1     1     2     0     0  3.611449650E+02  8.217234859E+00  1.054735511E+03  1.121866840E+03  1.250000000E+02  0.00000E+00  9.000E+00
      21     1     1     2   502   511  5.966955629E+01 -6.306224871E+01 -1.873499903E+02  2.064880675E+02  4.672030912E-06  0.00000E+00  9.000E+00
#rwgt            1           1   2.4257677065203230E-002           2      235067           0
</event>
<event>
      5   9999  3.19816E-02  6.87861E+01 -1.00000E+00  1.31607E-01
      21    -1     0     0   502   501  0.000000000E+00  0.000000000E+00  1.321592842E+03  1.321592842E+03  0.000000000E+00  0.00000E+00  9.000E+00
      21    -1     0     0   512   502  0.000000000E+00  0.000000000E+00 -4.859801449E+02  4.859801449E+02  0.000000000E+00  0.00000E+00  9.000E+00
      25     1     1     2     0     0 -1.501423908E+02  2.346443864E+02  8.119709001E+02  8.674805290E+02  1.250000000E+02  0.00000E+00  9.000E+00
      25     1     1     2     0     0  1.805645226E+02 -2.963373343E+02  4.077798837E+02  5.498443380E+02  1.250000000E+02  0.00000E+00  9.000E+00
      21     1     1     2   512   501 -3.042213178E+01  6.169294788E+01 -3.841380864E+02  3.902481202E+02  5.394796609E-06  0.00000E+00  9.000E+00
#rwgt            2          11   1.0996890670436091E-002           2      235281           0
</event>
<event>
      5   9999  3.19816E-02  4.35751E+01 -1.00000E+00  1.42571E-01
      21    -1     0     0   502   511  0.000000000E+00  0.000000000E+00  1.127344893E+03  1.127344893E+03  0.000000000E+00  0.00000E+00  9.000E+00
      21    -1     0     0   501   502  0.000000000E+00  0.000000000E+00 -2.036017071E+03  2.036017071E+03  0.000000000E+00  0.00000E+00  9.000E+00
      25     1     1     2     0     0  3.627804051E+02 -1.676967046E+02 -1.498658259E+03  1.556063426E+03  1.250000000E+02  0.00000E+00  9.000E+00
      25     1     1     2     0     0 -3.217269186E+02  1.530884315E+02 -4.380595214E+02  5.783298560E+02  1.250000000E+02  0.00000E+00  9.000E+00
      21     1     1     2   501   511 -4.105348651E+01  1.460827303E+01  1.028045602E+03  1.028968683E+03  1.525878906E-05  0.00000E+00  9.000E+00
#rwgt            1           1   3.0539528158959824E-002           2      235301           0
</event>
<event>
      5   9999  3.19816E-02  3.40255E+01 -1.00000E+00  1.49336E-01
      21    -1     0     0   502   512  0.000000000E+00  0.000000000E+00  3.272789072E+02  3.272789072E+02  0.000000000E+00  0.00000E+00  9.000E+00
      21    -1     0     0   501   502  0.000000000E+00  0.000000000E+00 -1.209072223E+02  1.209072223E+02  0.000000000E+00  0.00000E+00  9.000E+00
      25     1     1     2     0     0 -6.247305932E+00  6.348897294E+00  1.321729160E+02  1.821373576E+02  1.250000000E+02  0.00000E+00  9.000E+00
      25     1     1     2     0     0 -5.956231351E+00 -3.811061348E+01 -4.789048459E+01  1.393068342E+02  1.250000000E+02  0.00000E+00  9.000E+00
      21     1     1     2   501   512  1.220353728E+01  3.176171618E+01  1.220892535E+02  1.267419377E+02  1.907348633E-06  0.00000E+00  9.000E+00
#rwgt            1           1   6.6962515630254876E-002           2      235445           0
</event>
<event>
      5   9999  3.19816E-02  7.48599E+01 -1.00000E+00  1.29761E-01
      21    -1     0     0   502   501  0.000000000E+00  0.000000000E+00  4.597899831E+02  4.597899831E+02  0.000000000E+00  0.00000E+00  9.000E+00
      21    -1     0     0   511   502  0.000000000E+00  0.000000000E+00 -2.758824226E+02  2.758824226E+02  0.000000000E+00  0.00000E+00  9.000E+00
      25     1     1     2     0     0 -1.064863142E+02  6.924113869E+01 -1.599619431E+02  2.394712794E+02  1.250000000E+02  0.00000E+00  9.000E+00
      25     1     1     2     0     0  1.770213016E+02 -4.416488977E+01  3.572389054E+02  4.201567734E+02  1.250000000E+02  0.00000E+00  9.000E+00
      21     1     1     2   511   501 -7.053498741E+01 -2.507624892E+01 -1.336940171E+01  7.604435292E+01  3.769728732E-07  0.00000E+00  9.000E+00
#rwgt            1           1   2.7623922673341784E-002           2      235521           0
</event>
<event>
      5   9999  3.19816E-02  5.28837E+01 -1.00000E+00  1.37700E-01
      21    -1     0     0   502   501  0.000000000E+00  0.000000000E+00  6.381946628E+02  6.381946628E+02  0.000000000E+00  0.00000E+00  9.000E+00
      21    -1     0     0   501   512  0.000000000E+00  0.000000000E+00 -9.851507596E+02  9.851507596E+02  0.000000000E+00  0.00000E+00  9.000E+00
      25     1     1     2     0     0  3.927722032E+02 -2.576080334E+02 -2.129707582E+02  5.306726358E+02  1.250000000E+02  0.00000E+00  9.000E+00
      25     1     1     2     0     0 -4.449276900E+02  2.488623035E+02  3.337099575E+02  6.219971311E+02  1.250000000E+02  0.00000E+00  9.000E+00
      21     1     1     2   502   512  5.215548672E+01  8.745729867E+00 -4.676952962E+02  4.706756555E+02  5.394796609E-06  0.00000E+00  9.000E+00
#rwgt            1           1   2.9902192810553053E-002           2      235601           0
</event>
<event>
      5   9999  3.19816E-02  2.45565E+01 -1.00000E+00  1.59335E-01
      21    -1     0     0   502   501  0.000000000E+00  0.000000000E+00  9.064285508E+01  9.064285508E+01  0.000000000E+00  0.00000E+00  9.000E+00
      21    -1     0     0   501   511  0.000000000E+00  0.000000000E+00 -4.433556834E+02  4.433556834E+02  0.000000000E+00  0.00000E+00  9.000E+00
      25     1     1     2     0     0  1.279975105E+02 -7.040650483E+01 -1.151730456E+02  2.241211035E+02  1.250000000E+02  0.00000E+00  9.000E+00
      25     1     1     2     0     0 -1.077413522E+02  5.652455815E+01 -2.078553019E+02  2.713522640E+02  1.250000000E+02  0.00000E+00  9.000E+00
      21     1     1     2   502   511 -2.025615834E+01  1.388194668E+01 -2.968448079E+01  3.852517091E+01  5.840038640E-07  0.00000E+00  9.000E+00
#rwgt            1           1   3.4874067046850796E-002           2      235761           0
</event>
<event>
      5   9999  3.19816E-02  1.93422E+02 -1.00000E+00  1.12179E-01
      21    -1     0     0   512   501  0.000000000E+00  0.000000000E+00  1.755596480E+03  1.755596480E+03  0.000000000E+00  0.00000E+00  9.000E+00
      21    -1     0     0   501   502  0.000000000E+00  0.000000000E+00 -5.626513953E+02  5.626513953E+02  0.000000000E+00  0.00000E+00  9.000E+00
      25     1     1     2     0     0  2.182489454E+02  1.544899623E+02  1.420397498E+02  3.275668499E+02  1.250000000E+02  0.00000E+00  9.000E+00
      25     1     1     2     0     0 -6.195200468E+01 -2.684350833E+02 -4.141709850E+02  5.128918499E+02  1.250000000E+02  0.00000E+00  9.000E+00
      21     1     1     2   512   502 -1.562969407E+02  1.139451209E+02  1.465076320E+03  1.477789176E+03  3.051757812E-05  0.00000E+00  9.000E+00
#rwgt            1           1   2.6638202850420272E-002           2      235913           0
</event>
<event>
      5   9999  3.19816E-02  1.99250E+01 -1.00000E+00  1.66504E-01
      21    -1     0     0   502   511  0.000000000E+00  0.000000000E+00  1.073108641E+02  1.073108641E+02  0.000000000E+00  0.00000E+00  9.000E+00
      21    -1     0     0   501   502  0.000000000E+00  0.000000000E+00 -6.651254741E+02  6.651254741E+02  0.000000000E+00  0.00000E+00  9.000E+00
      25     1     1     2     0     0  1.534210371E+02 -8.921553445E+01 -4.586161594E+02  5.073964997E+02  1.250000000E+02  0.00000E+00  9.000E+00
      25     1     1     2     0     0 -1.401276829E+02  1.040578296E+02 -1.112065229E+02  2.417761158E+02  1.250000000E+02  0.00000E+00  9.000E+00
      21     1     1     2   501   511 -1.329335422E+01 -1.484229516E+01  1.200807239E+01  2.326372271E+01  4.129530925E-07  0.00000E+00  9.000E+00
#rwgt            1           1   2.8992370570400834E-002           2      236069           0
</event>
<event>
      5   9999  3.19816E-02  7.55176E+01 -1.00000E+00  1.29573E-01
      21    -1     0     0   502   501  0.000000000E+00  0.000000000E+00  1.325712960E+03  1.325712960E+03  0.000000000E+00  0.00000E+00  9.000E+00
      21    -1     0     0   512   502  0.000000000E+00  0.000000000E+00 -3.133531811E+02  3.133531811E+02  0.000000000E+00  0.00000E+00  9.000E+00
      25     1     1     2     0     0 -2.983365264E+02 -2.498590732E+02  1.254017254E+01  4.089211359E+02  1.250000000E+02  0.00000E+00  9.000E+00
      25     1     1     2     0     0  3.524364962E+02  3.025477636E+02  1.039092314E+03  1.145025969E+03  1.250000000E+02  0.00000E+00  9.000E+00
      21     1     1     2   512   501 -5.409996975E+01 -5.268869039E+01 -3.927270715E+01  8.511903635E+01  1.581489940E-06  0.00000E+00  9.000E+00
#rwgt            1           1   3.1235606874523061E-002           2      236191           0
</event>
<event>
      5   9999  3.19816E-02  1.19624E+01 -1.00000E+00  1.87172E-01
      21    -1     0     0   502   511  0.000000000E+00  0.000000000E+00  4.668514333E+02  4.668514333E+02  0.000000000E+00  0.00000E+00  9.000E+00
      21    -1     0     0   501   502  0.000000000E+00  0.000000000E+00 -8.382856568E+01  8.382856568E+01  0.000000000E+00  0.00000E+00  9.000E+00
      25     1     1     2     0     0 -5.355936722E+01  5.548112814E+01  2.853292214E+01  1.496191466E+02  1.250000000E+02  0.00000E+00  9.000E+00
      25     1     1     2     0     0  6.377333722E+01 -6.170793108E+01  2.325203795E+02  2.785060756E+02  1.250000000E+02  0.00000E+00  9.000E+00
      21     1     1     2   501   511 -1.021397000E+01  6.226802941E+00  1.219695660E+02  1.225547767E+02  1.348699152E-06  0.00000E+00  9.000E+00
#rwgt            1           1   3.4449368200894975E-002           2      236321           0
</event>
<event>
      5   9999  3.19816E-02  5.22809E+02 -1.00000E+00  9.83047E-02
      21    -1     0     0   512   501  0.000000000E+00  0.000000000E+00  4.086892044E+02  4.086892044E+02  0.000000000E+00  0.00000E+00  9.000E+00
      21    -1     0     0   501   502  0.000000000E+00  0.000000000E+00 -9.396215022E+02  9.396215022E+02  0.000000000E+00  0.00000E+00  9.000E+00
      25     1     1     2     0     0 -6.559573739E+01 -4.911697429E+02 -3.707671291E+02  6.313824365E+02  1.250000000E+02  0.00000E+00  9.000E+00
      25     1     1     2     0     0  3.660577308E+01 -3.083524264E+01 -1.400587679E+02  1.937324270E+02  1.250000000E+02  0.00000E+00  9.000E+00
      21     1     1     2   512   502  2.898996431E+01  5.220049855E+02 -2.010640082E+01  5.231958431E+02  1.123859763E-05  0.00000E+00  9.000E+00
#rwgt            1           1   2.8692268544841377E-002           2      236460           0
</event>
<event>
      5   9999  3.19816E-02  1.10438E+02 -1.00000E+00  1.21919E-01
      21    -1     0     0   502   511  0.000000000E+00  0.000000000E+00  9.670008601E+02  9.670008601E+02  0.000000000E+00  0.00000E+00  9.000E+00
      21    -1     0     0   501   502  0.000000000E+00  0.000000000E+00 -5.296512148E+02  5.296512148E+02  0.000000000E+00  0.00000E+00  9.000E+00
      25     1     1     2     0     0 -5.294933814E+02 -7.663111577E+01 -2.101612553E+02  5.882417207E+02  1.250000000E+02  0.00000E+00  9.000E+00
      25     1     1     2     0     0  4.803809635E+02  1.755482958E+02  5.267253834E+02  7.447467380E+02  1.250000000E+02  0.00000E+00  9.000E+00
      21     1     1     2   501   511  4.911241786E+01 -9.891718006E+01  1.207855171E+02  1.636636162E+02  1.348699152E-06  0.00000E+00  9.000E+00
#rwgt            2          11   6.1398031261351215E-003           2      236607           0
</event>
<event>
      5   9999  3.19816E-02  4.42389E+01 -1.00000E+00  1.42178E-01
      21    -1     0     0   512   501  0.000000000E+00  0.000000000E+00  3.133432368E+02  3.133432368E+02  0.000000000E+00  0.00000E+00  9.000E+00
      21    -1     0     0   501   502  0.000000000E+00  0.000000000E+00 -1.604955791E+02  1.604955791E+02  0.000000000E+00  0.00000E+00  9.000E+00
      25     1     1     2     0     0 -4.717185230E+01  7.100473431E+01  7.011794803E+01  1.667584558E+02  1.250000000E+02  0.00000E+00  9.000E+00
      25     1     1     2     0     0  7.926421279E+01 -1.014541052E+02 -3.365231145E+01  1.825739000E+02  1.250000000E+02  0.00000E+00  9.000E+00
      21     1     1     2   512   502 -3.209236049E+01  3.044937088E+01  1.163820211E+02  1.245064602E+02  0.000000000E+00  0.00000E+00  9.000E+00
#rwgt            1           1   2.7085045888776485E-002           2      236657           0
</event>
<event>
      5   9999  3.19816E-02  2.06603E+02 -1.00000E+00  1.11137E-01
       2    -1     0     0   502     0  0.000000000E+00  0.000000000E+00  2.099905925E+03  2.099905925E+03  0.000000000E+00  0.00000E+00  9.000E+00
      21    -1     0     0   501   502  0.000000000E+00  0.000000000E+00 -3.559903634E+02  3.559903634E+02  0.000000000E+00  0.00000E+00  9.000E+00
      25     1     1     2     0     0  2.472982246E+02  4.731873085E+02  5.339971795E+01  5.509438907E+02  1.250000000E+02  0.00000E+00  9.000E+00
      25     1     1     2     0     0 -1.454174384E+02 -2.934513795E+02  2.069689407E+02  4.070885480E+02  1.250000000E+02  0.00000E+00  9.000E+00
       2     1     1     2   501     0 -1.018807862E+02 -1.797359290E+02  1.483546903E+03  1.497863850E+03  2.157918644E-05  0.00000E+00  9.000E+00
#rwgt            1           1   2.9566247812866507E-002           2      236776           0
</event>
<event>
      5   9999  3.19816E-02  6.10754E+01 -1.00000E+00  1.34292E-01
      21    -1     0     0   502   511  0.000000000E+00  0.000000000E+00  1.035288768E+02  1.035288768E+02  0.000000000E+00  0.00000E+00  9.000E+00
      21    -1     0     0   501   502  0.000000000E+00  0.000000000E+00 -5.390566322E+02  5.390566322E+02  0.000000000E+00  0.00000E+00  9.000E+00
      25     1     1     2     0     0 -6.282739527E+01 -8.596982116E-01 -4.186231143E+02  4.413822974E+02  1.250000000E+02  0.00000E+00  9.000E+00
      25     1     1     2     0     0  2.556815459E+00 -9.022931133E+00  2.409019968E+01  1.276451656E+02  1.250000000E+02  0.00000E+00  9.000E+00
      21     1     1     2   501   511  6.027057981E+01  9.882629344E+00 -4.099484074E+01  7.355804593E+01  8.259061849E-07  0.00000E+00  9.000E+00
#rwgt            1           1   2.7789192130639975E-002           2      236852           0
</event>
<event>
      5   9999  3.19816E-02  2.53394E+01 -1.00000E+00  1.58314E-01
      21    -1     0     0   502   512  0.000000000E+00  0.000000000E+00  4.941092624E+02  4.941092624E+02  0.000000000E+00  0.00000E+00  9.000E+00
      21    -1     0     0   501   502  0.000000000E+00  0.000000000E+00 -1.431159147E+02  1.431159147E+02  0.000000000E+00  0.00000E+00  9.000E+00
      25     1     1     2     0     0 -2.221464349E+01  5.350015778E+01 -8.848466614E+01  1.637384909E+02  1.250000000E+02  0.00000E+00  9.000E+00
      25     1     1     2     0     0  3.891362106E+01 -7.255866970E+01  3.931941966E+02  4.207204615E+02  1.250000000E+02  0.00000E+00  9.000E+00
      21     1     1     2   501   512 -1.669897758E+01  1.905851192E+01  4.628381727E+01  5.276622470E+01  6.743495762E-07  0.00000E+00  9.000E+00
#rwgt            1           1   2.8768282421140882E-002           2      236892           0
</event>
<event>
      5   9999  3.19816E-02  9.52047E+01 -1.00000E+00  1.24795E-01
      21    -1     0     0   502   501  0.000000000E+00  0.000000000E+00  5.700906117E+02  5.700906117E+02  0.000000000E+00  0.00000E+00  9.000E+00
      21    -1     0     0   511   502  0.000000000E+00  0.000000000E+00 -6.824689552E+02  6.824689552E+02  0.000000000E+00  0.00000E+00  9.000E+00
      25     1     1     2     0     0 -3.567866858E+02 -3.107920357E+02  2.054402771E+02  5.307722073E+02  1.250000000E+02  0.00000E+00  9.000E+00
      25     1     1     2     0     0  3.576867924E+02  2.155915495E+02 -5.151131264E+01  4.389737725E+02  1.250000000E+02  0.00000E+00  9.000E+00
      21     1     1     2   511   501 -9.001065960E-01  9.520048619E+01 -2.663073079E+02  2.828135871E+02  3.814697266E-06  0.00000E+00  9.000E+00
#rwgt            1           1   2.7272618479354190E-002           2      237081           0
</event>
<event>
      5   9999  3.19816E-02  1.00306E+02 -1.00000E+00  1.23768E-01
      21    -1     0     0   512   501  0.000000000E+00  0.000000000E+00  3.074631850E+02  3.074631850E+02  0.000000000E+00  0.00000E+00  9.000E+00
      21    -1     0     0   501   502  0.000000000E+00  0.000000000E+00 -3.442572963E+02  3.442572963E+02  0.000000000E+00  0.00000E+00  9.000E+00
      25     1     1     2     0     0  8.098697919E+01  4.982298533E+00  1.975729966E+02  2.474748534E+02  1.250000000E+02  0.00000E+00  9.000E+00
      25     1     1     2     0     0  3.194836990E+00 -5.952316750E+01 -2.653073963E+02  2.992761751E+02  1.250000000E+02  0.00000E+00  9.000E+00
      21     1     1     2   512   502 -8.418181618E+01  5.454086897E+01  3.094028845E+01  1.049694528E+02  1.815741803E-06  0.00000E+00  9.000E+00
#rwgt            1           1   2.7506684896188929E-002           2      237137           0
</event>
<event>
      5   9999  3.19816E-02  5.64523E+00 -1.00000E+00  2.29663E-01
      21    -1     0     0   502   511  0.000000000E+00  0.000000000E+00  2.150850400E+02  2.150850400E+02  0.000000000E+00  0.00000E+00  9.000E+00
      21    -1     0     0   501   502  0.000000000E+00  0.000000000E+00 -9.466926021E+02  9.466926021E+02  0.000000000E+00  0.00000E+00  9.000E+00
      25     1     1     2     0     0  1.379552070E+02 -2.702625124E+02  7.707329693E+00  3.282649352E+02  1.250000000E+02  0.00000E+00  9.000E+00
      25     1     1     2     0     0 -1.323109235E+02  2.701590658E+02 -7.520563657E+02  8.195766459E+02  1.250000000E+02  0.00000E+00  9.000E+00
      21     1     1     2   501   511 -5.644283530E+00  1.034465935E-01  1.274147391E+01  1.393606097E+01  2.384185791E-07  0.00000E+00  9.000E+00
#rwgt            1           1   2.9255539480468881E-002           2      237234           0
</event>
<event>
      5   9999  3.19816E-02  1.73648E+02 -1.00000E+00  1.13928E-01
      21    -1     0     0   502   501  0.000000000E+00  0.000000000E+00  1.168723929E+02  1.168723929E+02  0.000000000E+00  0.00000E+00  9.000E+00
      -4    -1     0     0     0   502  0.000000000E+00  0.000000000E+00 -1.997499749E+03  1.997499749E+03  0.000000000E+00  0.00000E+00  9.000E+00
      25     1     1     2     0     0 -5.706362849E+01  8.911939468E+00 -7.158448541E+01  1.551934886E+02  1.250000000E+02  0.00000E+00  9.000E+00
      25     1     1     2     0     0  2.060611598E+02  8.027008804E+01 -1.582691623E+02  2.992968699E+02  1.250000000E+02  0.00000E+00  9.000E+00
      -4     1     1     2     0   501 -1.489975313E+02 -8.918202751E+01 -1.650773708E+03  1.659881783E+03  2.157918644E-05  0.00000E+00  9.000E+00
#rwgt            1           1   2.9312712718642730E-002           2      237597           0
</event>
<event>
      5   9999  3.19816E-02  2.24555E+02 -1.00000E+00  1.09847E-01
      21    -1     0     0   502   501  0.000000000E+00  0.000000000E+00  8.543712252E+02  8.543712252E+02  0.000000000E+00  0.00000E+00  9.000E+00
      21    -1     0     0   511   502  0.000000000E+00  0.000000000E+00 -1.685469669E+02  1.685469669E+02  0.000000000E+00  0.00000E+00  9.000E+00
      25     1     1     2     0     0  2.333658151E+02 -6.105036480E+01  2.145131291E+02  3.461612822E+02  1.250000000E+02  0.00000E+00  9.000E+00
      25     1     1     2     0     0 -1.158921017E+01  2.583528228E+01  4.296639370E+02  4.483724683E+02  1.250000000E+02  0.00000E+00  9.000E+00
      21     1     1     2   511   501 -2.217766050E+02  3.521508251E+01  4.164719209E+01  2.283844416E+02  4.211311753E-06  0.00000E+00  9.000E+00
#rwgt            2          11   4.2390044108775969E-003           2      237638           0
</event>
<event>
      5   9999  3.19816E-02  2.60322E+01 -1.00000E+00  1.57446E-01
      21    -1     0     0   512   501  0.000000000E+00  0.000000000E+00  3.814934132E+02  3.814934132E+02  0.000000000E+00  0.00000E+00  9.000E+00
      21    -1     0     0   501   502  0.000000000E+00  0.000000000E+00 -1.828251596E+02  1.828251596E+02  0.000000000E+00  0.00000E+00  9.000E+00
      25     1     1     2     0     0  1.299302762E+02  1.385329232E+02 -3.431933790E+01  2.299479603E+02  1.250000000E+02  0.00000E+00  9.000E+00
      25     1     1     2     0     0 -1.170883503E+02 -1.158886539E+02  1.753688221E+02  2.711440312E+02  1.250000000E+02  0.00000E+00  9.000E+00
      21     1     1     2   512   502 -1.284192595E+01 -2.264426929E+01  5.761876946E+01  6.322658133E+01  6.743495762E-07  0.00000E+00  9.000E+00
#rwgt            1           1   3.0190397807685000E-002           2      237658           0
</event>
<event>
      5   9999  3.19816E-02  3.90003E+02 -1.00000E+00  1.02017E-01
      21    -1     0     0   502   501  0.000000000E+00  0.000000000E+00  7.866683312E+02  7.866683312E+02  0.000000000E+00  0.00000E+00  9.000E+00
       2    -1     0     0   501     0  0.000000000E+00  0.000000000E+00 -1.309479837E+03  1.309479837E+03  0.000000000E+00  0.00000E+00  9.000E+00
      25     1     1     2     0     0  2.430271523E+02  4.669100201E+02 -2.399473756E+02  5.918335127E+02  1.250000000E+02  0.00000E+00  9.000E+00
      25     1     1     2     0     0 -5.131138696E+02 -7.482559614E+02 -5.147295079E+02  1.050592354E+03  1.250000000E+02  0.00000E+00  9.000E+00
       2     1     1     2   502     0  2.700867173E+02  2.813459413E+02  2.318653781E+02  4.537223018E+02  3.814697266E-06  0.00000E+00  9.000E+00
#rwgt            1           1   2.9118328517580734E-002           2      237817           0
</event>
<event>
      5   9999  3.19816E-02  4.08182E+02 -1.00000E+00  1.01421E-01
      21    -1     0     0   502   501  0.000000000E+00  0.000000000E+00  8.567420475E+02  8.567420475E+02  0.000000000E+00  0.00000E+00  9.000E+00
      21    -1     0     0   501   511  0.000000000E+00  0.000000000E+00 -1.581255501E+03  1.581255501E+03  0.000000000E+00  0.00000E+00  9.000E+00
      25     1     1     2     0     0 -4.707060363E+02  6.781073659E+02 -6.901891678E+01  8.377245271E+02  1.250000000E+02  0.00000E+00  9.000E+00
      25     1     1     2     0     0  8.658056452E+02 -5.755930668E+02 -4.142076896E+02  1.126108256E+03  1.250000000E+02  0.00000E+00  9.000E+00
      21     1     1     2   502   511 -3.950996088E+02 -1.025142991E+02 -2.412868471E+02  4.741647657E+02  3.814697266E-06  0.00000E+00  9.000E+00
#rwgt            2          11   4.0989586578330760E-003           2      238010           0
</event>
<event>
      5   9999  3.19816E-02  1.10844E+02 -1.00000E+00  1.21850E-01
      21    -1     0     0   512   501  0.000000000E+00  0.000000000E+00  6.389751841E+02  6.389751841E+02  0.000000000E+00  0.00000E+00  9.000E+00
      21    -1     0     0   501   502  0.000000000E+00  0.000000000E+00 -1.665305213E+03  1.665305213E+03  0.000000000E+00  0.00000E+00  9.000E+00
      25     1     1     2     0     0  7.309428260E+02 -2.614958327E+02 -1.241727217E+03  1.469751328E+03  1.250000000E+02  0.00000E+00  9.000E+00
      25     1     1     2     0     0 -6.580929409E+02  1.779541860E+02  1.633957219E+02  7.120935143E+02  1.250000000E+02  0.00000E+00  9.000E+00
      21     1     1     2   512   502 -7.284988511E+01  8.354164673E+01  5.200146634E+01  1.224355545E+02  2.939421655E-06  0.00000E+00  9.000E+00
#rwgt            1           1   2.8872542573692882E-002           2      238060           0
</event>
<event>
      5   9999  3.19816E-02  1.37612E+02 -1.00000E+00  1.17897E-01
      21    -1     0     0   502   501  0.000000000E+00  0.000000000E+00  1.633478026E+03  1.633478026E+03  0.000000000E+00  0.00000E+00  9.000E+00
      21    -1     0     0   501   511  0.000000000E+00  0.000000000E+00 -1.125176502E+02  1.125176502E+02  0.000000000E+00  0.00000E+00  9.000E+00
      25     1     1     2     0     0  2.320655104E+02  6.319019551E+01  2.344587203E+02  3.583898623E+02  1.250000000E+02  0.00000E+00  9.000E+00
      25     1     1     2     0     0 -2.540432847E+02 -1.990363120E+02  1.116372516E+03  1.168788278E+03  1.250000000E+02  0.00000E+00  9.000E+00
      21     1     1     2   502   511  2.197777429E+01  1.358461165E+02  1.701291394E+02  2.188175359E+02  5.046370146E-06  0.00000E+00  9.000E+00
#rwgt            1           1   3.1771981029693322E-002           2      238168           0
</event>
<event>
      5   9999  3.19816E-02  2.80112E+01 -1.00000E+00  1.55138E-01
       1    -1     0     0   502     0  0.000000000E+00  0.000000000E+00  2.332934187E+03  2.332934187E+03  0.000000000E+00  0.00000E+00  9.000E+00
      21    -1     0     0   501   502  0.000000000E+00  0.000000000E+00 -1.096033142E+02  1.096033142E+02  0.000000000E+00  0.00000E+00  9.000E+00
      25     1     1     2     0     0 -7.938830684E+01  5.316298906E+01 -3.068666783E+01  1.602980918E+02  1.250000000E+02  0.00000E+00  9.000E+00
      25     1     1     2     0     0  8.278726156E+01 -2.535874459E+01  3.987303702E+02  4.267407934E+02  1.250000000E+02  0.00000E+00  9.000E+00
       1     1     1     2   501     0 -3.398954724E+00 -2.780424447E+01  1.855287171E+03  1.855498616E+03  0.000000000E+00  0.00000E+00  9.000E+00
#rwgt            1           1   2.8534665611194252E-002           2      238218           0
</event>
<event>
      5   9999  3.19816E-02  3.78612E+01 -1.00000E+00  1.46336E-01
      21    -1     0     0   502   501  0.000000000E+00  0.000000000E+00  3.901323431E+02  3.901323431E+02  0.000000000E+00  0.00000E+00  9.000E+00
      21    -1     0     0   511   502  0.000000000E+00  0.000000000E+00 -1.752074532E+02  1.752074532E+02  0.000000000E+00  0.00000E+00  9.000E+00
      25     1     1     2     0     0 -1.154033392E+02  1.170243586E+02  2.671262448E+02  3.376300666E+02  1.250000000E+02  0.00000E+00  9.000E+00
      25     1     1     2     0     0  7.837697605E+01 -1.091176393E+02 -4.752675725E+01  1.895610779E+02  1.250000000E+02  0.00000E+00  9.000E+00
      21     1     1     2   511   501  3.702636314E+01 -7.906719337E+00 -4.674597606E+00  3.814865188E+01  5.430241572E-07  0.00000E+00  9.000E+00
#rwgt            1           1   2.7941274401334031E-002           2      238392           0
</event>
<event>
      5   9999  3.19816E-02  8.01186E+00 -1.00000E+00  2.07586E-01
      21    -1     0     0   502   501  0.000000000E+00  0.000000000E+00  2.957226339E+02  2.957226339E+02  0.000000000E+00  0.00000E+00  9.000E+00
      21    -1     0     0   512   502  0.000000000E+00  0.000000000E+00 -1.885177088E+02  1.885177088E+02  0.000000000E+00  0.00000E+00  9.000E+00
      25     1     1     2     0     0 -2.263887403E+01 -1.944815254E+02  2.680752517E+01  2.338358949E+02  1.250000000E+02  0.00000E+00  9.000E+00
      25     1     1     2     0     0  2.701079841E+01  1.877676405E+02  8.316958213E+01  2.419265373E+02  1.250000000E+02  0.00000E+00  9.000E+00
      21     1     1     2   512   501 -4.371924382E+00  6.713884861E+00 -2.772182143E+00  8.477910507E+00  2.064765462E-07  0.00000E+00  9.000E+00
#rwgt            1           1   2.9987740056669671E-002           2      238499           0
</event>
<event>
      5   9999  3.19816E-02  5.11399E+01 -1.00000E+00  1.38519E-01
      21    -1     0     0   502   501  0.000000000E+00  0.000000000E+00  1.849216487E+02  1.849216487E+02  0.000000000E+00  0.00000E+00  9.000E+00
      21    -1     0     0   501   511  0.000000000E+00  0.000000000E+00 -6.990805488E+02  6.990805488E+02  0.000000000E+00  0.00000E+00  9.000E+00
      25     1     1     2     0     0  1.493906141E+02  7.130846306E+01  5.555299504E+01  2.147407454E+02  1.250000000E+02  0.00000E+00  9.000E+00
      25     1     1     2     0     0 -9.825144139E+01 -7.103850061E+01 -1.083983557E+02  2.051219584E+02  1.250000000E+02  0.00000E+00  9.000E+00
      21     1     1     2   502   511 -5.113917268E+01 -2.699624504E-01 -4.613135395E+02  4.641394937E+02  0.000000000E+00  0.00000E+00  9.000E+00
#rwgt            1           1   2.9975649792610890E-002           2      238716           0
</event>
<event>
      5   9999  3.19816E-02  2.71052E+01 -1.00000E+00  1.56165E-01
      21    -1     0     0   502   501  0.000000000E+00  0.000000000E+00  5.143428182E+02  5.143428182E+02  0.000000000E+00  0.00000E+00  9.000E+00
       2    -1     0     0   501     0  0.000000000E+00  0.000000000E+00 -2.609553643E+03  2.609553643E+03  0.000000000E+00  0.00000E+00  9.000E+00
      25     1     1     2     0     0 -5.093946813E+02 -1.584419323E+02  5.456557670E+01  5.506261794E+02  1.250000000E+02  0.00000E+00  9.000E+00
      25     1     1     2     0     0  5.182548927E+02  1.840581213E+02 -1.640647148E+02  5.873736089E+02  1.250000000E+02  0.00000E+00  9.000E+00
       2     1     1     2   502     0 -8.860211407E+00 -2.561618898E+01 -1.985711687E+03  1.985896673E+03  0.000000000E+00  0.00000E+00  9.000E+00
#rwgt            1           1   3.2100221703701651E-002           2      238798           0
</event>
<event>
      5   9999  3.19816E-02  2.05931E+02 -1.00000E+00  1.11188E-01
      21    -1     0     0   502   501  0.000000000E+00  0.000000000E+00  8.466596995E+02  8.466596995E+02  0.000000000E+00  0.00000E+00  9.000E+00
      21    -1     0     0   501   511  0.000000000E+00  0.000000000E+00 -5.727418955E+02  5.727418955E+02  0.000000000E+00  0.00000E+00  9.000E+00
      25     1     1     2     0     0  2.331382278E+02  5.569932072E+01 -3.245809676E+01  2.722762855E+02  1.250000000E+02  0.00000E+00  9.000E+00
      25     1     1     2     0     0 -4.089048415E+02  5.160157920E+01  6.302346243E+02  7.633390951E+02  1.250000000E+02  0.00000E+00  9.000E+00
      21     1     1     2   502   511  1.757666138E+02 -1.073008999E+02 -3.238587235E+02  3.837862145E+02  7.629394531E-06  0.00000E+00  9.000E+00
#rwgt            2          11   3.8069546747717194E-003           2      238950           0
</event>
<event>
      5   9999  3.19816E-02  2.90107E+01 -1.00000E+00  1.54058E-01
      21    -1     0     0   512   501  0.000000000E+00  0.000000000E+00  3.245492658E+02  3.245492658E+02  0.000000000E+00  0.00000E+00  9.000E+00
      21    -1     0     0   501   502  0.000000000E+00  0.000000000E+00 -7.419025813E+02  7.419025813E+02  0.000000000E+00  0.00000E+00  9.000E+00
      25     1     1     2     0     0  9.339549307E+01  2.256523915E+02 -2.620563997E+02  3.793946185E+02  1.250000000E+02  0.00000E+00  9.000E+00
      25     1     1     2     0     0 -1.046633822E+02 -2.523854463E+02 -3.664722750E+02  4.738984759E+02  1.250000000E+02  0.00000E+00  9.000E+00
      21     1     1     2   512   502  1.126788911E+01  2.673305485E+01  2.111753592E+02  2.131587528E+02  3.814697266E-06  0.00000E+00  9.000E+00
#rwgt            1           1   2.7342006926481852E-002           2      238970           0
</event>
<event>
      5   9999  3.19816E-02  6.59457E+01 -1.00000E+00  1.32547E-01
       2    -1     0     0   502     0  0.000000000E+00  0.000000000E+00  1.653693482E+03  1.653693482E+03  0.000000000E+00  0.00000E+00  9.000E+00
      21    -1     0     0   501   502  0.000000000E+00  0.000000000E+00 -1.598756406E+02  1.598756406E+02  0.000000000E+00  0.00000E+00  9.000E+00
      25     1     1     2     0     0 -2.189371730E+02  1.759406700E+02  1.883821875E+02  3.605571434E+02  1.250000000E+02  0.00000E+00  9.000E+00
      25     1     1     2     0     0  2.848162772E+02 -1.789039970E+02  3.705714041E+02  5.158246964E+02  1.250000000E+02  0.00000E+00  9.000E+00
       2     1     1     2   501     0 -6.587910417E+01  2.963326943E+00  9.348642500E+02  9.371872831E+02  0.000000000E+00  0.00000E+00  9.000E+00
#rwgt            1           1   3.1049022818725843E-002           2      239074           0
</event>
<event>
      5   9999  3.19816E-02  2.83046E+01 -1.00000E+00  1.54816E-01
      21    -1     0     0   502   501  0.000000000E+00  0.000000000E+00  1.105779759E+03  1.105779759E+03  0.000000000E+00  0.00000E+00  9.000E+00
      21    -1     0     0   511   502  0.000000000E+00  0.000000000E+00 -6.199687176E+02  6.199687176E+02  0.000000000E+00  0.00000E+00  9.000E+00
      25     1     1     2     0     0  4.503050653E+02  2.182593642E+02  4.731795218E+02  6.999540426E+02  1.250000000E+02  0.00000E+00  9.000E+00
      25     1     1     2     0     0 -4.778260998E+02 -2.116454623E+02  3.794956394E+02  6.578400442E+02  1.250000000E+02  0.00000E+00  9.000E+00
      21     1     1     2   511   501  2.752103452E+01 -6.613901914E+00 -3.668641195E+02  3.679543901E+02  5.394796609E-06  0.00000E+00  9.000E+00
#rwgt            1           1   2.2861725217605471E-002           2      239168           0
</event>
<event>
      5   9999  3.19816E-02  1.17231E+02 -1.00000E+00  1.20800E-01
      21    -1     0     0   502   501  0.000000000E+00  0.000000000E+00  2.302064687E+03  2.302064687E+03  0.000000000E+00  0.00000E+00  9.000E+00
      21    -1     0     0   512   502  0.000000000E+00  0.000000000E+00 -3.888862236E+02  3.888862236E+02  0.000000000E+00  0.00000E+00  9.000E+00
      25     1     1     2     0     0 -4.704870881E+02  1.649654822E+02  1.501066883E+03  1.586631179E+03  1.250000000E+02  0.00000E+00  9.000E+00
      25     1     1     2     0     0  3.827448196E+02 -2.427116100E+02  6.714714466E+02  8.196959352E+02  1.250000000E+02  0.00000E+00  9.000E+00
      21     1     1     2   512   501  8.774226848E+01  7.774612775E+01 -2.593598656E+02  2.846237972E+02  3.814697266E-06  0.00000E+00  9.000E+00
#rwgt            1           1   2.9540618270117076E-002           2      239326           0
</event>
<event>
      5   9999  3.19816E-02  1.63284E+02 -1.00000E+00  1.14952E-01
      21    -1     0     0   502   511  0.000000000E+00  0.000000000E+00  7.455277554E+02  7.455277554E+02  0.000000000E+00  0.00000E+00  9.000E+00
      21    -1     0     0   501   502  0.000000000E+00  0.000000000E+00 -6.084410091E+02  6.084410091E+02  0.000000000E+00  0.00000E+00  9.000E+00
      25     1     1     2     0     0 -2.113085536E+02  3.832212957E+02 -2.946959447E+02  5.421997474E+02  1.250000000E+02  0.00000E+00  9.000E+00
      25     1     1     2     0     0  9.126845485E+01 -4.939105004E+02  3.739481106E+02  6.385449887E+02  1.250000000E+02  0.00000E+00  9.000E+00
      21     1     1     2   501   511  1.200400987E+02  1.106892047E+02  5.783458040E+01  1.732240284E+02  1.348699152E-06  0.00000E+00  9.000E+00
#rwgt            1           1   2.7285776895727924E-002           2      239421           0
</event>
<event>
      5   9999  3.19816E-02  9.68172E+00 -1.00000E+00  1.97395E-01
      21    -1     0     0   502   501  0.000000000E+00  0.000000000E+00  3.762802641E+02  3.762802641E+02  0.000000000E+00  0.00000E+00  9.000E+00
      21    -1     0     0   512   502  0.000000000E+00  0.000000000E+00 -6.787301516E+02  6.787301516E+02  0.000000000E+00  0.00000E+00  9.000E+00
      25     1     1     2     0     0  2.670424062E+02  3.076176050E+02 -2.823937189E+02  5.111863164E+02  1.250000000E+02  0.00000E+00  9.000E+00
      25     1     1     2     0     0 -2.634754386E+02 -2.986169103E+02  9.524148258E+01  4.281206674E+02  1.250000000E+02  0.00000E+00  9.000E+00
      21     1     1     2   512   501 -3.566967578E+00 -9.000694774E+00 -1.152976512E+02  1.157034318E+02  2.336015456E-06  0.00000E+00  9.000E+00
#rwgt            1           1   2.8543923532032292E-002           2      239497           0
</event>
<event>
      5   9999  3.19816E-02  6.25806E+01 -1.00000E+00  1.33733E-01
      21    -1     0     0   511   501  0.000000000E+00  0.000000000E+00  2.451059722E+02  2.451059722E+02  0.000000000E+00  0.00000E+00  9.000E+00
      21    -1     0     0   501   502  0.000000000E+00  0.000000000E+00 -6.573147139E+02  6.573147139E+02  0.000000000E+00  0.00000E+00  9.000E+00
      25     1     1     2     0     0 -2.422484069E+01 -3.411593991E+02 -1.334994861E+02  3.878449320E+02  1.250000000E+02  0.00000E+00  9.000E+00
      25     1     1     2     0     0  8.255592878E+01  3.184917821E+02 -2.833177159E+02  4.518256575E+02  1.250000000E+02  0.00000E+00  9.000E+00
      21     1     1     2   511   502 -5.833108809E+01  2.266761705E+01  4.608460347E+00  6.275009647E+01  9.272306672E-07  0.00000E+00  9.000E+00
#rwgt            1           1   2.8372282906230797E-002           2      239789           0
</event>
<event>
      5   9999  3.19816E-02  4.82437E+01 -1.00000E+00  1.39967E-01
      21    -1     0     0   512   501  0.000000000E+00  0.000000000E+00  2.413547779E+02  2.413547779E+02  0.000000000E+00  0.00000E+00  9.000E+00
      21    -1     0     0   501   502  0.000000000E+00  0.000000000E+00 -5.727905449E+02  5.727905449E+02  0.000000000E+00  0.00000E+00  9.000E+00
      25     1     1     2     0     0 -2.343648573E+02  3.240989787E+01 -3.451316408E+02  4.367128774E+02  1.250000000E+02  0.00000E+00  9.000E+00
      25     1     1     2     0     0  2.042960658E+02 -7.013682759E+01 -8.820304370E+01  2.646900716E+02  1.250000000E+02  0.00000E+00  9.000E+00
      21     1     1     2   512   502  3.006879157E+01  3.772692972E+01  1.018989175E+02  1.127423738E+02  0.000000000E+00  0.00000E+00  9.000E+00
#rwgt            1           1   2.4676745168649126E-002           2      239853           0
</event>
<event>
      5   9999  3.19816E-02  8.21454E+01 -1.00000E+00  1.27796E-01
      21    -1     0     0   502   501  0.000000000E+00  0.000000000E+00  4.166442368E+02  4.166442368E+02  0.000000000E+00  0.00000E+00  9.000E+00
      21    -1     0     0   501   511  0.000000000E+00  0.000000000E+00 -2.710547700E+02  2.710547700E+02  0.000000000E+00  0.00000E+00  9.000E+00
      25     1     1     2     0     0  2.341470698E+01  1.318736709E+02  2.787768037E+02  3.335871998E+02  1.250000000E+02  0.00000E+00  9.000E+00
      25     1     1     2     0     0 -6.913588091E+01 -2.001191309E+02 -1.034870054E+02  2.667620604E+02  1.250000000E+02  0.00000E+00  9.000E+00
      21     1     1     2   502   511  4.572117393E+01  6.824546001E+01 -2.970033156E+01  8.734974673E+01  2.311553887E-06  0.00000E+00  9.000E+00
#rwgt            1           1   2.9163441765148540E-002           2      239954           0
</event>
<event>
      5   9999  3.19816E-02  3.44354E+01 -1.00000E+00  1.48994E-01
      21    -1     0     0   502   501  0.000000000E+00  0.000000000E+00  7.379168909E+02  7.379168909E+02  0.000000000E+00  0.00000E+00  9.000E+00
      21    -1     0     0   512   502  0.000000000E+00  0.000000000E+00 -2.081146381E+02  2.081146381E+02  0.000000000E+00  0.00000E+00  9.000E+00
      25     1     1     2     0     0  2.954053964E+02  2.046799892E+02  2.276191071E+02  4.433888859E+02  1.250000000E+02  0.00000E+00  9.000E+00
      25     1     1     2     0     0 -2.761310372E+02 -1.761440617E+02  3.092634252E+02  4.674868408E+02  1.250000000E+02  0.00000E+00  9.000E+00
      21     1     1     2   512   501 -1.927435920E+01 -2.853592754E+01 -7.080279505E+00  3.515580238E+01  5.127385418E-07  0.00000E+00  9.000E+00
#rwgt            1           1   2.7572429705217619E-002           2      240045           0
</event>
<event>
      5   9999  3.19816E-02  5.02335E+01 -1.00000E+00  1.38960E-01
      21    -1     0     0   511   501  0.000000000E+00  0.000000000E+00  3.348128912E+02  3.348128912E+02  0.000000000E+00  0.00000E+00  9.000E+00
      21    -1     0     0   501   502  0.000000000E+00  0.000000000E+00 -2.093948399E+02  2.093948399E+02  0.000000000E+00  0.00000E+00  9.000E+00
      25     1     1     2     0     0  9.624945365E+01 -2.787790175E+01 -1.108473457E+02  1.948159870E+02  1.250000000E+02  0.00000E+00  9.000E+00
      25     1     1     2     0     0 -1.430638969E+02  4.609371542E+01  1.388389291E+02  2.397773080E+02  1.250000000E+02  0.00000E+00  9.000E+00
      21     1     1     2   511   502  4.681444328E+01 -1.821581366E+01  9.742646783E+01  1.096144361E+02  0.000000000E+00  0.00000E+00  9.000E+00
#rwgt            1           1   2.6473460292407595E-002           2      240166           0
</event>
<event>
      5   9999  3.19816E-02  1.25457E+02 -1.00000E+00  1.19554E-01
      21    -1     0     0   502   501  0.000000000E+00  0.000000000E+00  3.246078144E+02  3.246078144E+02  0.000000000E+00  0.00000E+00  9.000E+00
       1    -1     0     0   501     0  0.000000000E+00  0.000000000E+00 -3.178592435E+02  3.178592435E+02  0.000000000E+00  0.00000E+00  9.000E+00
      25     1     1     2     0     0  1.531237061E+02  4.315991734E+00 -1.202474291E+02  2.314086026E+02  1.250000000E+02  0.00000E+00  9.000E+00
      25     1     1     2     0     0 -7.494527816E+01 -1.024364292E+02 -5.816442918E+01  1.873982859E+02  1.250000000E+02  0.00000E+00  9.000E+00
       1     1     1     2   502     0 -7.817842793E+01  9.812043750E+01  1.851604292E+02  2.236601694E+02  0.000000000E+00  0.00000E+00  9.000E+00
#rwgt            1           1   2.7760871049719957E-002           2      240252           0
</event>
<event>
      5   9999  3.19816E-02  1.83635E+02 -1.00000E+00  1.13015E-01
      21    -1     0     0   502   501  0.000000000E+00  0.000000000E+00  1.567413019E+03  1.567413019E+03  0.000000000E+00  0.00000E+00  9.000E+00
      21    -1     0     0   511   502  0.000000000E+00  0.000000000E+00 -4.064612600E+02  4.064612600E+02  0.000000000E+00  0.00000E+00  9.000E+00
      25     1     1     2     0     0  5.283978260E+02 -2.346349554E+02  6.143041009E-01  5.915092579E+02  1.250000000E+02  0.00000E+00  9.000E+00
      25     1     1     2     0     0 -3.475087221E+02  2.662704725E+02  1.097646047E+03  1.188324081E+03  1.250000000E+02  0.00000E+00  9.000E+00
      21     1     1     2   511   501 -1.808891039E+02 -3.163551710E+01  6.269140752E+01  1.940409401E+02  3.631483605E-06  0.00000E+00  9.000E+00
#rwgt            1           1   2.3509313995961581E-002           2      240291           0
</event>
<event>
      5   9999  3.19816E-02  4.68335E+00 -1.00000E+00  2.48310E-01
      21    -1     0     0   502   512  0.000000000E+00  0.000000000E+00  7.174275471E+02  7.174275471E+02  0.000000000E+00  0.00000E+00  9.000E+00
      21    -1     0     0   501   502  0.000000000E+00  0.000000000E+00 -6.052335635E+01  6.052335635E+01  0.000000000E+00  0.00000E+00  9.000E+00
      25     1     1     2     0     0  1.261138274E+02  3.006632586E+01  4.342594694E+02  4.701222906E+02  1.250000000E+02  0.00000E+00  9.000E+00
      25     1     1     2     0     0 -1.217124570E+02 -3.166687332E+01  1.423242917E+02  2.273717596E+02  1.250000000E+02  0.00000E+00  9.000E+00
      21     1     1     2   501   512 -4.401370411E+00  1.600547460E+00  8.032042960E+01  8.045685319E+01  1.348699152E-06  0.00000E+00  9.000E+00
#rwgt            1           1   2.6132231984725477E-002           2      240406           0
</event>
<event>
      5   9999  3.19816E-02  4.21534E+01 -1.00000E+00  1.43442E-01
      21    -1     0     0   502   501  0.000000000E+00  0.000000000E+00  1.425984215E+02  1.425984215E+02  0.000000000E+00  0.00000E+00  9.000E+00
      21    -1     0     0   501   511  0.000000000E+00  0.000000000E+00 -1.223052894E+03  1.223052894E+03  0.000000000E+00  0.00000E+00  9.000E+00
      25     1     1     2     0     0  2.948358198E+02  1.614465332E+01 -7.865553358E+02  8.494016169E+02  1.250000000E+02  0.00000E+00  9.000E+00
      25     1     1     2     0     0 -3.303062054E+02 -3.892105118E+01 -1.873693683E+02  4.016831061E+02  1.250000000E+02  0.00000E+00  9.000E+00
      21     1     1     2   502   511  3.547038560E+01  2.277639786E+01 -1.065297686E+02  1.145665926E+02  0.000000000E+00  0.00000E+00  9.000E+00
#rwgt            1           1   3.4295453137108543E-002           2      240700           0
</event>
<event>
      5   9999  3.19816E-02  8.29893E+01 -1.00000E+00  1.27583E-01
      21    -1     0     0   502   501  0.000000000E+00  0.000000000E+00  4.308498990E+02  4.308498990E+02  0.000000000E+00  0.00000E+00  9.000E+00
      21    -1     0     0   512   502  0.000000000E+00  0.000000000E+00 -2.900135335E+02  2.900135335E+02  0.000000000E+00  0.00000E+00  9.000E+00
      25     1     1     2     0     0 -4.588008070E+00 -2.630860448E+01  3.733301167E+02  3.946055860E+02  1.250000000E+02  0.00000E+00  9.000E+00
      25     1     1     2     0     0  4.831689296E+01 -4.422509710E+01 -1.130799901E+02  1.808382302E+02  1.250000000E+02  0.00000E+00  9.000E+00
      21     1     1     2   512   501 -4.372888489E+01  7.053370158E+01 -1.194137611E+02  1.454196162E+02  1.348699152E-06  0.00000E+00  9.000E+00
#rwgt            1           1   3.3919186899152694E-002           2      240813           0
</event>
<event>
      5   9999  3.19816E-02  4.30906E+01 -1.00000E+00  1.42864E-01
      21    -1     0     0   502   511  0.000000000E+00  0.000000000E+00  5.429130181E+01  5.429130181E+01  0.000000000E+00  0.00000E+00  9.000E+00
      21    -1     0     0   501   502  0.000000000E+00  0.000000000E+00 -1.055282942E+03  1.055282942E+03  0.000000000E+00  0.00000E+00  9.000E+00
      25     1     1     2     0     0  1.155133273E+02 -2.264752400E+01 -2.684645752E+02  3.186761165E+02  1.250000000E+02  0.00000E+00  9.000E+00
      25     1     1     2     0     0 -1.314572483E+02 -1.738480308E+01 -7.244996246E+02  7.470662257E+02  1.250000000E+02  0.00000E+00  9.000E+00
      21     1     1     2   501   511  1.594392102E+01  4.003232708E+01 -8.027440837E+00  4.383190202E+01  5.196212463E-07  0.00000E+00  9.000E+00
#rwgt            1           1   2.8838567674875092E-002           2      240843           0
</event>
<event>
      5   9999  3.19816E-02  2.94859E+01 -1.00000E+00  1.53563E-01
      21    -1     0     0   502   501  0.000000000E+00  0.000000000E+00  1.358184908E+02  1.358184908E+02  0.000000000E+00  0.00000E+00  9.000E+00
      21    -1     0     0   512   502  0.000000000E+00  0.000000000E+00 -5.264789752E+02  5.264789752E+02  0.000000000E+00  0.00000E+00  9.000E+00
      25     1     1     2     0     0 -5.612833009E+01 -1.336020304E+02 -8.745515480E+01  2.104122052E+02  1.250000000E+02  0.00000E+00  9.000E+00
      25     1     1     2     0     0  5.483258484E+01  1.630594755E+02 -8.072051442E+01  2.274550645E+02  1.250000000E+02  0.00000E+00  9.000E+00
      21     1     1     2   512   501  1.295745250E+00 -2.945744508E+01 -2.224848152E+02  2.244301964E+02  0.000000000E+00  0.00000E+00  9.000E+00
#rwgt            1           1   3.2894298150525303E-002           2      240911           0
</event>
<event>
      5   9999  3.19816E-02  6.68905E+01 -1.00000E+00  1.32228E-01
      21    -1     0     0   502   511  0.000000000E+00  0.000000000E+00  7.598072775E+02  7.598072775E+02  0.000000000E+00  0.00000E+00  9.000E+00
      21    -1     0     0   501   502  0.000000000E+00  0.000000000E+00 -8.004292727E+02  8.004292727E+02  0.000000000E+00  0.00000E+00  9.000E+00
      25     1     1     2     0     0 -2.079709185E+02 -2.853248930E+02 -5.071927639E+02  6.305011477E+02  1.250000000E+02  0.00000E+00  9.000E+00
      25     1     1     2     0     0  1.900542918E+02  2.208784860E+02 -1.202562278E+02  3.391083894E+02  1.250000000E+02  0.00000E+00  9.000E+00
      21     1     1     2   501   511  1.791662665E+01  6.444640694E+01  5.868269964E+02  5.906270131E+02  7.629394531E-06  0.00000E+00  9.000E+00
#rwgt            1           1   2.4017692158861962E-002           2      241042           0
</event>
<event>
      5   9999  3.19816E-02  3.38762E+02 -1.00000E+00  1.03905E-01
      -5    -1     0     0     0   501  0.000000000E+00  0.000000000E+00  2.980077707E+02  2.980077707E+02  0.000000000E+00  0.00000E+00  9.000E+00
      21    -1     0     0   501   502  0.000000000E+00  0.000000000E+00 -1.300130719E+03  1.300130719E+03  0.000000000E+00  0.00000E+00  9.000E+00
      25     1     1     2     0     0 -2.033003583E+01 -2.868636094E+02 -2.093822389E+02  3.770543233E+02  1.250000000E+02  0.00000E+00  9.000E+00
      25     1     1     2     0     0 -3.172497672E+02  2.585892661E+02 -7.707770808E+02  8.816111000E+02  1.250000000E+02  0.00000E+00  9.000E+00
      -5     1     1     2     0   502  3.375798030E+02  2.827434326E+01 -2.196362875E+01  3.394730665E+02  8.252176428E-06  0.00000E+00  9.000E+00
#rwgt            2           1   3.3846365416991832E-005           2      241133           0
</event>
<event>
      5   9999  3.19816E-02  1.19897E+01 -1.00000E+00  1.87067E-01
      21    -1     0     0   502   501  0.000000000E+00  0.000000000E+00  1.625017048E+02  1.625017048E+02  0.000000000E+00  0.00000E+00  9.000E+00
      21    -1     0     0   511   502  0.000000000E+00  0.000000000E+00 -7.937240369E+02  7.937240369E+02  0.000000000E+00  0.00000E+00  9.000E+00
      25     1     1     2     0     0  9.448966793E+01  1.201285484E+02  5.149047328E+01  2.040476276E+02  1.250000000E+02  0.00000E+00  9.000E+00
      25     1     1     2     0     0 -9.599375645E+01 -1.320235006E+02 -2.703723489E+02  3.396633820E+02  1.250000000E+02  0.00000E+00  9.000E+00
      21     1     1     2   511   501  1.504088518E+00  1.189495221E+01 -4.123404564E+02  4.125147321E+02  5.394796609E-06  0.00000E+00  9.000E+00
#rwgt            1           1   2.5510957870971306E-002           2      241167           0
</event>
<event>
      5   9999  3.19816E-02  5.36840E+02 -1.00000E+00  9.79827E-02
      21    -1     0     0   512   501  0.000000000E+00  0.000000000E+00  1.078690500E+03  1.078690500E+03  0.000000000E+00  0.00000E+00  9.000E+00
      21    -1     0     0   501   502  0.000000000E+00  0.000000000E+00 -1.373546538E+03  1.373546538E+03  0.000000000E+00  0.00000E+00  9.000E+00
      25     1     1     2     0     0  4.090423369E+02  1.941591156E+02 -8.760711822E+02  9.940518658E+02  1.250000000E+02  0.00000E+00  9.000E+00
      25     1     1     2     0     0 -5.383376998E+02  3.268786163E+02 -3.236504053E+01  6.429071509E+02  1.250000000E+02  0.00000E+00  9.000E+00
      21     1     1     2   512   502  1.292953629E+02 -5.210377319E+02  6.135801846E+02  8.152780212E+02  7.629394531E-06  0.00000E+00  9.000E+00
#rwgt            2          11   2.2333493833574876E-003           2      241413           0
</event>
<event>
      5   9999  3.19816E-02  3.96918E+01 -1.00000E+00  1.45049E-01
      21    -1     0     0   502   501  0.000000000E+00  0.000000000E+00  2.875714895E+02  2.875714895E+02  0.000000000E+00  0.00000E+00  9.000E+00
       2    -1     0     0   501     0  0.000000000E+00  0.000000000E+00 -2.258286099E+03  2.258286099E+03  0.000000000E+00  0.00000E+00  9.000E+00
      25     1     1     2     0     0 -2.521255557E+02  1.465371235E+02  1.185523190E+02  3.387035234E+02  1.250000000E+02  0.00000E+00  9.000E+00
      25     1     1     2     0     0  2.124398190E+02 -1.472329191E+02 -2.922079522E+02  4.096568033E+02  1.250000000E+02  0.00000E+00  9.000E+00
       2     1     1     2   502     0  3.968573677E+01  6.957955645E-01 -1.797058976E+03  1.797497262E+03  3.051757812E-05  0.00000E+00  9.000E+00
#rwgt            1           1   2.8067108900009276E-002           2      241463           0
</event>
<event>
      5   9999  3.19816E-02  7.21370E+00 -1.00000E+00  2.13724E-01
      21    -1     0     0   502   501  0.000000000E+00  0.000000000E+00  1.447780102E+03  1.447780102E+03  0.000000000E+00  0.00000E+00  9.000E+00
      21    -1     0     0   501   511  0.000000000E+00  0.000000000E+00 -3.288028117E+01  3.288028117E+01  0.000000000E+00  0.00000E+00  9.000E+00
      25     1     1     2     0     0  1.354137884E+02  8.179327491E+01  5.697519485E+02  6.043751457E+02  1.250000000E+02  0.00000E+00  9.000E+00
      25     1     1     2     0     0 -1.420774608E+02 -8.455605055E+01  8.438792604E+02  8.689608373E+02  1.250000000E+02  0.00000E+00  9.000E+00
      21     1     1     2   502   511  6.663672408E+00  2.762775640E+00  1.268611645E+00  7.324399955E+00  2.457562462E-07  0.00000E+00  9.000E+00
#rwgt            1           1   3.2385760743563148E-002           2      241580           0
</event>
<event>
      5   9999  3.19816E-02  1.73501E+01 -1.00000E+00  1.71629E-01
       2    -1     0     0   502     0  0.000000000E+00  0.000000000E+00  8.185114469E+02  8.185114469E+02  0.000000000E+00  0.00000E+00  9.000E+00
      21    -1     0     0   501   502  0.000000000E+00  0.000000000E+00 -2.352035515E+02  2.352035515E+02  0.000000000E+00  0.00000E+00  9.000E+00
      25     1     1     2     0     0 -1.391337371E+02 -1.351158122E+02 -1.363061940E+02  2.679904066E+02  1.250000000E+02  0.00000E+00  9.000E+00
      25     1     1     2     0     0  1.457112276E+02  1.511708259E+02  4.222666937E+02  4.878714390E+02  1.250000000E+02  0.00000E+00  9.000E+00
       2     1     1     2   501     0 -6.577490464E+00 -1.605501366E+01  2.973473958E+02  2.978531528E+02  0.000000000E+00  0.00000E+00  9.000E+00
#rwgt            1           1   3.3586346283833064E-002           2      241776           0
</event>
<event>
      5   9999  3.19816E-02  3.47500E+01 -1.00000E+00  1.48735E-01
      21    -1     0     0   502   511  0.000000000E+00  0.000000000E+00  5.700839065E+02  5.700839065E+02  0.000000000E+00  0.00000E+00  9.000E+00
      21    -1     0     0   501   502  0.000000000E+00  0.000000000E+00 -2.006688452E+02  2.006688452E+02  0.000000000E+00  0.00000E+00  9.000E+00
      25     1     1     2     0     0 -9.146186656E+01 -8.052214394E+01 -1.081296854E+02  2.053439007E+02  1.250000000E+02  0.00000E+00  9.000E+00
      25     1     1     2     0     0  1.244038541E+02  9.158493897E+01  1.872497510E+02  2.730413691E+02  1.250000000E+02  0.00000E+00  9.000E+00
      21     1     1     2   501   511 -3.294198758E+01 -1.106279502E+01  2.902949957E+02  2.923674819E+02  5.394796609E-06  0.00000E+00  9.000E+00
#rwgt            1           1   2.4919297681731199E-002           2      241902           0
</event>
<event>
      5   9999  3.19816E-02  6.19243E+01 -1.00000E+00  1.33975E-01
      21    -1     0     0   502   501  0.000000000E+00  0.000000000E+00  2.396639174E+02  2.396639174E+02  0.000000000E+00  0.00000E+00  9.000E+00
       2    -1     0     0   501     0  0.000000000E+00  0.000000000E+00 -1.076340150E+03  1.076340150E+03  0.000000000E+00  0.00000E+00  9.000E+00
      25     1     1     2     0     0  2.633029465E+02  1.353395354E+02 -2.059104577E+02  3.816665404E+02  1.250000000E+02  0.00000E+00  9.000E+00
      25     1     1     2     0     0 -2.822060180E+02 -1.943080976E+02 -7.151086922E+01  3.716647385E+02  1.250000000E+02  0.00000E+00  9.000E+00
       2     1     1     2   502     0  1.890307148E+01  5.896856219E+01 -5.592549061E+02  5.626727889E+02  7.629394531E-06  0.00000E+00  9.000E+00
#rwgt            1           1   2.8044881939146445E-002           2      241988           0
</event>
<event>
      5   9999  3.19816E-02  4.45908E+01 -1.00000E+00  1.41973E-01
      21    -1     0     0   502   511  0.000000000E+00  0.000000000E+00  3.028706297E+02  3.028706297E+02  0.000000000E+00  0.00000E+00  9.000E+00
      21    -1     0     0   501   502  0.000000000E+00  0.000000000E+00 -2.593223924E+02  2.593223924E+02  0.000000000E+00  0.00000E+00  9.000E+00
      25     1     1     2     0     0 -1.482048727E+02  7.461089766E+01 -1.115597189E+02  2.358008508E+02  1.250000000E+02  0.00000E+00  9.000E+00
      25     1     1     2     0     0  1.729500810E+02 -1.117055706E+02  1.432888094E+02  2.802615705E+02  1.250000000E+02  0.00000E+00  9.000E+00
      21     1     1     2   501   511 -2.474520829E+01  3.709467297E+01  1.181914683E+01  4.613060078E+01  6.307962682E-07  0.00000E+00  9.000E+00
#rwgt            1           1   2.4879484782418870E-002           2      242113           0
</event>
<event>
      5   9999  3.19816E-02  1.95473E+02 -1.00000E+00  1.12011E-01
      21    -1     0     0   502   501  0.000000000E+00  0.000000000E+00  5.444421543E+02  5.444421543E+02  0.000000000E+00  0.00000E+00  9.000E+00
      21    -1     0     0   512   502  0.000000000E+00  0.000000000E+00 -3.321302368E+02  3.321302368E+02  0.000000000E+00  0.00000E+00  9.000E+00
      25     1     1     2     0     0  2.421346469E+02  2.961004269E+01 -8.953548803E+00  2.742464364E+02  1.250000000E+02  0.00000E+00  9.000E+00
      25     1     1     2     0     0 -2.765811991E+02  1.628043198E+02  2.164566254E+02  4.067934081E+02  1.250000000E+02  0.00000E+00  9.000E+00
      21     1     1     2   512   501  3.444655219E+01 -1.924143625E+02  4.808840906E+00  1.955325466E+02  2.235770146E-06  0.00000E+00  9.000E+00
#rwgt            1           1   2.7980658965341115E-002           2      242201           0
</event>
<event>
      5   9999  3.19816E-02  2.69617E+02 -1.00000E+00  1.07121E-01
      -4    -1     0     0     0   501  0.000000000E+00  0.000000000E+00  1.030430694E+03  1.030430694E+03  0.000000000E+00  0.00000E+00  9.000E+00
      21    -1     0     0   501   502  0.000000000E+00  0.000000000E+00 -1.766459086E+03  1.766459086E+03  0.000000000E+00  0.00000E+00  9.000E+00
      25     1     1     2     0     0  4.529256273E+02 -3.113557715E+02 -1.117435824E+03  1.251547786E+03  1.250000000E+02  0.00000E+00  9.000E+00
      25     1     1     2     0     0 -6.295708847E+02  5.150460536E+02 -2.489152497E+02  8.597765627E+02  1.250000000E+02  0.00000E+00  9.000E+00
      -4     1     1     2     0   502  1.766452575E+02 -2.036902820E+02  6.303226814E+02  6.855654313E+02  7.629394531E-06  0.00000E+00  9.000E+00
#rwgt            1           1   3.2471214816822275E-002           2      242241           0
</event>
<event>
      5   9999  3.19816E-02  1.85569E+02 -1.00000E+00  1.12845E-01
      21    -1     0     0   502   501  0.000000000E+00  0.000000000E+00  5.448950302E+02  5.448950302E+02  0.000000000E+00  0.00000E+00  9.000E+00
      21    -1     0     0   501   511  0.000000000E+00  0.000000000E+00 -5.563458047E+02  5.563458047E+02  0.000000000E+00  0.00000E+00  9.000E+00
      25     1     1     2     0     0 -5.260548896E+01 -2.270486286E+02 -3.032641338E+02  4.023835882E+02  1.250000000E+02  0.00000E+00  9.000E+00
      25     1     1     2     0     0  1.417821499E+02  6.431175940E+01  4.255897951E+02  4.700955798E+02  1.250000000E+02  0.00000E+00  9.000E+00
      21     1     1     2   502   511 -8.917666094E+01  1.627368692E+02 -1.337764358E+02  2.287616669E+02  4.672030912E-06  0.00000E+00  9.000E+00
#rwgt            1           1   3.0151701092206395E-002           2      242304           0
</event>
<event>
      5   9999  3.19816E-02  3.88974E+01 -1.00000E+00  1.45597E-01
      21    -1     0     0   502   501  0.000000000E+00  0.000000000E+00  8.801331023E+02  8.801331023E+02  0.000000000E+00  0.00000E+00  9.000E+00
      21    -1     0     0   501   512  0.000000000E+00  0.000000000E+00 -1.996752681E+02  1.996752681E+02  0.000000000E+00  0.00000E+00  9.000E+00
      25     1     1     2     0     0 -3.277328731E+02 -1.408618661E+02  1.551492655E+02  4.085917229E+02  1.250000000E+02  0.00000E+00  9.000E+00
      25     1     1     2     0     0  3.067300331E+02  1.736015653E+02  5.016177322E+02  6.256725708E+02  1.250000000E+02  0.00000E+00  9.000E+00
      21     1     1     2   502   512  2.100283999E+01 -3.273969920E+01  2.369083655E+01  4.554407676E+01  4.768371582E-07  0.00000E+00  9.000E+00
#rwgt            1           1   3.0673604039823950E-002           2      242365           0
</event>
<event>
      5   9999  3.19816E-02  1.93563E+02 -1.00000E+00  1.12168E-01
      21    -1     0     0   502   511  0.000000000E+00  0.000000000E+00  1.132906859E+02  1.132906859E+02  0.000000000E+00  0.00000E+00  9.000E+00
      21    -1     0     0   501   502  0.000000000E+00  0.000000000E+00 -8.885488172E+02  8.885488172E+02  0.000000000E+00  0.00000E+00  9.000E+00
      25     1     1     2     0     0 -2.088453486E+02  2.753645289E+01 -3.837599162E+02  4.552705890E+02  1.250000000E+02  0.00000E+00  9.000E+00
      25     1     1     2     0     0  2.191202673E+01  2.268859092E+01 -3.115048639E+02  3.371278530E+02  1.250000000E+02  0.00000E+00  9.000E+00
      21     1     1     2   501   511  1.869333219E+02 -5.022504380E+01 -7.999335123E+01  2.094410612E+02  1.348699152E-06  0.00000E+00  9.000E+00
#rwgt            2          11   1.1352996119461719E-002           2      242466           0
</event>
<event>
      5   9999  3.19816E-02  5.93842E+01 -1.00000E+00  1.34943E-01
      21    -1     0     0   502   512  0.000000000E+00  0.000000000E+00  1.575456508E+03  1.575456508E+03  0.000000000E+00  0.00000E+00  9.000E+00
      21    -1     0     0   501   502  0.000000000E+00  0.000000000E+00 -1.273874221E+02  1.273874221E+02  0.000000000E+00  0.00000E+00  9.000E+00
      25     1     1     2     0     0 -3.452663292E+02 -1.238423871E+02  3.462826629E+02  5.196945810E+02  1.250000000E+02  0.00000E+00  9.000E+00
      25     1     1     2     0     0  2.882771502E+02  1.071474609E+02  6.746596252E+02  7.519141597E+02  1.250000000E+02  0.00000E+00  9.000E+00
      21     1     1     2   501   512  5.698917899E+01  1.669492620E+01  4.271267979E+02  4.312351894E+02  7.629394531E-06  0.00000E+00  9.000E+00
#rwgt            1           1   3.1774911780981435E-002           2      242501           0
</event>
<event>
      5   9999  3.19816E-02  3.32373E+01 -1.00000E+00  1.50012E-01
      21    -1     0     0   502   511  0.000000000E+00  0.000000000E+00  9.491164409E+02  9.491164409E+02  0.000000000E+00  0.00000E+00  9.000E+00
      21    -1     0     0   501   502  0.000000000E+00  0.000000000E+00 -1.032781202E+02  1.032781202E+02  0.000000000E+00  0.00000E+00  9.000E+00
      25     1     1     2     0     0 -1.850509470E+02  1.173425475E+02  1.725433291E+02  3.056293946E+02  1.250000000E+02  0.00000E+00  9.000E+00
      25     1     1     2     0     0  1.885675081E+02 -8.429179763E+01  3.709359854E+02  4.425848139E+02  1.250000000E+02  0.00000E+00  9.000E+00
      21     1     1     2   501   511 -3.516561076E+00 -3.305074989E+01  3.023590062E+02  3.041803526E+02  3.814697266E-06  0.00000E+00  9.000E+00
#rwgt            1           1   2.8309281748696982E-002           2      242625           0
</event>
<event>
      5   9999  3.19816E-02  3.52775E+01 -1.00000E+00  1.48307E-01
      21    -1     0     0   502   501  0.000000000E+00  0.000000000E+00  2.139755758E+02  2.139755758E+02  0.000000000E+00  0.00000E+00  9.000E+00
      21    -1     0     0   501   512  0.000000000E+00  0.000000000E+00 -1.112333500E+03  1.112333500E+03  0.000000000E+00  0.00000E+00  9.000E+00
      25     1     1     2     0     0 -4.499899734E+02  5.358811916E+01 -4.285278327E+02  6.361004371E+02  1.250000000E+02  0.00000E+00  9.000E+00
      25     1     1     2     0     0  4.523442935E+02 -1.838930956E+01 -4.272992443E+02  6.349513137E+02  1.250000000E+02  0.00000E+00  9.000E+00
      21     1     1     2   502   512 -2.354320120E+00 -3.519880960E+01 -4.253084762E+01  5.525732549E+01  8.259061849E-07  0.00000E+00  9.000E+00
#rwgt            1           1   2.7083269983605850E-002           2      242759           0
</event>
<event>
      5   9999  3.19816E-02  3.91048E+01 -1.00000E+00  1.45452E-01
      21    -1     0     0   502   501  0.000000000E+00  0.000000000E+00  5.072293003E+02  5.072293003E+02  0.000000000E+00  0.00000E+00  9.000E+00
      21    -1     0     0   511   502  0.000000000E+00  0.000000000E+00 -1.220221889E+03  1.220221889E+03  0.000000000E+00  0.00000E+00  9.000E+00
      25     1     1     2     0     0 -1.432902339E+02  8.334501535E+01 -2.341154497E+02  3.129113717E+02  1.250000000E+02  0.00000E+00  9.000E+00
      25     1     1     2     0     0  1.453059478E+02 -4.429216606E+01  4.467193713E+02  4.881176202E+02  1.250000000E+02  0.00000E+00  9.000E+00
      21     1     1     2   511   501 -2.015713864E+00 -3.905284929E+01 -9.255965100E+02  9.264221972E+02  1.078959322E-05  0.00000E+00  9.000E+00
#rwgt            1           1   2.7785354225681885E-002           2      242929           0
</event>
<event>
      5   9999  3.19816E-02  2.66721E+01 -1.00000E+00  1.56673E-01
       2    -1     0     0   502     0  0.000000000E+00  0.000000000E+00  4.068092547E+03  4.068092547E+03  0.000000000E+00  0.00000E+00  9.000E+00
      21    -1     0     0   501   502  0.000000000E+00  0.000000000E+00 -8.382612534E+02  8.382612534E+02  0.000000000E+00  0.00000E+00  9.000E+00
      25     1     1     2     0     0  1.143956799E+01  2.724632381E+02  4.303646345E+01  3.030581083E+02  1.250000000E+02  0.00000E+00  9.000E+00
      25     1     1     2     0     0  1.072256735E+01 -2.873037712E+02 -6.735097732E+02  7.428989467E+02  1.250000000E+02  0.00000E+00  9.000E+00
       2     1     1     2   501     0 -2.216213533E+01  1.484053315E+01  3.860304603E+03  3.860396745E+03  4.315837288E-05  0.00000E+00  9.000E+00
#rwgt            1           1   2.5295747018024176E-002           2      243080           0
</event>
<event>
      5   9999  3.19816E-02  3.47418E+02 -1.00000E+00  1.03562E-01
      21    -1     0     0   502   511  0.000000000E+00  0.000000000E+00  4.646879666E+02  4.646879666E+02  0.000000000E+00  0.00000E+00  9.000E+00
      21    -1     0     0   501   502  0.000000000E+00  0.000000000E+00 -5.349538828E+02  5.349538828E+02  0.000000000E+00  0.00000E+00  9.000E+00
      25     1     1     2     0     0 -2.706243382E+02 -3.165097672E+02 -3.649461421E+01  4.363173410E+02  1.250000000E+02  0.00000E+00  9.000E+00
      25     1     1     2     0     0 -2.263840544E+01  1.302404987E+02 -1.030130579E+02  2.090736114E+02  1.250000000E+02  0.00000E+00  9.000E+00
      21     1     1     2   501   511  2.932627437E+02  1.862692686E+02  6.924175595E+01  3.542508970E+02  4.862803949E-06  0.00000E+00  9.000E+00
#rwgt            1           1   2.7050024246291132E-002           2      243199           0
</event>
<event>
      5   9999  3.19816E-02  6.82109E+01 -1.00000E+00  1.31793E-01
      21    -1     0     0   512   501  0.000000000E+00  0.000000000E+00  1.480725214E+03  1.480725214E+03  0.000000000E+00  0.00000E+00  9.000E+00
      21    -1     0     0   501   502  0.000000000E+00  0.000000000E+00 -8.772814012E+01  8.772814012E+01  0.000000000E+00  0.00000E+00  9.000E+00
      25     1     1     2     0     0 -1.262343907E+01  2.933000911E+02  6.568399698E+02  7.302383450E+02  1.250000000E+02  0.00000E+00  9.000E+00
      25     1     1     2     0     0  5.667845161E+01 -2.412243623E+02  3.530245671E+02  4.490578858E+02  1.250000000E+02  0.00000E+00  9.000E+00
      21     1     1     2   512   502 -4.405501254E+01 -5.207572876E+01  3.831325368E+02  3.891571231E+02  0.000000000E+00  0.00000E+00  9.000E+00
#rwgt            1           1   2.9808642603262138E-002           2      243342           0
</event>
<event>
      5   9999  3.19816E-02  1.11866E+02 -1.00000E+00  1.21677E-01
      21    -1     0     0   511   501  0.000000000E+00  0.000000000E+00  2.061563947E+03  2.061563947E+03  0.000000000E+00  0.00000E+00  9.000E+00
      21    -1     0     0   501   502  0.000000000E+00  0.000000000E+00 -2.962195941E+02  2.962195941E+02  0.000000000E+00  0.00000E+00  9.000E+00
      25     1     1     2     0     0 -4.274831776E+00 -2.185827906E+02  1.833931145E+03  1.851141582E+03  1.250000000E+02  0.00000E+00  9.000E+00
      25     1     1     2     0     0  1.124472363E+02  1.900749028E+02 -2.078426992E+02  3.280189587E+02  1.250000000E+02  0.00000E+00  9.000E+00
      21     1     1     2   511   502 -1.081724045E+02  2.850788771E+01  1.392559071E+02  1.786230009E+02  3.303624740E-06  0.00000E+00  9.000E+00
#rwgt            1           1   3.0994003475720986E-002           2      243444           0
</event>
<event>
      5   9999  3.19816E-02  3.70032E+01 -1.00000E+00  1.46969E-01
      21    -1     0     0   502   512  0.000000000E+00  0.000000000E+00  5.191776719E+02  5.191776719E+02  0.000000000E+00  0.00000E+00  9.000E+00
      21    -1     0     0   501   502  0.000000000E+00  0.000000000E+00 -1.189932196E+02  1.189932196E+02  0.000000000E+00  0.00000E+00  9.000E+00
      25     1     1     2     0     0 -1.978477679E+01  5.756633505E+01  4.183017071E+02  4.408022669E+02  1.250000000E+02  0.00000E+00  9.000E+00
      25     1     1     2     0     0 -9.294427417E+00 -3.468330591E+01 -5.849131644E+01  1.426027776E+02  1.250000000E+02  0.00000E+00  9.000E+00
      21     1     1     2   501   512  2.907920421E+01 -2.288302914E+01  4.037406159E+01  5.476584692E+01  6.743495762E-07  0.00000E+00  9.000E+00
#rwgt            1           1   2.3691855093392476E-002           2      243494           0
</event>
<event>
      5   9999  3.19816E-02  5.33984E+01 -1.00000E+00  1.37465E-01
      21    -1     0     0   502   501  0.000000000E+00  0.000000000E+00  1.234474340E+03  1.234474340E+03  0.000000000E+00  0.00000E+00  9.000E+00
      21    -1     0     0   511   502  0.000000000E+00  0.000000000E+00 -3.687141552E+02  3.687141552E+02  0.000000000E+00  0.00000E+00  9.000E+00
      25     1     1     2     0     0 -3.172835181E+02 -1.491153319E+02  7.401156463E+02  8.284324854E+02  1.250000000E+02  0.00000E+00  9.000E+00
      25     1     1     2     0     0  3.590211856E+02  1.824222670E+02  3.476011091E+02  5.464664914E+02  1.250000000E+02  0.00000E+00  9.000E+00
      21     1     1     2   511   501 -4.173766755E+01 -3.330693516E+01 -2.219565708E+02  2.282895182E+02  3.814697266E-06  0.00000E+00  9.000E+00
#rwgt            1           1   3.2748339884022919E-002           2      243562           0
</event>
<event>
      5   9999  3.19816E-02  3.66220E+01 -1.00000E+00  1.47257E-01
      21    -1     0     0   502   512  0.000000000E+00  0.000000000E+00  1.037747214E+02  1.037747214E+02  0.000000000E+00  0.00000E+00  9.000E+00
      21    -1     0     0   501   502  0.000000000E+00  0.000000000E+00 -2.699251098E+02  2.699251098E+02  0.000000000E+00  0.00000E+00  9.000E+00
      25     1     1     2     0     0  4.837906657E+01 -4.904820594E+01 -7.366608862E+01  1.606174125E+02  1.250000000E+02  0.00000E+00  9.000E+00
      25     1     1     2     0     0 -3.717976219E+01  8.391578473E+01 -7.914515572E+01  1.741067182E+02  1.250000000E+02  0.00000E+00  9.000E+00
      21     1     1     2   501   512 -1.119930438E+01 -3.486757879E+01 -1.333914406E+01  3.897570055E+01  8.596304120E-07  0.00000E+00  9.000E+00
#rwgt            1           1   5.0562989275745970E-002           2      243640           0
</event>
<event>
      5   9999  3.19816E-02  1.19833E+02 -1.00000E+00  1.20394E-01
      21    -1     0     0   511   501  0.000000000E+00  0.000000000E+00  1.583972633E+03  1.583972633E+03  0.000000000E+00  0.00000E+00  9.000E+00
      21    -1     0     0   501   502  0.000000000E+00  0.000000000E+00 -1.616332989E+02  1.616332989E+02  0.000000000E+00  0.00000E+00  9.000E+00
      25     1     1     2     0     0  3.741171124E+02 -4.901501902E+00  2.050866686E+02  4.446045211E+02  1.250000000E+02  0.00000E+00  9.000E+00
      25     1     1     2     0     0 -2.941171596E+02 -8.431724825E+01  7.692386058E+02  8.372379200E+02  1.250000000E+02  0.00000E+00  9.000E+00
      21     1     1     2   511   502 -7.999995288E+01  8.921875015E+01  4.480140593E+02  4.637634905E+02  7.629394531E-06  0.00000E+00  9.000E+00
#rwgt            1           1   2.6293643245810336E-002           2      243741           0
</event>
<event>
      5   9999  3.19816E-02  3.88785E+00 -1.00000E+00  2.66415E-01
      21    -1     0     0   502   501  0.000000000E+00  0.000000000E+00  3.822708254E+02  3.822708254E+02  0.000000000E+00  0.00000E+00  9.000E+00
      21    -1     0     0   512   502  0.000000000E+00  0.000000000E+00 -2.068387017E+02  2.068387017E+02  0.000000000E+00  0.00000E+00  9.000E+00
      25     1     1     2     0     0  4.333014727E+01  2.364032884E+02  1.395997754E+02  3.047574671E+02  1.250000000E+02  0.00000E+00  9.000E+00
      25     1     1     2     0     0 -4.265768869E+01 -2.325740393E+02  4.786209447E+01  2.717096653E+02  1.250000000E+02  0.00000E+00  9.000E+00
      21     1     1     2   512   501 -6.724585774E-01 -3.829249111E+00 -1.202974625E+01  1.264239472E+01  2.920019320E-07  0.00000E+00  9.000E+00
#rwgt            1           1   2.7157840001306315E-002           2      243803           0
</event>
<event>
      5   9999  3.19816E-02  9.62636E+00 -1.00000E+00  1.97689E-01
      21    -1     0     0   502   501  0.000000000E+00  0.000000000E+00  4.563531705E+02  4.563531705E+02  0.000000000E+00  0.00000E+00  9.000E+00
       2    -1     0     0   501     0  0.000000000E+00  0.000000000E+00 -4.669610844E+03  4.669610844E+03  0.000000000E+00  0.00000E+00  9.000E+00
      25     1     1     2     0     0  1.589047964E+02 -2.253245726E+01  2.929250943E+02  3.566350471E+02  1.250000000E+02  0.00000E+00  9.000E+00
      25     1     1     2     0     0 -1.508864304E+02  2.785905141E+01  5.714294486E+01  2.059931013E+02  1.250000000E+02  0.00000E+00  9.000E+00
       2     1     1     2   502     0 -8.018365957E+00 -5.326594144E+00 -4.563325713E+03  4.563335866E+03  0.000000000E+00  0.00000E+00  9.000E+00
#rwgt            1           1   2.9343653485544127E-002           2      244340           0
</event>
<event>
      5   9999  3.19816E-02  1.40618E+01 -1.00000E+00  1.80068E-01
      21    -1     0     0   502   501  0.000000000E+00  0.000000000E+00  2.705657516E+02  2.705657516E+02  0.000000000E+00  0.00000E+00  9.000E+00
      21    -1     0     0   501   511  0.000000000E+00  0.000000000E+00 -3.883362735E+02  3.883362735E+02  0.000000000E+00  0.00000E+00  9.000E+00
      25     1     1     2     0     0  5.175212687E+01  1.948388657E+02  1.451659448E+02  2.780982160E+02  1.250000000E+02  0.00000E+00  9.000E+00
      25     1     1     2     0     0 -6.487037566E+01 -1.897748263E+02 -1.810068252E+02  2.976762018E+02  1.250000000E+02  0.00000E+00  9.000E+00
      21     1     1     2   502   511  1.311824879E+01 -5.064039368E+00 -8.192964147E+01  8.312760731E+01  9.536743164E-07  0.00000E+00  9.000E+00
#rwgt            1           1   3.0777639340290024E-002           2      244587           0
</event>
<event>
      5   9999  3.19816E-02  3.00313E+01 -1.00000E+00  1.53008E-01
      21    -1     0     0   502   501  0.000000000E+00  0.000000000E+00  1.112778334E+03  1.112778334E+03  0.000000000E+00  0.00000E+00  9.000E+00
      21    -1     0     0   512   502  0.000000000E+00  0.000000000E+00 -6.362105147E+02  6.362105147E+02  0.000000000E+00  0.00000E+00  9.000E+00
      25     1     1     2     0     0 -3.411446274E+02 -9.872548306E+01  1.018739634E+03  1.086085549E+03  1.250000000E+02  0.00000E+00  9.000E+00
      25     1     1     2     0     0  3.188218674E+02  7.863637970E+01 -4.969231142E+02  6.085956333E+02  1.250000000E+02  0.00000E+00  9.000E+00
      21     1     1     2   512   501  2.232275995E+01  2.008910336E+01 -4.524870071E+01  5.430766614E+01  1.066240300E-06  0.00000E+00  9.000E+00
#rwgt            1           1   2.8135337252328911E-002           2      244797           0
</event>
<event>
      5   9999  3.19816E-02  7.09232E+01 -1.00000E+00  1.30933E-01
      21    -1     0     0   502   511  0.000000000E+00  0.000000000E+00  1.583323959E+03  1.583323959E+03  0.000000000E+00  0.00000E+00  9.000E+00
      21    -1     0     0   501   502  0.000000000E+00  0.000000000E+00 -2.781377793E+02  2.781377793E+02  0.000000000E+00  0.00000E+00  9.000E+00
      25     1     1     2     0     0 -7.894229744E+01  9.707016130E+01  3.012680168E+02  3.493449878E+02  1.250000000E+02  0.00000E+00  9.000E+00
      25     1     1     2     0     0  1.481476481E+02 -1.125853419E+02 -2.034177658E+02  3.026994752E+02  1.250000000E+02  0.00000E+00  9.000E+00
      21     1     1     2   501   511 -6.920535070E+01  1.551518060E+01  1.207335928E+03  1.209417275E+03  1.525878906E-05  0.00000E+00  9.000E+00
#rwgt            1           1   2.8738657792023534E-002           2      244921           0
</event>
<event>
      5   9999  3.19816E-02  4.62640E+01 -1.00000E+00  1.41028E-01
      21    -1     0     0   502   501  0.000000000E+00  0.000000000E+00  1.299691719E+03  1.299691719E+03  0.000000000E+00  0.00000E+00  9.000E+00
      21    -1     0     0   512   502  0.000000000E+00  0.000000000E+00 -2.913075884E+01  2.913075884E+01  0.000000000E+00  0.00000E+00  9.000E+00
      25     1     1     2     0     0  1.505562069E+01 -1.317526868E+01  9.513179225E+02  9.597036257E+02  1.250000000E+02  0.00000E+00  9.000E+00
      25     1     1     2     0     0 -3.161138160E+01 -3.002503067E+01  2.745120110E+02  3.047665108E+02  1.250000000E+02  0.00000E+00  9.000E+00
      21     1     1     2   512   501  1.655576091E+01  4.320029935E+01  4.473102632E+01  6.435234106E+01  1.907348633E-06  0.00000E+00  9.000E+00
#rwgt            1           1   7.6879057322419536E-002           2      245026           0
</event>
<event>
      5   9999  3.19816E-02  2.12033E+01 -1.00000E+00  1.64302E-01
      21    -1     0     0   502   501  0.000000000E+00  0.000000000E+00  1.787806333E+02  1.787806333E+02  0.000000000E+00  0.00000E+00  9.000E+00
      21    -1     0     0   511   502  0.000000000E+00  0.000000000E+00 -6.007435380E+02  6.007435380E+02  0.000000000E+00  0.00000E+00  9.000E+00
      25     1     1     2     0     0 -7.961930728E+01 -1.187361774E+02 -4.335353723E+02  4.733026864E+02  1.250000000E+02  0.00000E+00  9.000E+00
      25     1     1     2     0     0  6.065794415E+01  1.092469489E+02  1.082397119E+02  2.072561634E+02  1.250000000E+02  0.00000E+00  9.000E+00
      21     1     1     2   511   501  1.896136313E+01  9.489228539E+00 -9.666724422E+01  9.896532147E+01  1.348699152E-06  0.00000E+00  9.000E+00
#rwgt            1           1   2.7608816844814182E-002           2      245082           0
</event>
<event>
      5   9999  3.19816E-02  5.48404E+01 -1.00000E+00  1.36824E-01
      21    -1     0     0   502   501  0.000000000E+00  0.000000000E+00  2.636672710E+02  2.636672710E+02  0.000000000E+00  0.00000E+00  9.000E+00
       2    -1     0     0   501     0  0.000000000E+00  0.000000000E+00 -1.883964671E+03  1.883964671E+03  0.000000000E+00  0.00000E+00  9.000E+00
      25     1     1     2     0     0 -2.107343123E+02  1.501219163E+02  1.538811049E+02  3.259600199E+02  1.250000000E+02  0.00000E+00  9.000E+00
      25     1     1     2     0     0  1.559444717E+02 -1.477671272E+02 -6.460828715E+02  6.922440892E+02  1.250000000E+02  0.00000E+00  9.000E+00
       2     1     1     2   502     0  5.478984059E+01 -2.354789100E+00 -1.128095633E+03  1.129427833E+03  1.525878906E-05  0.00000E+00  9.000E+00
#rwgt            1           1   2.7177765933711743E-002           2      245234           0
</event>
<event>
      5   9999  3.19816E-02  2.05138E+01 -1.00000E+00  1.65465E-01
      21    -1     0     0   502   501  0.000000000E+00  0.000000000E+00  1.413473085E+02  1.413473085E+02  0.000000000E+00  0.00000E+00  9.000E+00
      21    -1     0     0   511   502  0.000000000E+00  0.000000000E+00 -4.903636219E+02  4.903636219E+02  0.000000000E+00  0.00000E+00  9.000E+00
      25     1     1     2     0     0  1.838260647E+02 -4.587478617E+01 -7.821838553E+01  2.400825565E+02  1.250000000E+02  0.00000E+00  9.000E+00
      25     1     1     2     0     0 -1.953756728E+02  6.282837822E+01 -1.845920127E+02  3.030152963E+02  1.250000000E+02  0.00000E+00  9.000E+00
      21     1     1     2   511   501  1.154960812E+01 -1.695359205E+01 -8.620591512E+01  8.861307766E+01  1.348699152E-06  0.00000E+00  9.000E+00
#rwgt            1           1   3.0791335360913427E-002           2      245316           0
</event>
<event>
      5   9999  3.19816E-02  9.20516E+01 -1.00000E+00  1.25468E-01
      21    -1     0     0   502   501  0.000000000E+00  0.000000000E+00  1.299250075E+03  1.299250075E+03  0.000000000E+00  0.00000E+00  9.000E+00
      21    -1     0     0   501   512  0.000000000E+00  0.000000000E+00 -1.793349639E+03  1.793349639E+03  0.000000000E+00  0.00000E+00  9.000E+00
      25     1     1     2     0     0 -1.931751002E+02  5.985747355E+02  1.106516028E+03  1.278910104E+03  1.250000000E+02  0.00000E+00  9.000E+00
      25     1     1     2     0     0  2.491169842E+02 -6.716774192E+02 -1.541135580E+03  1.704093221E+03  1.250000000E+02  0.00000E+00  9.000E+00
      21     1     1     2   502   512 -5.594188398E+01  7.310268367E+01 -5.948001158E+01  1.095963892E+02  1.507891493E-06  0.00000E+00  9.000E+00
#rwgt            1           1   3.5886257604962647E-002           2      245453           0
</event>
<event>
      5   9999  3.19816E-02  9.39372E+01 -1.00000E+00  1.25062E-01
      21    -1     0     0   502   501  0.000000000E+00  0.000000000E+00  8.628676091E+01  8.628676091E+01  0.000000000E+00  0.00000E+00  9.000E+00
       2    -1     0     0   501     0  0.000000000E+00  0.000000000E+00 -7.895107962E+02  7.895107962E+02  0.000000000E+00  0.00000E+00  9.000E+00
      25     1     1     2     0     0  1.017590606E+02 -7.199542687E+01 -2.582837950E+02  3.128478330E+02  1.250000000E+02  0.00000E+00  9.000E+00
      25     1     1     2     0     0 -1.937733532E+02  9.090464717E+01 -3.544450591E+02  4.325136612E+02  1.250000000E+02  0.00000E+00  9.000E+00
       2     1     1     2   502     0  9.201429257E+01 -1.890922030E+01 -9.049518123E+01  1.304360628E+02  1.348699152E-06  0.00000E+00  9.000E+00
#rwgt            1           1   2.6573805337583505E-002           2      245625           0
</event>
<event>
      5   9999  3.19816E-02  1.31888E+02 -1.00000E+00  1.18652E-01
      21    -1     0     0   502   511  0.000000000E+00  0.000000000E+00  1.323199096E+03  1.323199096E+03  0.000000000E+00  0.00000E+00  9.000E+00
      21    -1     0     0   501   502  0.000000000E+00  0.000000000E+00 -2.725721485E+02  2.725721485E+02  0.000000000E+00  0.00000E+00  9.000E+00
      25     1     1     2     0     0  2.569451766E+02  1.202923059E+02  9.397484286E+02  9.895671638E+02  1.250000000E+02  0.00000E+00  9.000E+00
      25     1     1     2     0     0 -1.301497885E+02 -1.565876248E+02 -1.717967755E+02  2.942750139E+02  1.250000000E+02  0.00000E+00  9.000E+00
      21     1     1     2   501   511 -1.267953881E+02  3.629531887E+01  2.826752942E+02  3.119290665E+02  5.394796609E-06  0.00000E+00  9.000E+00
#rwgt            1           1   2.9973452944217022E-002           2      245679           0
</event>
<event>
      5   9999  3.19816E-02  1.66225E+02 -1.00000E+00  1.14653E-01
       2    -1     0     0   502     0  0.000000000E+00  0.000000000E+00  5.706915566E+03  5.706915566E+03  0.000000000E+00  0.00000E+00  9.000E+00
      21    -1     0     0   501   502  0.000000000E+00  0.000000000E+00 -2.285858398E+02  2.285858398E+02  0.000000000E+00  0.00000E+00  9.000E+00
      25     1     1     2     0     0  3.774466060E+02  5.106818233E+02  3.433247373E+03  3.493719278E+03  1.250000000E+02  0.00000E+00  9.000E+00
      25     1     1     2     0     0 -2.508664347E+02 -6.184228431E+02  3.994176972E+02  7.877437894E+02  1.250000000E+02  0.00000E+00  9.000E+00
       2     1     1     2   501     0 -1.265801713E+02  1.077410198E+02  1.645664656E+03  1.654038339E+03  3.051757812E-05  0.00000E+00  9.000E+00
#rwgt            1           1   2.2393302264181868E-002           2      245745           0
</event>
<event>
      5   9999  3.19816E-02  1.88036E+01 -1.00000E+00  1.68610E-01
      21    -1     0     0   502   501  0.000000000E+00  0.000000000E+00  1.070738951E+03  1.070738951E+03  0.000000000E+00  0.00000E+00  9.000E+00
      21    -1     0     0   501   511  0.000000000E+00  0.000000000E+00 -2.264936885E+02  2.264936885E+02  0.000000000E+00  0.00000E+00  9.000E+00
      25     1     1     2     0     0  5.321781387E+01  4.097458822E+02  6.707524175E+02  7.976575890E+02  1.250000000E+02  0.00000E+00  9.000E+00
      25     1     1     2     0     0 -5.434149454E+01 -4.285158433E+02  1.659635349E+02  4.793200610E+02  1.250000000E+02  0.00000E+00  9.000E+00
      21     1     1     2   502   511  1.123680668E+00  1.876996111E+01  7.529310411E+00  2.025498984E+01  3.153981341E-07  0.00000E+00  9.000E+00
#rwgt            1           1   2.7711810868827354E-002           2      245807           0
</event>
<event>
      5   9999  3.19816E-02  1.16145E+02 -1.00000E+00  1.20973E-01
      21    -1     0     0   512   501  0.000000000E+00  0.000000000E+00  5.841211208E+02  5.841211208E+02  0.000000000E+00  0.00000E+00  9.000E+00
      21    -1     0     0   501   502  0.000000000E+00  0.000000000E+00 -4.124038962E+02  4.124038962E+02  0.000000000E+00  0.00000E+00  9.000E+00
      25     1     1     2     0     0 -1.780117031E+02 -1.524996921E+02 -2.493403376E+02  3.643349097E+02  1.250000000E+02  0.00000E+00  9.000E+00
      25     1     1     2     0     0  2.937177710E+02  1.424132383E+02  3.566788487E+02  4.993960959E+02  1.250000000E+02  0.00000E+00  9.000E+00
      21     1     1     2   512   502 -1.157060679E+02  1.008645380E+01  6.437871348E+01  1.327940114E+02  1.348699152E-06  0.00000E+00  9.000E+00
#rwgt            1           1   2.5886342040904110E-002           2      245980           0
</event>
<event>
      5   9999  3.19816E-02  9.79323E+01 -1.00000E+00  1.24237E-01
      21    -1     0     0   502   511  0.000000000E+00  0.000000000E+00  1.886102010E+03  1.886102010E+03  0.000000000E+00  0.00000E+00  9.000E+00
      21    -1     0     0   501   502  0.000000000E+00  0.000000000E+00 -1.474928280E+03  1.474928280E+03  0.000000000E+00  0.00000E+00  9.000E+00
      25     1     1     2     0     0  7.077448807E+02  1.709395059E+02 -1.274530467E+03  1.473151738E+03  1.250000000E+02  0.00000E+00  9.000E+00
      25     1     1     2     0     0 -6.637491820E+02 -2.584330050E+02  1.607064248E+03  1.762280083E+03  1.250000000E+02  0.00000E+00  9.000E+00
      21     1     1     2   501   511 -4.399569869E+01  8.749349909E+01  7.863994881E+01  1.255984691E+02  2.523185073E-06  0.00000E+00  9.000E+00
#rwgt            1           1   4.5269655343372989E-002           2      246044           0
</event>
<event>
      5   9999  3.19816E-02  2.95462E+01 -1.00000E+00  1.53501E-01
      21    -1     0     0   502   501  0.000000000E+00  0.000000000E+00  1.598302765E+03  1.598302765E+03  0.000000000E+00  0.00000E+00  9.000E+00
      21    -1     0     0   512   502  0.000000000E+00  0.000000000E+00 -1.825047877E+02  1.825047877E+02  0.000000000E+00  0.00000E+00  9.000E+00
      25     1     1     2     0     0 -2.079264995E+02 -4.391841028E+02  7.785294914E+02  9.262015300E+02  1.250000000E+02  0.00000E+00  9.000E+00
      25     1     1     2     0     0  2.095613471E+02  4.686850009E+02  6.333100751E+02  8.247958775E+02  1.250000000E+02  0.00000E+00  9.000E+00
      21     1     1     2   512   501 -1.634847672E+00 -2.950089819E+01  3.958410546E+00  2.981014483E+01  3.769728732E-07  0.00000E+00  9.000E+00
#rwgt            1           1   2.6217008293896088E-002           2      246200           0
</event>
<event>
      5   9999  3.19816E-02  2.70617E+01 -1.00000E+00  1.56216E-01
      21    -1     0     0   502   511  0.000000000E+00  0.000000000E+00  3.724460084E+02  3.724460084E+02  0.000000000E+00  0.00000E+00  9.000E+00
      21    -1     0     0   501   502  0.000000000E+00  0.000000000E+00 -1.014799278E+03  1.014799278E+03  0.000000000E+00  0.00000E+00  9.000E+00
      25     1     1     2     0     0 -1.361437414E+02 -1.889955363E+02 -9.158763844E+02  9.532622842E+02  1.250000000E+02  0.00000E+00  9.000E+00
      25     1     1     2     0     0  1.351963364E+02  2.160406947E+02  1.788206367E+02  3.354898676E+02  1.250000000E+02  0.00000E+00  9.000E+00
      21     1     1     2   501   511  9.474050021E-01 -2.704515837E+01  9.470247820E+01  9.849313450E+01  0.000000000E+00  0.00000E+00  9.000E+00
#rwgt            1           1   3.0353352341869505E-002           2      246378           0
</event>
<event>
      5   9999  3.19816E-02  6.76981E+01 -1.00000E+00  1.31960E-01
      21    -1     0     0   502   512  0.000000000E+00  0.000000000E+00  6.382886467E+02  6.382886467E+02  0.000000000E+00  0.00000E+00  9.000E+00
      21    -1     0     0   501   502  0.000000000E+00  0.000000000E+00 -8.647107296E+02  8.647107296E+02  0.000000000E+00  0.00000E+00  9.000E+00
      25     1     1     2     0     0 -2.554003539E+02  3.515454357E+02 -6.351518259E+02  7.796514452E+02  1.250000000E+02  0.00000E+00  9.000E+00
      25     1     1     2     0     0  1.886009124E+02 -3.625395464E+02  1.453305734E+02  4.513880841E+02  1.250000000E+02  0.00000E+00  9.000E+00
      21     1     1     2   501   512  6.679944147E+01  1.099411077E+01  2.633991696E+02  2.719598470E+02  0.000000000E+00  0.00000E+00  9.000E+00
#rwgt            1           1   2.8386147407855309E-002           2      246557           0
</event>
<event>
      5   9999  3.19816E-02  5.55479E+01 -1.00000E+00  1.36517E-01
      21    -1     0     0   511   501  0.000000000E+00  0.000000000E+00  1.656228357E+02  1.656228357E+02  0.000000000E+00  0.00000E+00  9.000E+00
      21    -1     0     0   501   502  0.000000000E+00  0.000000000E+00 -4.665824623E+02  4.665824623E+02  0.000000000E+00  0.00000E+00  9.000E+00
      25     1     1     2     0     0  1.987829786E+02 -9.092511475E+01 -1.287078358E+02  2.827945474E+02  1.250000000E+02  0.00000E+00  9.000E+00
      25     1     1     2     0     0 -1.652582322E+02  1.352157430E+02 -1.514479360E+02  2.900949116E+02  1.250000000E+02  0.00000E+00  9.000E+00
      21     1     1     2   511   502 -3.352474636E+01 -4.429062820E+01 -2.080385481E+01  5.931583886E+01  7.539457465E-07  0.00000E+00  9.000E+00
#rwgt            1           1   2.7267977719969454E-002           2      246682           0
</event>
<event>
      5   9999  3.19816E-02  1.04663E+01 -1.00000E+00  1.93497E-01
      21    -1     0     0   502   501  0.000000000E+00  0.000000000E+00  1.221977778E+02  1.221977778E+02  0.000000000E+00  0.00000E+00  9.000E+00
      21    -1     0     0   512   502  0.000000000E+00  0.000000000E+00 -5.548808337E+02  5.548808337E+02  0.000000000E+00  0.00000E+00  9.000E+00
      25     1     1     2     0     0  1.119101286E+02  1.830026945E+02 -1.168840442E+02  2.744098083E+02  1.250000000E+02  0.00000E+00  9.000E+00
      25     1     1     2     0     0 -1.073425843E+02 -1.735856901E+02 -3.013085384E+02  3.847937857E+02  1.250000000E+02  0.00000E+00  9.000E+00
      21     1     1     2   512   501 -4.567544308E+00 -9.417004426E+00 -1.449047330E+01  1.787501748E+01  2.920019320E-07  0.00000E+00  9.000E+00
#rwgt            1           1   3.1393419445769122E-002           2      246775           0
</event>
<event>
      5   9999  3.19816E-02  3.94198E+01 -1.00000E+00  1.45235E-01
      21    -1     0     0   511   501  0.000000000E+00  0.000000000E+00  4.781778555E+02  4.781778555E+02  0.000000000E+00  0.00000E+00  9.000E+00
      21    -1     0     0   501   502  0.000000000E+00  0.000000000E+00 -4.825697006E+02  4.825697006E+02  0.000000000E+00  0.00000E+00  9.000E+00
      25     1     1     2     0     0  8.884611417E+00 -3.822404368E+02 -2.363681109E+02  4.665635773E+02  1.250000000E+02  0.00000E+00  9.000E+00
      25     1     1     2     0     0 -2.090210650E+01  3.446971322E+02  1.380947822E+02  3.923623069E+02  1.250000000E+02  0.00000E+00  9.000E+00
      21     1     1     2   511   502  1.201749508E+01  3.754330463E+01  9.388148358E+01  1.018216719E+02  1.348699152E-06  0.00000E+00  9.000E+00
#rwgt            1           1   3.0587177506378217E-002           2      247024           0
</event>
<event>
      5   9999  3.19816E-02  2.15096E+01 -1.00000E+00  1.63803E-01
       2    -1     0     0   502     0  0.000000000E+00  0.000000000E+00  1.817810982E+03  1.817810982E+03  0.000000000E+00  0.00000E+00  9.000E+00
      21    -1     0     0   501   502  0.000000000E+00  0.000000000E+00 -7.426059799E+01  7.426059799E+01  0.000000000E+00  0.00000E+00  9.000E+00
      25     1     1     2     0     0 -1.297876861E+02 -1.885113300E+02  4.288810790E+02  5.019415752E+02  1.250000000E+02  0.00000E+00  9.000E+00
      25     1     1     2     0     0  1.400241506E+02  1.695936988E+02  3.878219760E+02  4.630331203E+02  1.250000000E+02  0.00000E+00  9.000E+00
       2     1     1     2   501     0 -1.023646446E+01  1.891763113E+01  9.268473294E+02  9.270968849E+02  1.525878906E-05  0.00000E+00  9.000E+00
#rwgt            1           1   1.8302838229495941E-002           2      247169           0
</event>
<event>
      5   9999  3.19816E-02  2.57971E+01 -1.00000E+00  1.57737E-01
      21    -1     0     0   511   501  0.000000000E+00  0.000000000E+00  3.582816450E+02  3.582816450E+02  0.000000000E+00  0.00000E+00  9.000E+00
      21    -1     0     0   501   502  0.000000000E+00  0.000000000E+00 -7.373553162E+02  7.373553162E+02  0.000000000E+00  0.00000E+00  9.000E+00
      25     1     1     2     0     0  4.434879422E+01 -1.843703628E+02 -6.700506364E+02  7.074970683E+02  1.250000000E+02  0.00000E+00  9.000E+00
      25     1     1     2     0     0 -2.003188583E+01  1.929830909E+02  2.669117309E+02  3.528606268E+02  1.250000000E+02  0.00000E+00  9.000E+00
      21     1     1     2   511   502 -2.431690839E+01 -8.612728082E+00  2.406523426E+01  3.527926613E+01  3.371747881E-07  0.00000E+00  9.000E+00
#rwgt            1           1   3.0358909742408239E-002           2      247337           0
</event>
<event>
      5   9999  3.19816E-02  2.85586E+01 -1.00000E+00  1.54540E-01
      21    -1     0     0   502   501  0.000000000E+00  0.000000000E+00  1.428060983E+02  1.428060983E+02  0.000000000E+00  0.00000E+00  9.000E+00
      -1    -1     0     0     0   502  0.000000000E+00  0.000000000E+00 -5.608023073E+02  5.608023073E+02  0.000000000E+00  0.00000E+00  9.000E+00
      25     1     1     2     0     0  2.907932501E+01  1.670077183E+02 -1.282424199E+02  2.465933968E+02  1.250000000E+02  0.00000E+00  9.000E+00
      25     1     1     2     0     0 -1.904062976E+01 -1.937437978E+02 -7.920100259E+01  2.445342585E+02  1.250000000E+02  0.00000E+00  9.000E+00
      -1     1     1     2     0   501 -1.003869525E+01  2.673607958E+01 -2.105527865E+02  2.124807503E+02  2.697398305E-06  0.00000E+00  9.000E+00
#rwgt            1           1   2.4349888026223794E-002           2      247563           0
</event>
<event>
      5   9999  3.19816E-02  4.08927E+02 -1.00000E+00  1.01398E-01
       2    -1     0     0   502     0  0.000000000E+00  0.000000000E+00  5.881398334E+02  5.881398334E+02  0.000000000E+00  0.00000E+00  9.000E+00
      21    -1     0     0   501   502  0.000000000E+00  0.000000000E+00 -1.155560891E+03  1.155560891E+03  0.000000000E+00  0.00000E+00  9.000E+00
      25     1     1     2     0     0  3.763084415E+02  7.388124249E+01 -1.555284724E+02  4.322968735E+02  1.250000000E+02  0.00000E+00  9.000E+00
      25     1     1     2     0     0  1.863137201E+01  3.215510157E+01 -7.619988760E+02  7.730772054E+02  1.250000000E+02  0.00000E+00  9.000E+00
       2     1     1     2   501     0 -3.949398135E+02 -1.060363441E+02  3.501062907E+02  5.383266455E+02  0.000000000E+00  0.00000E+00  9.000E+00
#rwgt            2          18   1.1327164691904725E-003           2      247718           0
</event>
<event>
      5   9999  3.19816E-02  2.06063E+01 -1.00000E+00  1.65306E-01
      21    -1     0     0   511   501  0.000000000E+00  0.000000000E+00  3.293764053E+02  3.293764053E+02  0.000000000E+00  0.00000E+00  9.000E+00
      21    -1     0     0   501   502  0.000000000E+00  0.000000000E+00 -1.398036076E+02  1.398036076E+02  0.000000000E+00  0.00000E+00  9.000E+00
      25     1     1     2     0     0 -2.534475585E+01  1.550709849E+02  2.028428745E+01  2.018063907E+02  1.250000000E+02  0.00000E+00  9.000E+00
      25     1     1     2     0     0  2.934603096E+01 -1.348569190E+02  1.552998475E+02  2.424677726E+02  1.250000000E+02  0.00000E+00  9.000E+00
      21     1     1     2   511   502 -4.001275110E+00 -2.021406591E+01  1.398866277E+01  2.490584970E+01  2.920019320E-07  0.00000E+00  9.000E+00
#rwgt            1           1   2.9744342152616548E-002           2      247752           0
</event>
<event>
      5   9999  3.19816E-02  3.00054E+02 -1.00000E+00  1.05589E-01
       1    -1     0     0   502     0  0.000000000E+00  0.000000000E+00  1.895568556E+03  1.895568556E+03  0.000000000E+00  0.00000E+00  9.000E+00
      21    -1     0     0   501   502  0.000000000E+00  0.000000000E+00 -1.946814868E+02  1.946814868E+02  0.000000000E+00  0.00000E+00  9.000E+00
      25     1     1     2     0     0  6.100773670E+01 -1.338714922E+02  3.003326954E+02  3.570269574E+02  1.250000000E+02  0.00000E+00  9.000E+00
      25     1     1     2     0     0 -7.623301835E+01  4.335392005E+02  2.064738535E+02  5.020200829E+02  1.250000000E+02  0.00000E+00  9.000E+00
       1     1     1     2   501     0  1.522528165E+01 -2.996677083E+02  1.194080521E+03  1.231203003E+03  1.525878906E-05  0.00000E+00  9.000E+00
#rwgt            2          17   7.2212466423746862E-004           2      247932           0
</event>
<event>
      5   9999  3.19816E-02  3.11803E+02 -1.00000E+00  1.05050E-01
      21    -1     0     0   511   501  0.000000000E+00  0.000000000E+00  5.320634060E+02  5.320634060E+02  0.000000000E+00  0.00000E+00  9.000E+00
      21    -1     0     0   501   502  0.000000000E+00  0.000000000E+00 -1.865901079E+03  1.865901079E+03  0.000000000E+00  0.00000E+00  9.000E+00
      25     1     1     2     0     0 -4.512545863E+02  3.289787583E+02 -1.090896170E+03  1.231883590E+03  1.250000000E+02  0.00000E+00  9.000E+00
      25     1     1     2     0     0  5.006729345E+02 -6.368406561E+02 -2.406488831E+02  8.542694501E+02  1.250000000E+02  0.00000E+00  9.000E+00
      21     1     1     2   511   502 -4.941834819E+01  3.078618978E+02 -2.292620139E+00  3.118114452E+02  7.639690340E-06  0.00000E+00  9.000E+00
#rwgt            1           1   3.2447116372146534E-002           2      247951           0
</event>
<event>
      5   9999  3.19816E-02  1.73249E+03 -1.00000E+00  8.56061E-02
       2    -1     0     0   502     0  0.000000000E+00  0.000000000E+00  2.709403037E+03  2.709403037E+03  0.000000000E+00  0.00000E+00  9.000E+00
      21    -1     0     0   501   502  0.000000000E+00  0.000000000E+00 -3.193535749E+03  3.193535749E+03  0.000000000E+00  0.00000E+00  9.000E+00
      25     1     1     2     0     0 -6.162807719E+02  1.878831314E+02 -1.755300783E+03  1.873981830E+03  1.250000000E+02  0.00000E+00  9.000E+00
      25     1     1     2     0     0 -1.050412420E+03  2.850412522E+02 -7.793873011E+02  1.344501518E+03  1.250000000E+02  0.00000E+00  9.000E+00
       2     1     1     2   501     0  1.666693192E+03 -4.729243836E+02  2.050555372E+03  2.684455439E+03  0.000000000E+00  0.00000E+00  9.000E+00
#rwgt            2          18   1.1263673578227977E-003           2      248080           0
</event>
<event>
      5   9999  3.19816E-02  3.48266E+01 -1.00000E+00  1.48672E-01
      21    -1     0     0   502   501  0.000000000E+00  0.000000000E+00  1.539569997E+02  1.539569997E+02  0.000000000E+00  0.00000E+00  9.000E+00
      21    -1     0     0   501   511  0.000000000E+00  0.000000000E+00 -9.672975013E+02  9.672975013E+02  0.000000000E+00  0.00000E+00  9.000E+00
      25     1     1     2     0     0  1.410408730E+02 -1.387435104E+02  2.719008827E+01  2.355983668E+02  1.250000000E+02  0.00000E+00  9.000E+00
      25     1     1     2     0     0 -1.062611682E+02  1.369373214E+02 -5.054356824E+02  5.487563166E+02  1.250000000E+02  0.00000E+00  9.000E+00
      21     1     1     2   502   511 -3.477970477E+01  1.806189031E+00 -3.350949074E+02  3.368998177E+02  3.814697266E-06  0.00000E+00  9.000E+00
#rwgt            1           1   2.9059283664565169E-002           2      248099           0
</event>
<event>
      5   9999  3.19816E-02  2.41515E+01 -1.00000E+00  1.59882E-01
      21    -1     0     0   502   501  0.000000000E+00  0.000000000E+00  2.424574509E+02  2.424574509E+02  0.000000000E+00  0.00000E+00  9.000E+00
      21    -1     0     0   512   502  0.000000000E+00  0.000000000E+00 -1.394839839E+03  1.394839839E+03  0.000000000E+00  0.00000E+00  9.000E+00
      25     1     1     2     0     0 -3.584204567E+02 -1.125879841E+02  1.783761076E+01  3.963388176E+02  1.250000000E+02  0.00000E+00  9.000E+00
      25     1     1     2     0     0  3.568506749E+02  8.848760246E+01 -1.085805487E+03  1.153156978E+03  1.250000000E+02  0.00000E+00  9.000E+00
      21     1     1     2   512   501  1.569781801E+00  2.410038165E+01 -8.441451188E+01  8.780149444E+01  9.536743164E-07  0.00000E+00  9.000E+00
#rwgt            1           1   2.9766353614975313E-002           2      248191           0
</event>
<event>
      5   9999  3.19816E-02  1.22580E+02 -1.00000E+00  1.19978E-01
      21    -1     0     0   511   501  0.000000000E+00  0.000000000E+00  4.496877758E+02  4.496877758E+02  0.000000000E+00  0.00000E+00  9.000E+00
      21    -1     0     0   501   502  0.000000000E+00  0.000000000E+00 -2.563994142E+03  2.563994142E+03  0.000000000E+00  0.00000E+00  9.000E+00
      25     1     1     2     0     0  8.309830059E+02 -4.230231711E+02 -1.168092532E+03  1.499848833E+03  1.250000000E+02  0.00000E+00  9.000E+00
      25     1     1     2     0     0 -9.130694352E+02  5.140594342E+02 -8.827442111E+02  1.375796219E+03  1.250000000E+02  0.00000E+00  9.000E+00
      21     1     1     2   511   502  8.208642927E+01 -9.103626303E+01 -6.346962324E+01  1.380368651E+02  3.568322551E-06  0.00000E+00  9.000E+00
#rwgt            1           1   3.7508358723775545E-002           2      248328           0
</event>
<event>
      5   9999  3.19816E-02  1.39292E+02 -1.00000E+00  1.17683E-01
      21    -1     0     0   512   501  0.000000000E+00  0.000000000E+00  7.849665707E+02  7.849665707E+02  0.000000000E+00  0.00000E+00  9.000E+00
      21    -1     0     0   501   502  0.000000000E+00  0.000000000E+00 -2.402064077E+02  2.402064077E+02  0.000000000E+00  0.00000E+00  9.000E+00
      25     1     1     2     0     0 -1.829954064E+01  3.269387271E+02  4.853712714E+02  5.986936409E+02  1.250000000E+02  0.00000E+00  9.000E+00
      25     1     1     2     0     0  5.619059682E+01 -1.928995769E+02 -5.877591823E+01  2.438180438E+02  1.250000000E+02  0.00000E+00  9.000E+00
      21     1     1     2   512   502 -3.789105618E+01 -1.340391503E+02  1.181648098E+02  1.826612937E+02  1.348699152E-06  0.00000E+00  9.000E+00
#rwgt            1           1   2.5992779218697536E-002           2      248425           0
</event>
<event>
      5   9999  3.19816E-02  5.43631E+01 -1.00000E+00  1.37034E-01
      21    -1     0     0   502   501  0.000000000E+00  0.000000000E+00  1.054287406E+03  1.054287406E+03  0.000000000E+00  0.00000E+00  9.000E+00
      21    -1     0     0   501   511  0.000000000E+00  0.000000000E+00 -3.315402367E+02  3.315402367E+02  0.000000000E+00  0.00000E+00  9.000E+00
      25     1     1     2     0     0  5.068295779E+02  9.086893575E+01  4.984272471E+02  7.274531635E+02  1.250000000E+02  0.00000E+00  9.000E+00
      25     1     1     2     0     0 -5.318959231E+02 -1.391082340E+02  2.138632047E+02  6.030147959E+02  1.250000000E+02  0.00000E+00  9.000E+00
      21     1     1     2   502   511  2.506634521E+01  4.823929828E+01  1.045671719E+01  5.535968293E+01  5.196212463E-07  0.00000E+00  9.000E+00
#rwgt            1           1   2.8042144967694423E-002           2      248484           0
</event>
<event>
      5   9999  3.19816E-02  4.25396E+01 -1.00000E+00  1.43201E-01
      21    -1     0     0   502   501  0.000000000E+00  0.000000000E+00  1.750003846E+02  1.750003846E+02  0.000000000E+00  0.00000E+00  9.000E+00
      21    -1     0     0   512   502  0.000000000E+00  0.000000000E+00 -9.407879779E+02  9.407879779E+02  0.000000000E+00  0.00000E+00  9.000E+00
      25     1     1     2     0     0 -2.699865329E+02 -7.772258159E+01 -7.083368666E+01  3.155565541E+02  1.250000000E+02  0.00000E+00  9.000E+00
      25     1     1     2     0     0  2.960455364E+02  1.113461435E+02 -5.288505980E+02  6.287677459E+02  1.250000000E+02  0.00000E+00  9.000E+00
      21     1     1     2   512   501 -2.605900346E+01 -3.362356194E+01 -1.661033087E+02  1.714640626E+02  2.697398305E-06  0.00000E+00  9.000E+00
#rwgt            1           1   2.8252865706840050E-002           2      248596           0
</event>
<event>
      5   9999  3.19816E-02  1.86974E+02 -1.00000E+00  1.12723E-01
      -1    -1     0     0     0   501  0.000000000E+00  0.000000000E+00  2.347166372E+03  2.347166372E+03  0.000000000E+00  0.00000E+00  9.000E+00
      21    -1     0     0   501   502  0.000000000E+00  0.000000000E+00 -3.234870759E+02  3.234870759E+02  0.000000000E+00  0.00000E+00  9.000E+00
      25     1     1     2     0     0 -2.183913931E+02 -2.842925327E+02 -1.206031855E+02  3.983555862E+02  1.250000000E+02  0.00000E+00  9.000E+00
      25     1     1     2     0     0  3.386716306E+01  2.541279007E+02  2.835187286E+02  4.021639518E+02  1.250000000E+02  0.00000E+00  9.000E+00
      -1     1     1     2     0   502  1.845242300E+02  3.016463198E+01  1.860763753E+03  1.870133910E+03  0.000000000E+00  0.00000E+00  9.000E+00
#rwgt            1           1   2.6499962980097116E-002           2      248683           0
</event>
<event>
      5   9999  3.19816E-02  2.53346E+02 -1.00000E+00  1.08033E-01
      21    -1     0     0   502   501  0.000000000E+00  0.000000000E+00  1.601395113E+03  1.601395113E+03  0.000000000E+00  0.00000E+00  9.000E+00
      21    -1     0     0   511   502  0.000000000E+00  0.000000000E+00 -2.996897819E+02  2.996897819E+02  0.000000000E+00  0.00000E+00  9.000E+00
      25     1     1     2     0     0  3.655960512E+02 -3.980256695E+02  1.176607764E+03  1.300813491E+03  1.250000000E+02  0.00000E+00  9.000E+00
      25     1     1     2     0     0 -2.453382550E+02  1.750405922E+02  1.175782930E+02  3.468136723E+02  1.250000000E+02  0.00000E+00  9.000E+00
      21     1     1     2   511   501 -1.202577962E+02  2.229850773E+02  7.519273493E+00  2.534577317E+02  3.535314232E-06  0.00000E+00  9.000E+00
#rwgt            2          11   4.2251517101493984E-003           2      248810           0
</event>
<event>
      5   9999  3.19816E-02  2.39343E+02 -1.00000E+00  1.08881E-01
       2    -1     0     0   502     0  0.000000000E+00  0.000000000E+00  1.676815335E+03  1.676815335E+03  0.000000000E+00  0.00000E+00  9.000E+00
      21    -1     0     0   501   502  0.000000000E+00  0.000000000E+00 -2.426118281E+02  2.426118281E+02  0.000000000E+00  0.00000E+00  9.000E+00
      25     1     1     2     0     0  2.905193972E+02  2.489936113E+02  4.026908420E+02  5.693718055E+02  1.250000000E+02  0.00000E+00  9.000E+00
      25     1     1     2     0     0 -3.411184064E+02 -4.829272127E+02  5.727695759E+02  8.326286369E+02  1.250000000E+02  0.00000E+00  9.000E+00
       2     1     1     2   501     0  5.059900913E+01  2.339336014E+02  4.587430894E+02  5.174267210E+02  5.394796609E-06  0.00000E+00  9.000E+00
#rwgt            1           1   3.1578078212481278E-002           2      248920           0
</event>
<event>
      5   9999  3.19816E-02  1.76929E+01 -1.00000E+00  1.70884E-01
      21    -1     0     0   502   501  0.000000000E+00  0.000000000E+00  3.123304367E+02  3.123304367E+02  0.000000000E+00  0.00000E+00  9.000E+00
      21    -1     0     0   501   511  0.000000000E+00  0.000000000E+00 -3.205322531E+02  3.205322531E+02  0.000000000E+00  0.00000E+00  9.000E+00
      25     1     1     2     0     0  1.994559205E+00 -6.309377496E+01 -1.354270871E+02  1.948083638E+02  1.250000000E+02  0.00000E+00  9.000E+00
      25     1     1     2     0     0  1.316881023E+01  7.221021033E+01  2.634438503E+02  3.006915268E+02  1.250000000E+02  0.00000E+00  9.000E+00
      21     1     1     2   502   511 -1.516336944E+01 -9.116435371E+00 -1.362185796E+02  1.373627992E+02  1.907348633E-06  0.00000E+00  9.000E+00
#rwgt            1           1   2.7243642948597255E-002           2      248989           0
</event>
<event>
      5   9999  3.19816E-02  1.86052E+02 -1.00000E+00  1.12803E-01
      21    -1     0     0   502   501  0.000000000E+00  0.000000000E+00  4.997771350E+02  4.997771350E+02  0.000000000E+00  0.00000E+00  9.000E+00
      21    -1     0     0   501   512  0.000000000E+00  0.000000000E+00 -2.588876401E+02  2.588876401E+02  0.000000000E+00  0.00000E+00  9.000E+00
      25     1     1     2     0     0  1.553437148E+02 -1.550522153E+02  6.830556233E+01  2.616553249E+02  1.250000000E+02  0.00000E+00  9.000E+00
      25     1     1     2     0     0  1.997493761E+00  5.575955591E+01  2.581706023E+02  2.922159782E+02  1.250000000E+02  0.00000E+00  9.000E+00
      21     1     1     2   502   512 -1.573412086E+02  9.929265941E+01 -8.558666968E+01  2.047934720E+02  1.651812370E-06  0.00000E+00  9.000E+00
#rwgt            2          11   3.9628030188802706E-003           2      249370           0
</event>
<event>
      5   9999  3.19816E-02  3.10132E+01 -1.00000E+00  1.52045E-01
      21    -1     0     0   502   501  0.000000000E+00  0.000000000E+00  2.963229341E+02  2.963229341E+02  0.000000000E+00  0.00000E+00  9.000E+00
       2    -1     0     0   501     0  0.000000000E+00  0.000000000E+00 -8.542560250E+02  8.542560250E+02  0.000000000E+00  0.00000E+00  9.000E+00
      25     1     1     2     0     0 -1.451504984E+02 -1.131173528E+02  9.347103048E+01  2.413007174E+02  1.250000000E+02  0.00000E+00  9.000E+00
      25     1     1     2     0     0  1.494694397E+02  1.438283268E+02  1.453347485E+01  2.426188840E+02  1.250000000E+02  0.00000E+00  9.000E+00
       2     1     1     2   502     0 -4.318941388E+00 -3.071097393E+01 -6.659375962E+02  6.666593577E+02  7.629394531E-06  0.00000E+00  9.000E+00
#rwgt            1           1   2.6887805966519438E-002           2      249390           0
</event>
<event>
      5   9999  3.19816E-02  1.70490E+02 -1.00000E+00  1.14232E-01
      21    -1     0     0   502   501  0.000000000E+00  0.000000000E+00  6.414579099E+02  6.414579099E+02  0.000000000E+00  0.00000E+00  9.000E+00
      21    -1     0     0   511   502  0.000000000E+00  0.000000000E+00 -6.076266684E+02  6.076266684E+02  0.000000000E+00  0.00000E+00  9.000E+00
      25     1     1     2     0     0 -3.306803767E+02 -9.613620641E+01  1.920605473E+02  4.136471148E+02  1.250000000E+02  0.00000E+00  9.000E+00
      25     1     1     2     0     0  2.639444657E+02  2.530220132E+02  2.026414446E+02  4.363202668E+02  1.250000000E+02  0.00000E+00  9.000E+00
      21     1     1     2   511   501  6.673591107E+01 -1.568858068E+02 -3.608707504E+02  3.991171967E+02  5.394796609E-06  0.00000E+00  9.000E+00
#rwgt            2          11   3.4625839321689414E-003           2      249463           0
</event>
<event>
      5   9999  3.19816E-02  7.87547E+01 -1.00000E+00  1.28680E-01
      21    -1     0     0   502   501  0.000000000E+00  0.000000000E+00  1.781748297E+03  1.781748297E+03  0.000000000E+00  0.00000E+00  9.000E+00
      21    -1     0     0   512   502  0.000000000E+00  0.000000000E+00 -4.454197295E+01  4.454197295E+01  0.000000000E+00  0.00000E+00  9.000E+00
      25     1     1     2     0     0  9.777159607E+01  8.674636634E+01  3.463695263E+02  3.907442461E+02  1.250000000E+02  0.00000E+00  9.000E+00
      25     1     1     2     0     0 -1.604331968E+02 -1.344520528E+02  1.255579934E+03  1.279031718E+03  1.250000000E+02  0.00000E+00  9.000E+00
      21     1     1     2   512   501  6.266160073E+01  4.770568645E+01  1.352568632E+02  1.565143053E+02  1.907348633E-06  0.00000E+00  9.000E+00
#rwgt            1           1   3.5258874776976763E-002           2      249483           0
</event>
<event>
      5   9999  3.19816E-02  2.42420E+02 -1.00000E+00  1.08689E-01
       2    -1     0     0   502     0  0.000000000E+00  0.000000000E+00  1.511408703E+03  1.511408703E+03  0.000000000E+00  0.00000E+00  9.000E+00
      21    -1     0     0   501   502  0.000000000E+00  0.000000000E+00 -5.485198281E+02  5.485198281E+02  0.000000000E+00  0.00000E+00  9.000E+00
      25     1     1     2     0     0 -2.944612105E+01  4.128593568E+02  8.076410260E+00  4.324467030E+02  1.250000000E+02  0.00000E+00  9.000E+00
      25     1     1     2     0     0  2.714539160E+02 -4.269901647E+02 -1.123291078E+02  5.331516274E+02  1.250000000E+02  0.00000E+00  9.000E+00
       2     1     1     2   501     0 -2.420077950E+02  1.413080795E+01  1.067141572E+03  1.094330200E+03  0.000000000E+00  0.00000E+00  9.000E+00
#rwgt            1           1   3.0226428972664955E-002           2      249526           0
</event>
<event>
      5   9999  3.19816E-02  3.91961E+01 -1.00000E+00  1.45389E-01
      21    -1     0     0   502   501  0.000000000E+00  0.000000000E+00  2.111796012E+02  2.111796012E+02  0.000000000E+00  0.00000E+00  9.000E+00
       2    -1     0     0   501     0  0.000000000E+00  0.000000000E+00 -1.336893068E+03  1.336893068E+03  0.000000000E+00  0.00000E+00  9.000E+00
      25     1     1     2     0     0 -1.849311329E+00 -2.858048792E+02 -3.928238507E+01  3.144136681E+02  1.250000000E+02  0.00000E+00  9.000E+00
      25     1     1     2     0     0  3.156882837E+01  2.602493571E+02 -2.150163127E+02  3.613631602E+02  1.250000000E+02  0.00000E+00  9.000E+00
       2     1     1     2   502     0 -2.971951704E+01  2.555552201E+01 -8.714147686E+02  8.722958405E+02  1.525878906E-05  0.00000E+00  9.000E+00
#rwgt            1           1   2.8169491084478034E-002           2      249569           0
</event>
<event>
      5   9999  3.19816E-02  1.39116E+01 -1.00000E+00  1.80522E-01
      21    -1     0     0   502   501  0.000000000E+00  0.000000000E+00  4.817584816E+02  4.817584816E+02  0.000000000E+00  0.00000E+00  9.000E+00
      21    -1     0     0   501   511  0.000000000E+00  0.000000000E+00 -1.431804352E+02  1.431804352E+02  0.000000000E+00  0.00000E+00  9.000E+00
      25     1     1     2     0     0 -3.134162708E+01  1.956433948E+02  2.552634397E+02  3.464723065E+02  1.250000000E+02  0.00000E+00  9.000E+00
      25     1     1     2     0     0  2.638240893E+01 -2.086410107E+02  9.277041864E+01  2.616456638E+02  1.250000000E+02  0.00000E+00  9.000E+00
      21     1     1     2   502   511  4.959218148E+00  1.299761589E+01 -9.455811910E+00  1.682094654E+01  3.953724850E-07  0.00000E+00  9.000E+00
#rwgt            1           1   2.6641564784166377E-002           2      249717           0
</event>
<event>
      5   9999  3.19816E-02  1.79623E+01 -1.00000E+00  1.70314E-01
      21    -1     0     0   512   501  0.000000000E+00  0.000000000E+00  2.364515739E+02  2.364515739E+02  0.000000000E+00  0.00000E+00  9.000E+00
      21    -1     0     0   501   502  0.000000000E+00  0.000000000E+00 -1.034143653E+03  1.034143653E+03  0.000000000E+00  0.00000E+00  9.000E+00
      25     1     1     2     0     0 -5.193824197E+01 -3.294895754E+02 -7.731481191E+02  8.512602277E+02  1.250000000E+02  0.00000E+00  9.000E+00
      25     1     1     2     0     0  3.780454192E+01  3.405748537E+02 -6.914765744E+01  3.712503372E+02  1.250000000E+02  0.00000E+00  9.000E+00
      21     1     1     2   512   502  1.413370005E+01 -1.108527826E+01  4.460369750E+01  4.808466181E+01  6.743495762E-07  0.00000E+00  9.000E+00
#rwgt            1           1   2.2667724571446609E-002           2      249861           0
</event>
<event>
      5   9999  3.19816E-02  3.04142E+02 -1.00000E+00  1.05399E-01
      21    -1     0     0   502   501  0.000000000E+00  0.000000000E+00  4.905479101E+02  4.905479101E+02  0.000000000E+00  0.00000E+00  9.000E+00
       1    -1     0     0   501     0  0.000000000E+00  0.000000000E+00 -1.984330169E+03  1.984330169E+03  0.000000000E+00  0.00000E+00  9.000E+00
      25     1     1     2     0     0 -2.180224593E+02 -1.002894177E+02  4.173998564E+02  4.974328097E+02  1.250000000E+02  0.00000E+00  9.000E+00
      25     1     1     2     0     0 -8.611890991E+01  1.006605751E+02 -4.602464441E+02  4.949755624E+02  1.250000000E+02  0.00000E+00  9.000E+00
       1     1     1     2   502     0  3.041413692E+02 -3.711574204E-01 -1.450935671E+03  1.482469707E+03  2.157918644E-05  0.00000E+00  9.000E+00
#rwgt            2          12   9.3360646886097133E-004           2      250064           0
</event>
<event>
      5   9999  3.19816E-02  5.63414E+01 -1.00000E+00  1.36180E-01
      21    -1     0     0   502   501  0.000000000E+00  0.000000000E+00  5.109504482E+02  5.109504482E+02  0.000000000E+00  0.00000E+00  9.000E+00
      21    -1     0     0   511   502  0.000000000E+00  0.000000000E+00 -4.696095295E+02  4.696095295E+02  0.000000000E+00  0.00000E+00  9.000E+00
      25     1     1     2     0     0 -1.159969722E+02 -2.441906568E+01  4.708783735E+02  5.014010680E+02  1.250000000E+02  0.00000E+00  9.000E+00
      25     1     1     2     0     0  6.921152961E+01  5.581134038E+01 -3.450264662E+02  3.775889352E+02  1.250000000E+02  0.00000E+00  9.000E+00
      21     1     1     2   511   501  4.678544261E+01 -3.139227470E+01 -8.451098859E+01  1.015699746E+02  9.536743164E-07  0.00000E+00  9.000E+00
#rwgt            1           1   3.1395851257526960E-002           2      250083           0
</event>
<event>
      5   9999  3.19816E-02  2.39111E+01 -1.00000E+00  1.60213E-01
      21    -1     0     0   502   512  0.000000000E+00  0.000000000E+00  8.487748681E+01  8.487748681E+01  0.000000000E+00  0.00000E+00  9.000E+00
      21    -1     0     0   501   502  0.000000000E+00  0.000000000E+00 -2.705862201E+03  2.705862201E+03  0.000000000E+00  0.00000E+00  9.000E+00
      25     1     1     2     0     0 -1.461883313E+02  1.431816967E+02 -1.246101447E+02  2.702308544E+02  1.250000000E+02  0.00000E+00  9.000E+00
      25     1     1     2     0     0  1.523484569E+02 -1.662856900E+02 -2.475126223E+03  2.488520806E+03  1.250000000E+02  0.00000E+00  9.000E+00
      21     1     1     2   501   512 -6.160125585E+00  2.310399333E+01 -2.124834626E+01  3.198802704E+01  6.743495762E-07  0.00000E+00  9.000E+00
#rwgt            1           1   6.8615810169760136E-002           2      250167           0
</event>
<event>
      5   9999  3.19816E-02  2.14630E+02 -1.00000E+00  1.10543E-01
       2    -1     0     0   502     0  0.000000000E+00  0.000000000E+00  1.218739315E+03  1.218739315E+03  0.000000000E+00  0.00000E+00  9.000E+00
      21    -1     0     0   501   502  0.000000000E+00  0.000000000E+00 -1.624261554E+03  1.624261554E+03  0.000000000E+00  0.00000E+00  9.000E+00
      25     1     1     2     0     0 -5.844888224E+02  5.752072298E+02 -2.000104430E+02  8.532993133E+02  1.250000000E+02  0.00000E+00  9.000E+00
      25     1     1     2     0     0  5.856712653E+02 -3.605804133E+02 -9.700092635E+02  1.195647121E+03  1.250000000E+02  0.00000E+00  9.000E+00
       2     1     1     2   501     0 -1.182442887E+00 -2.146268165E+02  7.644974676E+02  7.940544355E+02  1.078959322E-05  0.00000E+00  9.000E+00
#rwgt            1           1   2.3028242336003937E-002           2      250401           0
</event>
<event>
      5   9999  3.19816E-02  3.13069E+01 -1.00000E+00  1.51765E-01
      21    -1     0     0   502   511  0.000000000E+00  0.000000000E+00  9.516170827E+02  9.516170827E+02  0.000000000E+00  0.00000E+00  9.000E+00
      21    -1     0     0   501   502  0.000000000E+00  0.000000000E+00 -1.132516975E+02  1.132516975E+02  0.000000000E+00  0.00000E+00  9.000E+00
      25     1     1     2     0     0  1.468956082E+02 -2.420608639E+01  4.830482228E+00  1.944545908E+02  1.250000000E+02  0.00000E+00  9.000E+00
      25     1     1     2     0     0 -1.676333553E+02  7.524989402E-01  6.133789105E+02  6.480433596E+02  1.250000000E+02  0.00000E+00  9.000E+00
      21     1     1     2   501   511  2.073774708E+01  2.345358745E+01  2.201559925E+02  2.223708298E+02  2.697398305E-06  0.00000E+00  9.000E+00
#rwgt            1           1   2.8212497302052837E-002           2      250474           0
</event>
<event>
      5   9999  3.19816E-02  3.10331E+01 -1.00000E+00  1.52026E-01
      21    -1     0     0   502   501  0.000000000E+00  0.000000000E+00  3.267867826E+02  3.267867826E+02  0.000000000E+00  0.00000E+00  9.000E+00
       1    -1     0     0   501     0  0.000000000E+00  0.000000000E+00 -2.248750724E+03  2.248750724E+03  0.000000000E+00  0.00000E+00  9.000E+00
      25     1     1     2     0     0  3.365674805E+02  8.800233649E+01 -5.832635060E+01  3.742312698E+02  1.250000000E+02  0.00000E+00  9.000E+00
      25     1     1     2     0     0 -3.055800147E+02 -8.968408000E+01 -4.745158791E+00  3.421547838E+02  1.250000000E+02  0.00000E+00  9.000E+00
       1     1     1     2   502     0 -3.098746582E+01  1.681743506E+00 -1.858892432E+03  1.859151453E+03  2.157918644E-05  0.00000E+00  9.000E+00
#rwgt            1           1   2.8027125872549574E-002           2      250605           0
</event>
<event>
      5   9999  3.19816E-02  7.15729E+01 -1.00000E+00  1.30734E-01
      21    -1     0     0   502   501  0.000000000E+00  0.000000000E+00  2.982747619E+02  2.982747619E+02  0.000000000E+00  0.00000E+00  9.000E+00
      21    -1     0     0   511   502  0.000000000E+00  0.000000000E+00 -1.163181985E+03  1.163181985E+03  0.000000000E+00  0.00000E+00  9.000E+00
      25     1     1     2     0     0  7.707075508E+01  4.881256656E+02 -6.991856944E+02  8.652700168E+02  1.250000000E+02  0.00000E+00  9.000E+00
      25     1     1     2     0     0 -8.686856136E+00 -4.669992878E+02 -8.968680583E+01  4.917646992E+02  1.250000000E+02  0.00000E+00  9.000E+00
      21     1     1     2   511   501 -6.838389894E+01 -2.112637785E+01 -7.603472338E+01  1.044220314E+02  1.907348633E-06  0.00000E+00  9.000E+00
#rwgt            2          11   7.0073540072490932E-003           2      250749           0
</event>
<event>
      5   9999  3.19816E-02  9.14692E+01 -1.00000E+00  1.25595E-01
      21    -1     0     0   502   501  0.000000000E+00  0.000000000E+00  7.816111241E+02  7.816111241E+02  0.000000000E+00  0.00000E+00  9.000E+00
      21    -1     0     0   512   502  0.000000000E+00  0.000000000E+00 -1.794225932E+02  1.794225932E+02  0.000000000E+00  0.00000E+00  9.000E+00
      25     1     1     2     0     0  1.207352781E+02  2.810419674E+02  4.936400936E+02  5.940262089E+02  1.250000000E+02  0.00000E+00  9.000E+00
      25     1     1     2     0     0 -1.014130229E+02 -1.916368828E+02  1.147642865E+02  2.753273280E+02  1.250000000E+02  0.00000E+00  9.000E+00
      21     1     1     2   512   501 -1.932225516E+01 -8.940508463E+01 -6.215849200E+00  9.168018043E+01  2.402000627E-06  0.00000E+00  9.000E+00
#rwgt            1           1   2.7234477897817209E-002           2      250769           0
</event>
<event>
      5   9999  3.19816E-02  2.06119E+01 -1.00000E+00  1.65296E-01
      21    -1     0     0   502   511  0.000000000E+00  0.000000000E+00  4.245920458E+02  4.245920458E+02  0.000000000E+00  0.00000E+00  9.000E+00
      21    -1     0     0   501   502  0.000000000E+00  0.000000000E+00 -4.419357520E+02  4.419357520E+02  0.000000000E+00  0.00000E+00  9.000E+00
      25     1     1     2     0     0  8.440128917E+01 -7.281086341E+01 -3.988264149E+02  4.325650340E+02  1.250000000E+02  0.00000E+00  9.000E+00
      25     1     1     2     0     0 -8.319093171E+01  9.338715773E+01  2.857451777E+02  3.360315445E+02  1.250000000E+02  0.00000E+00  9.000E+00
      21     1     1     2   501   511 -1.210357464E+00 -2.057629433E+01  9.573753101E+01  9.793121922E+01  1.348699152E-06  0.00000E+00  9.000E+00
#rwgt            1           1   2.8790114682818245E-002           2      250829           0
</event>
<event>
      5   9999  3.19816E-02  2.13717E+02 -1.00000E+00  1.10609E-01
      21    -1     0     0   502   501  0.000000000E+00  0.000000000E+00  1.615428240E+03  1.615428240E+03  0.000000000E+00  0.00000E+00  9.000E+00
      -4    -1     0     0     0   502  0.000000000E+00  0.000000000E+00 -5.840770403E+02  5.840770403E+02  0.000000000E+00  0.00000E+00  9.000E+00
      25     1     1     2     0     0 -4.272451238E+02  4.778554023E+02  1.055923035E+03  1.241564593E+03  1.250000000E+02  0.00000E+00  9.000E+00
      25     1     1     2     0     0  2.674417483E+02 -6.197635506E+02  1.240857429E+02  6.976060629E+02  1.250000000E+02  0.00000E+00  9.000E+00
      -4     1     1     2     0   501  1.598033755E+02  1.419081483E+02 -1.486575782E+02  2.603346250E+02  3.303624740E-06  0.00000E+00  9.000E+00
#rwgt            1           1   2.9685654405074549E-002           2      251047           0
</event>
<event>
      5   9999  3.19816E-02  1.09865E+01 -1.00000E+00  1.91149E-01
      21    -1     0     0   502   511  0.000000000E+00  0.000000000E+00  5.224161309E+02  5.224161309E+02  0.000000000E+00  0.00000E+00  9.000E+00
      21    -1     0     0   501   502  0.000000000E+00  0.000000000E+00 -2.671967360E+02  2.671967360E+02  0.000000000E+00  0.00000E+00  9.000E+00
      25     1     1     2     0     0 -3.219607816E+02  1.848662194E+01  9.756496681E+00  3.460067764E+02  1.250000000E+02  0.00000E+00  9.000E+00
      25     1     1     2     0     0  3.113373325E+02 -1.568550781E+01  1.875852886E+02  3.846949574E+02  1.250000000E+02  0.00000E+00  9.000E+00
      21     1     1     2   501   511  1.062344912E+01 -2.801114126E+00  5.787760968E+01  5.891113320E+01  6.743495762E-07  0.00000E+00  9.000E+00
#rwgt            1           1   2.6771063870083361E-002           2      251098           0
</event>
<event>
      5   9999  3.19816E-02  5.47692E+01 -1.00000E+00  1.36855E-01
      21    -1     0     0   502   501  0.000000000E+00  0.000000000E+00  9.410235980E+02  9.410235980E+02  0.000000000E+00  0.00000E+00  9.000E+00
      21    -1     0     0   501   512  0.000000000E+00  0.000000000E+00 -3.309114381E+02  3.309114381E+02  0.000000000E+00  0.00000E+00  9.000E+00
      25     1     1     2     0     0 -4.644369937E+01 -5.155847844E+02  2.578905557E+02  5.917070439E+02  1.250000000E+02  0.00000E+00  9.000E+00
      25     1     1     2     0     0  9.272203780E+01  4.862934535E+02  3.602312615E+02  6.248761966E+02  1.250000000E+02  0.00000E+00  9.000E+00
      21     1     1     2   502   512 -4.627833843E+01  2.929133086E+01 -8.009657242E+00  5.535179564E+01  2.665600750E-07  0.00000E+00  9.000E+00
#rwgt            1           1   2.9143296200801680E-002           2      251288           0
</event>
<event>
      5   9999  3.19816E-02  2.22095E+02 -1.00000E+00  1.10016E-01
      21    -1     0     0   502   501  0.000000000E+00  0.000000000E+00  6.407830490E+02  6.407830490E+02  0.000000000E+00  0.00000E+00  9.000E+00
       2    -1     0     0   501     0  0.000000000E+00  0.000000000E+00 -2.914282933E+03  2.914282933E+03  0.000000000E+00  0.00000E+00  9.000E+00
      25     1     1     2     0     0  4.562978887E+02  5.460685726E+02  3.495600997E+02  8.026306203E+02  1.250000000E+02  0.00000E+00  9.000E+00
      25     1     1     2     0     0 -3.406879286E+02 -3.564364686E+02 -1.083752285E+03  1.197188053E+03  1.250000000E+02  0.00000E+00  9.000E+00
       2     1     1     2   502     0 -1.156099601E+02 -1.896321040E+02 -1.539307699E+03  1.555247308E+03  2.157918644E-05  0.00000E+00  9.000E+00
#rwgt            2          13   2.1504816273036878E-003           2      251423           0
</event>
<event>
      5   9999  3.19816E-02  1.23114E+02 -1.00000E+00  1.19898E-01
      -2    -1     0     0     0   501  0.000000000E+00  0.000000000E+00  2.221473130E+03  2.221473130E+03  0.000000000E+00  0.00000E+00  9.000E+00
      21    -1     0     0   501   502  0.000000000E+00  0.000000000E+00 -2.030853349E+02  2.030853349E+02  0.000000000E+00  0.00000E+00  9.000E+00
      25     1     1     2     0     0 -7.705311865E+01 -2.749443803E+02  4.919651820E+02  5.823970601E+02  1.250000000E+02  0.00000E+00  9.000E+00
      25     1     1     2     0     0  6.440273169E+01  3.974063228E+02  1.311678495E+02  4.414855626E+02  1.250000000E+02  0.00000E+00  9.000E+00
      -2     1     1     2     0   502  1.265038696E+01 -1.224619425E+02  1.395254764E+03  1.400675842E+03  0.000000000E+00  0.00000E+00  9.000E+00
#rwgt            1           1   2.9265610964282141E-002           2      251442           0
</event>
<event>
      5   9999  3.19816E-02  4.85677E+01 -1.00000E+00  1.39800E-01
       2    -1     0     0   502     0  0.000000000E+00  0.000000000E+00  4.077094667E+03  4.077094667E+03  0.000000000E+00  0.00000E+00  9.000E+00
      21    -1     0     0   501   502  0.000000000E+00  0.000000000E+00 -5.976972522E+02  5.976972522E+02  0.000000000E+00  0.00000E+00  9.000E+00
      25     1     1     2     0     0 -3.609340142E+02  1.878878738E+02 -2.925899098E+02  5.165356435E+02  1.250000000E+02  0.00000E+00  9.000E+00
      25     1     1     2     0     0  4.089298632E+02 -1.953187645E+02  9.333103508E+01  4.792793913E+02  1.250000000E+02  0.00000E+00  9.000E+00
       2     1     1     2   501     0 -4.799584907E+01  7.430890654E+00  3.678656290E+03  3.678976885E+03  4.315837288E-05  0.00000E+00  9.000E+00
#rwgt            1           1   3.0745706621321107E-002           2      251576           0
</event>
<event>
      5   9999  3.19816E-02  2.97439E+01 -1.00000E+00  1.53299E-01
      21    -1     0     0   502   501  0.000000000E+00  0.000000000E+00  5.551262720E+01  5.551262720E+01  0.000000000E+00  0.00000E+00  9.000E+00
      21    -1     0     0   511   502  0.000000000E+00  0.000000000E+00 -7.980935286E+02  7.980935286E+02  0.000000000E+00  0.00000E+00  9.000E+00
      25     1     1     2     0     0 -6.702262307E+01 -2.284354390E+01 -7.339712539E+01  1.613257497E+02  1.250000000E+02  0.00000E+00  9.000E+00
      25     1     1     2     0     0  4.915048761E+01  4.661927072E+01 -6.058654627E+02  6.223239396E+02  1.250000000E+02  0.00000E+00  9.000E+00
      21     1     1     2   511   501  1.787213546E+01 -2.377572682E+01 -6.331831321E+01  6.995646646E+01  1.348699152E-06  0.00000E+00  9.000E+00
#rwgt            1           1   3.3780040425137096E-002           2      251757           0
</event>
<event>
      5   9999  3.19816E-02  1.18784E+01 -1.00000E+00  1.87494E-01
      21    -1     0     0   502   501  0.000000000E+00  0.000000000E+00  7.461120983E+02  7.461120983E+02  0.000000000E+00  0.00000E+00  9.000E+00
      21    -1     0     0   501   512  0.000000000E+00  0.000000000E+00 -1.454367631E+03  1.454367631E+03  0.000000000E+00  0.00000E+00  9.000E+00
      25     1     1     2     0     0  3.127123245E+02 -1.178483552E+01 -7.765662084E+02  8.465269968E+02  1.250000000E+02  0.00000E+00  9.000E+00
      25     1     1     2     0     0 -3.014253680E+02  1.548629069E+01  6.735519600E+02  7.485948975E+02  1.250000000E+02  0.00000E+00  9.000E+00
      21     1     1     2   502   512 -1.128695649E+01 -3.701455165E+00 -6.052412847E+02  6.053578354E+02  1.321449896E-05  0.00000E+00  9.000E+00
#rwgt            1           1   3.0713355080248292E-002           2      251896           0
</event>
<event>
      5   9999  3.22438E-02  3.46101E+01 -1.00000E+00  1.48849E-01
      21    -1     0     0   511   501  0.000000000E+00  0.000000000E+00  3.772561437E+02  3.772561437E+02  0.000000000E+00  0.00000E+00  9.000E+00
      21    -1     0     0   501   502  0.000000000E+00  0.000000000E+00 -4.206924965E+02  4.206924965E+02  0.000000000E+00  0.00000E+00  9.000E+00
      25     1     1     2     0     0 -1.255788017E+02 -2.067900743E+02 -2.706571332E+02  3.839432953E+02  1.250000000E+02  0.00000E+00  9.000E+00
      25     1     1     2     0     0  1.435736858E+02  2.363543337E+02  1.720001417E+02  3.488349510E+02  1.250000000E+02  0.00000E+00  9.000E+00
      21     1     1     2   511   502 -1.799488412E+01 -2.956425936E+01  5.522063882E+01  6.517039388E+01  6.743495762E-07  0.00000E+00  9.000E+00
#rwgt            1           1   2.9818128565667474E-002           2      252217           0
</event>
<event>
      5   9999  3.19816E-02  3.43175E+01 -1.00000E+00  1.49092E-01
      21    -1     0     0   502   501  0.000000000E+00  0.000000000E+00  1.207009383E+02  1.207009383E+02  0.000000000E+00  0.00000E+00  9.000E+00
      21    -1     0     0   512   502  0.000000000E+00  0.000000000E+00 -1.091670066E+03  1.091670066E+03  0.000000000E+00  0.00000E+00  9.000E+00
      25     1     1     2     0     0  2.335655044E+02 -1.707792677E+02 -2.424428188E+02  3.976454746E+02  1.250000000E+02  0.00000E+00  9.000E+00
      25     1     1     2     0     0 -1.998572999E+02  1.643414595E+02 -4.488807608E+02  5.329821696E+02  1.250000000E+02  0.00000E+00  9.000E+00
      21     1     1     2   512   501 -3.370820453E+01  6.437808188E+00 -2.796455485E+02  2.817433605E+02  0.000000000E+00  0.00000E+00  9.000E+00
#rwgt            1           1   3.2273586922834760E-002           2      252381           0
</event>
<event>
      5   9999  3.19816E-02  3.20710E+01 -1.00000E+00  1.51053E-01
      21    -1     0     0   502   501  0.000000000E+00  0.000000000E+00  1.339080034E+02  1.339080034E+02  0.000000000E+00  0.00000E+00  9.000E+00
      21    -1     0     0   511   502  0.000000000E+00  0.000000000E+00 -7.520523182E+02  7.520523182E+02  0.000000000E+00  0.00000E+00  9.000E+00
      25     1     1     2     0     0 -2.276154400E+02  1.518579440E+02 -3.511094614E+02  4.623553585E+02  1.250000000E+02  0.00000E+00  9.000E+00
      25     1     1     2     0     0  1.955509809E+02 -1.525032454E+02 -1.802345530E+02  3.310693584E+02  1.250000000E+02  0.00000E+00  9.000E+00
      21     1     1     2   511   501  3.206445915E+01  6.453013923E-01 -8.680030046E+01  9.253560457E+01  0.000000000E+00  0.00000E+00  9.000E+00
#rwgt            1           1   2.6635426631755742E-002           2      252514           0
</event>
<event>
      5   9999  3.19816E-02  1.65608E+02 -1.00000E+00  1.14715E-01
      21    -1     0     0   502   501  0.000000000E+00  0.000000000E+00  1.788533898E+02  1.788533898E+02  0.000000000E+00  0.00000E+00  9.000E+00
      21    -1     0     0   512   502  0.000000000E+00  0.000000000E+00 -1.986423186E+03  1.986423186E+03  0.000000000E+00  0.00000E+00  9.000E+00
      25     1     1     2     0     0  2.110197629E+02 -2.919942519E+02 -2.469925106E+02  4.543349907E+02  1.250000000E+02  0.00000E+00  9.000E+00
      25     1     1     2     0     0 -3.545105289E+02  3.746764325E+02 -1.270845753E+03  1.377219690E+03  1.250000000E+02  0.00000E+00  9.000E+00
      21     1     1     2   512   501  1.434907660E+02 -8.268218056E+01 -2.897315323E+02  3.337218958E+02  5.394796609E-06  0.00000E+00  9.000E+00
#rwgt            1           1   2.7233059154058058E-002           2      252594           0
</event>
<event>
      5   9999  3.19816E-02  1.16496E+02 -1.00000E+00  1.20917E-01
      21    -1     0     0   502   511  0.000000000E+00  0.000000000E+00  6.585380635E+02  6.585380635E+02  0.000000000E+00  0.00000E+00  9.000E+00
      21    -1     0     0   501   502  0.000000000E+00  0.000000000E+00 -1.659627338E+03  1.659627338E+03  0.000000000E+00  0.00000E+00  9.000E+00
      25     1     1     2     0     0 -8.541278532E+02 -8.861389063E+01 -2.027675945E+01  8.679993999E+02  1.250000000E+02  0.00000E+00  9.000E+00
      25     1     1     2     0     0  9.126025388E+02 -1.214333467E+01 -9.623940569E+02  1.332223020E+03  1.250000000E+02  0.00000E+00  9.000E+00
      21     1     1     2   501   511 -5.847468560E+01  1.007572253E+02 -1.841845817E+01  1.179429816E+02  2.396077066E-06  0.00000E+00  9.000E+00
#rwgt            1           1   3.8103603844045306E-002           2      252666           0
</event>
<event>
      5   9999  3.19816E-02  2.87971E+01 -1.00000E+00  1.54285E-01
      21    -1     0     0   502   501  0.000000000E+00  0.000000000E+00  9.777387691E+01  9.777387691E+01  0.000000000E+00  0.00000E+00  9.000E+00
      21    -1     0     0   501   512  0.000000000E+00  0.000000000E+00 -3.893000810E+02  3.893000810E+02  0.000000000E+00  0.00000E+00  9.000E+00
      25     1     1     2     0     0 -5.186673906E+01  2.080594074E+01 -1.789586899E+02  2.253314414E+02  1.250000000E+02  0.00000E+00  9.000E+00
      25     1     1     2     0     0  2.721840401E+01 -5.915310096E+00  1.684129320E+01  1.291683458E+02  1.250000000E+02  0.00000E+00  9.000E+00
      21     1     1     2   502   512  2.464833506E+01 -1.489063065E+01 -1.294088074E+02  1.325741707E+02  0.000000000E+00  0.00000E+00  9.000E+00
#rwgt            1           1   6.8759072770020802E-002           2      252779           0
</event>
<event>
      5   9999  3.19816E-02  5.86119E+01 -1.00000E+00  1.35249E-01
      21    -1     0     0   511   501  0.000000000E+00  0.000000000E+00  1.758364950E+02  1.758364950E+02  0.000000000E+00  0.00000E+00  9.000E+00
      21    -1     0     0   501   502  0.000000000E+00  0.000000000E+00 -1.276817332E+03  1.276817332E+03  0.000000000E+00  0.00000E+00  9.000E+00
      25     1     1     2     0     0 -1.423022562E+02 -2.135020418E+02 -1.093632590E+03  1.130261163E+03  1.250000000E+02  0.00000E+00  9.000E+00
      25     1     1     2     0     0  1.080281661E+02  1.659558483E+02  5.103057042E+01  2.396675768E+02  1.250000000E+02  0.00000E+00  9.000E+00
      21     1     1     2   511   502  3.427409012E+01  4.754619342E+01 -5.837881709E+01  8.272508716E+01  9.536743164E-07  0.00000E+00  9.000E+00
#rwgt            1           1   3.0690705869851183E-002           2      252857           0
</event>
<event>
      5   9999  3.19816E-02  5.86990E+02 -1.00000E+00  9.69125E-02
      21    -1     0     0   502   501  0.000000000E+00  0.000000000E+00  5.178638167E+02  5.178638167E+02  0.000000000E+00  0.00000E+00  9.000E+00
       2    -1     0     0   501     0  0.000000000E+00  0.000000000E+00 -2.022715566E+03  2.022715566E+03  0.000000000E+00  0.00000E+00  9.000E+00
      25     1     1     2     0     0 -2.267162562E+02 -5.543872106E+02 -1.082498937E+03  1.243452608E+03  1.250000000E+02  0.00000E+00  9.000E+00
      25     1     1     2     0     0 -2.743891100E+02  2.486898998E+02 -5.706752528E+02  6.916872806E+02  1.250000000E+02  0.00000E+00  9.000E+00
       2     1     1     2   502     0  5.011053662E+02  3.056973108E+02  1.483224410E+02  6.054394936E+02  1.489686904E-05  0.00000E+00  9.000E+00
#rwgt            1           1   2.9594865522611025E-002           2      252941           0
</event>
<event>
      5   9999  3.19816E-02  1.26668E+01 -1.00000E+00  1.84592E-01
      21    -1     0     0   502   511  0.000000000E+00  0.000000000E+00  3.750981446E+01  3.750981446E+01  0.000000000E+00  0.00000E+00  9.000E+00
      21    -1     0     0   501   502  0.000000000E+00  0.000000000E+00 -7.440715997E+02  7.440715997E+02  0.000000000E+00  0.00000E+00  9.000E+00
      25     1     1     2     0     0  3.830405916E+01  3.699084033E+01 -1.712381939E+02  2.185933262E+02  1.250000000E+02  0.00000E+00  9.000E+00
      25     1     1     2     0     0 -4.715201888E+01 -2.792657273E+01 -5.328884437E+02  5.500893562E+02  1.250000000E+02  0.00000E+00  9.000E+00
      21     1     1     2   501   511  8.847959715E+00 -9.064267602E+00 -2.435147715E+00  1.289873182E+01  2.043144286E-07  0.00000E+00  9.000E+00
#rwgt            1           1   7.9130155825324372E-002           2      252968           0
</event>
<event>
      5   9999  3.19816E-02  3.94949E+01 -1.00000E+00  1.45183E-01
      21    -1     0     0   502   501  0.000000000E+00  0.000000000E+00  7.801671079E+02  7.801671079E+02  0.000000000E+00  0.00000E+00  9.000E+00
      21    -1     0     0   501   512  0.000000000E+00  0.000000000E+00 -2.860357990E+03  2.860357990E+03  0.000000000E+00  0.00000E+00  9.000E+00
      25     1     1     2     0     0 -4.076104935E+02  8.342075723E+02  2.137869230E+02  9.609258226E+02  1.250000000E+02  0.00000E+00  9.000E+00
      25     1     1     2     0     0  4.460159541E+02 -8.249951451E+02 -9.699467752E+02  1.354979324E+03  1.250000000E+02  0.00000E+00  9.000E+00
      21     1     1     2   502   512 -3.840546060E+01 -9.212427214E+00 -1.324031030E+03  1.324619952E+03  2.642899792E-05  0.00000E+00  9.000E+00
#rwgt            1           1   2.8942090682080431E-002           2      253076           0
</event>
<event>
      5   9999  3.19816E-02  1.39532E+02 -1.00000E+00  1.17653E-01
      21    -1     0     0   502   501  0.000000000E+00  0.000000000E+00  1.577433366E+02  1.577433366E+02  0.000000000E+00  0.00000E+00  9.000E+00
       1    -1     0     0   501     0  0.000000000E+00  0.000000000E+00 -1.736360219E+03  1.736360219E+03  0.000000000E+00  0.00000E+00  9.000E+00
      25     1     1     2     0     0  1.808640693E+02  3.739541974E+01  3.878390356E+01  2.263612603E+02  1.250000000E+02  0.00000E+00  9.000E+00
      25     1     1     2     0     0 -1.068861336E+02  8.091070311E+01 -3.736129506E+02  4.161524051E+02  1.250000000E+02  0.00000E+00  9.000E+00
       1     1     1     2   502     0 -7.397793572E+01 -1.183061228E+02 -1.243787836E+03  1.251589890E+03  2.157918644E-05  0.00000E+00  9.000E+00
#rwgt            1           1   2.9855507703801670E-002           2      253253           0
</event>
<event>
      5   9999  3.19816E-02  9.29372E+01 -1.00000E+00  1.25276E-01
      21    -1     0     0   502   501  0.000000000E+00  0.000000000E+00  8.783010105E+02  8.783010105E+02  0.000000000E+00  0.00000E+00  9.000E+00
      21    -1     0     0   501   511  0.000000000E+00  0.000000000E+00 -4.007377928E+02  4.007377928E+02  0.000000000E+00  0.00000E+00  9.000E+00
      25     1     1     2     0     0 -3.450109420E+02 -1.502028096E+02  4.434007974E+02  5.948299768E+02  1.250000000E+02  0.00000E+00  9.000E+00
      25     1     1     2     0     0  4.311544777E+02  1.850828352E+02  1.744298297E+02  5.159463200E+02  1.250000000E+02  0.00000E+00  9.000E+00
      21     1     1     2   502   511 -8.614353571E+01 -3.488002563E+01 -1.402674095E+02  1.682625065E+02  1.907348633E-06  0.00000E+00  9.000E+00
#rwgt            2          11   3.0849149882596011E-003           2      253321           0
</event>
<event>
      5   9999  3.50948E-02  1.03907E+01 -1.00000E+00  1.93853E-01
      21    -1     0     0   502   512  0.000000000E+00  0.000000000E+00  3.150356116E+01  3.150356116E+01  0.000000000E+00  0.00000E+00  9.000E+00
      21    -1     0     0   501   502  0.000000000E+00  0.000000000E+00 -1.937426491E+03  1.937426491E+03  0.000000000E+00  0.00000E+00  9.000E+00
      25     1     1     2     0     0 -1.442929168E+02 -4.575877614E+01 -1.489853641E+03  1.502731907E+03  1.250000000E+02  0.00000E+00  9.000E+00
      25     1     1     2     0     0  1.510496135E+02  3.786492645E+01 -3.903923791E+02  4.384985154E+02  1.250000000E+02  0.00000E+00  9.000E+00
      21     1     1     2   501   512 -6.756696668E+00  7.893849698E+00 -2.567690912E+01  2.769962951E+01  4.768371582E-07  0.00000E+00  9.000E+00
#rwgt            1           1  0.10484043759343108                2      253341           0
</event>
<event>
      5   9999  3.19816E-02  2.76697E+01 -1.00000E+00  1.55520E-01
      21    -1     0     0   511   501  0.000000000E+00  0.000000000E+00  1.536085019E+03  1.536085019E+03  0.000000000E+00  0.00000E+00  9.000E+00
      21    -1     0     0   501   502  0.000000000E+00  0.000000000E+00 -6.180108992E+01  6.180108992E+01  0.000000000E+00  0.00000E+00  9.000E+00
      25     1     1     2     0     0  4.772754556E+01 -2.153120674E+02  4.049237956E+02  4.777295105E+02  1.250000000E+02  0.00000E+00  9.000E+00
      25     1     1     2     0     0 -7.326862555E+01  2.259546476E+02  6.990190656E+02  7.487833120E+02  1.250000000E+02  0.00000E+00  9.000E+00
      21     1     1     2   511   502  2.554107999E+01 -1.064258020E+01  3.703410676E+02  3.713732861E+02  7.629394531E-06  0.00000E+00  9.000E+00
#rwgt            1           1   3.0035604468153565E-002           2      253527           0
</event>
<event>
      5   9999  3.19816E-02  1.29611E+02 -1.00000E+00  1.18965E-01
      21    -1     0     0   502   501  0.000000000E+00  0.000000000E+00  4.751511988E+02  4.751511988E+02  0.000000000E+00  0.00000E+00  9.000E+00
      21    -1     0     0   501   512  0.000000000E+00  0.000000000E+00 -4.254986422E+02  4.254986422E+02  0.000000000E+00  0.00000E+00  9.000E+00
      25     1     1     2     0     0  1.227060153E+02 -3.962231889E+02  8.756994182E+01  4.419763300E+02  1.250000000E+02  0.00000E+00  9.000E+00
      25     1     1     2     0     0 -1.265158171E+02  2.666684630E+02  9.458806053E+00  3.206755216E+02  1.250000000E+02  0.00000E+00  9.000E+00
      21     1     1     2   502   512  3.809801782E+00  1.295547259E+02 -4.737619126E+01  1.379979894E+02  1.507891493E-06  0.00000E+00  9.000E+00
#rwgt            1           1   2.7372764121957473E-002           2      253657           0
</event>
<event>
      5   9999  3.19816E-02  1.04404E+02 -1.00000E+00  1.22992E-01
      21    -1     0     0   511   501  0.000000000E+00  0.000000000E+00  3.506579594E+02  3.506579594E+02  0.000000000E+00  0.00000E+00  9.000E+00
      21    -1     0     0   501   502  0.000000000E+00  0.000000000E+00 -1.986313571E+02  1.986313571E+02  0.000000000E+00  0.00000E+00  9.000E+00
      25     1     1     2     0     0  3.548318671E+01 -1.271104467E+01 -7.971385313E+01  1.529703421E+02  1.250000000E+02  0.00000E+00  9.000E+00
      25     1     1     2     0     0 -1.305035531E+02 -3.054850873E+01  5.553145969E+01  1.915023022E+02  1.250000000E+02  0.00000E+00  9.000E+00
      21     1     1     2   511   502  9.502036636E+01  4.325955339E+01  1.762089958E+02  2.048166721E+02  4.264961200E-06  0.00000E+00  9.000E+00
#rwgt            2          11   5.6932752821754543E-003           2      253744           0
</event>
<event>
      5   9999  3.19816E-02  2.99346E+02 -1.00000E+00  1.05623E-01
       2    -1     0     0   502     0  0.000000000E+00  0.000000000E+00  6.332488819E+02  6.332488819E+02  0.000000000E+00  0.00000E+00  9.000E+00
      21    -1     0     0   501   502  0.000000000E+00  0.000000000E+00 -1.389765890E+03  1.389765890E+03  0.000000000E+00  0.00000E+00  9.000E+00
      25     1     1     2     0     0  5.375633030E+02  2.091829585E+02  8.787089379E+01  5.967228074E+02  1.250000000E+02  0.00000E+00  9.000E+00
      25     1     1     2     0     0 -6.778044143E+02  5.528011882E+01 -2.064462213E+02  7.216091448E+02  1.250000000E+02  0.00000E+00  9.000E+00
       2     1     1     2   501     0  1.402411112E+02 -2.644630774E+02 -6.379416807E+02  7.046828198E+02  1.078959322E-05  0.00000E+00  9.000E+00
#rwgt            1           1   3.1292976770788593E-002           2      253764           0
</event>
<event>
      5   9999  3.19816E-02  2.22343E+02 -1.00000E+00  1.09999E-01
      21    -1     0     0   502   511  0.000000000E+00  0.000000000E+00  5.569977494E+02  5.569977494E+02  0.000000000E+00  0.00000E+00  9.000E+00
      21    -1     0     0   501   502  0.000000000E+00  0.000000000E+00 -9.697204371E+02  9.697204371E+02  0.000000000E+00  0.00000E+00  9.000E+00
      25     1     1     2     0     0  1.033785909E+02 -4.035114739E+02 -2.042842906E+01  4.353745093E+02  1.250000000E+02  0.00000E+00  9.000E+00
      25     1     1     2     0     0 -5.769527021E+01  1.859123169E+02 -6.854342797E+02  7.234205455E+02  1.250000000E+02  0.00000E+00  9.000E+00
      21     1     1     2   501   511 -4.568332067E+01  2.175991570E+02  2.931400211E+02  3.679231318E+02  5.394796609E-06  0.00000E+00  9.000E+00
#rwgt            1           1   2.5015166206679457E-002           2      253813           0
</event>
<event>
      5   9999  3.19816E-02  6.15915E+01 -1.00000E+00  1.34099E-01
      -4    -1     0     0     0   501  0.000000000E+00  0.000000000E+00  1.042970652E+03  1.042970652E+03  0.000000000E+00  0.00000E+00  9.000E+00
      21    -1     0     0   501   502  0.000000000E+00  0.000000000E+00 -6.313469709E+01  6.313469709E+01  0.000000000E+00  0.00000E+00  9.000E+00
      25     1     1     2     0     0  2.096224032E+01  3.562687832E+01  5.396253061E+01  1.422871909E+02  1.250000000E+02  0.00000E+00  9.000E+00
      25     1     1     2     0     0 -1.672017832E+01 -9.707210962E+01  3.479066492E+02  3.825788747E+02  1.250000000E+02  0.00000E+00  9.000E+00
      -4     1     1     2     0   502 -4.242062003E+00  6.144523130E+01  5.779667747E+02  5.812392831E+02  7.629394531E-06  0.00000E+00  9.000E+00
#rwgt            1           1   2.5501558425395161E-002           2      253856           0
</event>
<event>
      5   9999  3.19816E-02  7.52980E+01 -1.00000E+00  1.29636E-01
       2    -1     0     0   502     0  0.000000000E+00  0.000000000E+00  1.073229555E+03  1.073229555E+03  0.000000000E+00  0.00000E+00  9.000E+00
      21    -1     0     0   501   502  0.000000000E+00  0.000000000E+00 -1.147479817E+02  1.147479817E+02  0.000000000E+00  0.00000E+00  9.000E+00
      25     1     1     2     0     0  2.457822296E+02 -2.898598476E+01  4.374035139E+02  5.178763613E+02  1.250000000E+02  0.00000E+00  9.000E+00
      25     1     1     2     0     0 -2.981481717E+02  8.309323351E+01  3.524785104E+02  4.854512520E+02  1.250000000E+02  0.00000E+00  9.000E+00
       2     1     1     2   501     0  5.236594217E+01 -5.410724875E+01  1.685995487E+02  1.846499231E+02  3.303624740E-06  0.00000E+00  9.000E+00
#rwgt            1           1   2.6751895452033901E-002           2      253919           0
</event>
<event>
      5   9999  3.19816E-02  1.43382E+02 -1.00000E+00  1.17176E-01
      21    -1     0     0   511   501  0.000000000E+00  0.000000000E+00  3.610906326E+02  3.610906326E+02  0.000000000E+00  0.00000E+00  9.000E+00
      21    -1     0     0   501   502  0.000000000E+00  0.000000000E+00 -4.438136925E+02  4.438136925E+02  0.000000000E+00  0.00000E+00  9.000E+00
      25     1     1     2     0     0 -1.528319563E+01 -1.908565428E+01  6.386414642E+01  1.424832182E+02  1.250000000E+02  0.00000E+00  9.000E+00
      25     1     1     2     0     0 -1.280341916E+02  2.340532596E+01 -3.615169017E+02  4.040544935E+02  1.250000000E+02  0.00000E+00  9.000E+00
      21     1     1     2   511   502  1.433173872E+02 -4.319671679E+00  2.149296953E+02  2.583666134E+02  2.697398305E-06  0.00000E+00  9.000E+00
#rwgt            1           1   2.7481347598279460E-002           2      254008           0
</event>
<event>
      5   9999  3.19816E-02  3.03792E+01 -1.00000E+00  1.52662E-01
      21    -1     0     0   502   512  0.000000000E+00  0.000000000E+00  4.472785033E+02  4.472785033E+02  0.000000000E+00  0.00000E+00  9.000E+00
      21    -1     0     0   501   502  0.000000000E+00  0.000000000E+00 -5.445448932E+02  5.445448932E+02  0.000000000E+00  0.00000E+00  9.000E+00
      25     1     1     2     0     0 -3.892078834E+02 -5.913184141E+01  1.486558400E+02  4.389793958E+02  1.250000000E+02  0.00000E+00  9.000E+00
      25     1     1     2     0     0  3.588351665E+02  5.850574897E+01 -3.021168708E+02  4.889633964E+02  1.250000000E+02  0.00000E+00  9.000E+00
      21     1     1     2   501   512  3.037271693E+01  6.260924378E-01  5.619464105E+01  6.388060432E+01  0.000000000E+00  0.00000E+00  9.000E+00
#rwgt            1           1   2.8747746030347104E-002           2      254152           0
</event>
<event>
      5   9999  3.19816E-02  1.54239E+01 -1.00000E+00  1.76251E-01
      21    -1     0     0   502   501  0.000000000E+00  0.000000000E+00  4.128010175E+01  4.128010175E+01  0.000000000E+00  0.00000E+00  9.000E+00
      21    -1     0     0   501   511  0.000000000E+00  0.000000000E+00 -1.147015446E+03  1.147015446E+03  0.000000000E+00  0.00000E+00  9.000E+00
      25     1     1     2     0     0 -5.777901017E+01  6.492918772E+00 -8.982833394E+02  9.088005996E+02  1.250000000E+02  0.00000E+00  9.000E+00
      25     1     1     2     0     0  7.287117839E+01 -9.674541573E+00 -1.131341735E+02  1.839242959E+02  1.250000000E+02  0.00000E+00  9.000E+00
      21     1     1     2   502   511 -1.509216823E+01  3.181622801E+00 -9.431783140E+01  9.557065233E+01  1.348699152E-06  0.00000E+00  9.000E+00
#rwgt            1           1   3.3089528597196168E-002           2      254312           0
</event>
<event>
      5   9999  3.19816E-02  1.98000E+01 -1.00000E+00  1.66730E-01
      21    -1     0     0   512   501  0.000000000E+00  0.000000000E+00  1.291273134E+03  1.291273134E+03  0.000000000E+00  0.00000E+00  9.000E+00
      21    -1     0     0   501   502  0.000000000E+00  0.000000000E+00 -9.031496678E+02  9.031496678E+02  0.000000000E+00  0.00000E+00  9.000E+00
      25     1     1     2     0     0 -2.310266945E+02 -1.780778530E+02  1.481119159E+02  3.502102153E+02  1.250000000E+02  0.00000E+00  9.000E+00
      25     1     1     2     0     0  2.307298320E+02  1.978756556E+02 -7.683326356E+02  8.356740210E+02  1.250000000E+02  0.00000E+00  9.000E+00
      21     1     1     2   512   502  2.968624061E-01 -1.979780267E+01  1.008344185E+03  1.008538565E+03  1.525878906E-05  0.00000E+00  9.000E+00
#rwgt            1           1   2.9621409284417779E-002           2      254535           0
</event>
<event>
      5   9999  3.19816E-02  1.17182E+02 -1.00000E+00  1.20808E-01
       1    -1     0     0   502     0  0.000000000E+00  0.000000000E+00  2.680432553E+03  2.680432553E+03  0.000000000E+00  0.00000E+00  9.000E+00
      21    -1     0     0   501   502  0.000000000E+00  0.000000000E+00 -5.886205448E+01  5.886205448E+01  0.000000000E+00  0.00000E+00  9.000E+00
      25     1     1     2     0     0  2.126193545E+02 -1.073410659E+01  3.725502214E+02  4.469237949E+02  1.250000000E+02  0.00000E+00  9.000E+00
      25     1     1     2     0     0 -2.433665130E+02  1.238108391E+02  1.207623152E+03  1.244401487E+03  1.250000000E+02  0.00000E+00  9.000E+00
       1     1     1     2   501     0  3.074715845E+01 -1.130767326E+02  1.041397125E+03  1.047969326E+03  2.157918644E-05  0.00000E+00  9.000E+00
#rwgt            1           1   3.4443016431894992E-002           2      254729           0
</event>
<event>
      5   9999  3.19816E-02  2.08222E+02 -1.00000E+00  1.11015E-01
      21    -1     0     0   511   501  0.000000000E+00  0.000000000E+00  6.848018346E+02  6.848018346E+02  0.000000000E+00  0.00000E+00  9.000E+00
      21    -1     0     0   501   502  0.000000000E+00  0.000000000E+00 -1.215725450E+03  1.215725450E+03  0.000000000E+00  0.00000E+00  9.000E+00
      25     1     1     2     0     0 -3.418819000E+02 -3.472393530E+02 -2.879115439E+02  5.796347634E+02  1.250000000E+02  0.00000E+00  9.000E+00
      25     1     1     2     0     0  4.638180701E+02  1.784554309E+02 -6.713792363E+02  8.445996815E+02  1.250000000E+02  0.00000E+00  9.000E+00
      21     1     1     2   511   502 -1.219361701E+02  1.687839220E+02  4.283671644E+02  4.762928400E+02  0.000000000E+00  0.00000E+00  9.000E+00
#rwgt            2          11   4.5498645042695149E-003           2      254855           0
</event>
<event>
      5   9999  3.19816E-02  3.75472E+01 -1.00000E+00  1.46565E-01
      21    -1     0     0   502   501  0.000000000E+00  0.000000000E+00  2.905987222E+02  2.905987222E+02  0.000000000E+00  0.00000E+00  9.000E+00
      21    -1     0     0   512   502  0.000000000E+00  0.000000000E+00 -1.464886859E+03  1.464886859E+03  0.000000000E+00  0.00000E+00  9.000E+00
      25     1     1     2     0     0 -1.391634877E+02 -9.538820662E+01 -4.869883906E+01  2.155503728E+02  1.250000000E+02  0.00000E+00  9.000E+00
      25     1     1     2     0     0  1.582793689E+02  6.307138809E+01  1.529389966E+02  2.608556983E+02  1.250000000E+02  0.00000E+00  9.000E+00
      21     1     1     2   512   501 -1.911588120E+01  3.231681853E+01 -1.278528294E+03  1.279079510E+03  0.000000000E+00  0.00000E+00  9.000E+00
#rwgt            1           1   2.9926996780438173E-002           2      254890           0
</event>
<event>
      5   9999  3.19816E-02  1.94676E+02 -1.00000E+00  1.12076E-01
      21    -1     0     0   502   501  0.000000000E+00  0.000000000E+00  1.443027220E+02  1.443027220E+02  0.000000000E+00  0.00000E+00  9.000E+00
       2    -1     0     0   501     0  0.000000000E+00  0.000000000E+00 -1.060144552E+03  1.060144552E+03  0.000000000E+00  0.00000E+00  9.000E+00
      25     1     1     2     0     0 -3.302659804E+02  4.589040013E+01 -3.192608353E+02  4.782614636E+02  1.250000000E+02  0.00000E+00  9.000E+00
      25     1     1     2     0     0  1.421425526E+02 -9.597241930E+01 -3.778275165E+02  4.333518695E+02  1.250000000E+02  0.00000E+00  9.000E+00
       2     1     1     2   502     0  1.881234277E+02  5.008201916E+01 -2.187534783E+02  2.928339410E+02  3.814697266E-06  0.00000E+00  9.000E+00
#rwgt            1           1   2.8425822465630638E-002           2      254978           0
</event>
<event>
      5   9999  3.19816E-02  7.07877E+01 -1.00000E+00  1.30975E-01
      21    -1     0     0   511   501  0.000000000E+00  0.000000000E+00  1.365022522E+02  1.365022522E+02  0.000000000E+00  0.00000E+00  9.000E+00
      21    -1     0     0   501   502  0.000000000E+00  0.000000000E+00 -9.688262875E+02  9.688262875E+02  0.000000000E+00  0.00000E+00  9.000E+00
      25     1     1     2     0     0 -2.377332484E+02  5.963614191E+00 -5.746591761E+02  6.343585979E+02  1.250000000E+02  0.00000E+00  9.000E+00
      25     1     1     2     0     0  1.791407733E+02 -4.568537900E+01 -3.106837900E+02  3.825284145E+02  1.250000000E+02  0.00000E+00  9.000E+00
      21     1     1     2   511   502  5.859247514E+01  3.972176481E+01  5.301893081E+01  8.844152739E+01  2.023048729E-06  0.00000E+00  9.000E+00
#rwgt            1           1   2.6955152828542012E-002           2      255022           0
</event>
<event>
      5   9999  3.19816E-02  4.02970E+01 -1.00000E+00  1.44641E-01
      21    -1     0     0   502   501  0.000000000E+00  0.000000000E+00  6.612394086E+02  6.612394086E+02  0.000000000E+00  0.00000E+00  9.000E+00
      21    -1     0     0   512   502  0.000000000E+00  0.000000000E+00 -1.001265039E+03  1.001265039E+03  0.000000000E+00  0.00000E+00  9.000E+00
      25     1     1     2     0     0 -6.585369544E+02 -1.726114614E+02 -9.393552729E+01  6.985087832E+02  1.250000000E+02  0.00000E+00  9.000E+00
      25     1     1     2     0     0  6.940685217E+02  1.536020575E+02 -7.275514437E+00  7.218051247E+02  1.250000000E+02  0.00000E+00  9.000E+00
      21     1     1     2   512   501 -3.553156730E+01  1.900940386E+01 -2.388145884E+02  2.421905394E+02  3.814697266E-06  0.00000E+00  9.000E+00
#rwgt            1           1   2.4973403247427785E-002           2      255125           0
</event>
<event>
      5   9999  3.19816E-02  8.86845E+01 -1.00000E+00  1.26220E-01
      21    -1     0     0   502   511  0.000000000E+00  0.000000000E+00  2.447022814E+02  2.447022814E+02  0.000000000E+00  0.00000E+00  9.000E+00
      21    -1     0     0   501   502  0.000000000E+00  0.000000000E+00 -3.615313158E+02  3.615313158E+02  0.000000000E+00  0.00000E+00  9.000E+00
      25     1     1     2     0     0  1.442306011E+02 -1.121224481E+02  5.163736745E+01  2.273000822E+02  1.250000000E+02  0.00000E+00  9.000E+00
      25     1     1     2     0     0 -2.010996812E+02  4.407208794E+01 -1.614830118E+02  2.899744709E+02  1.250000000E+02  0.00000E+00  9.000E+00
      21     1     1     2   501   511  5.686908004E+01  6.805036018E+01 -6.983390020E+00  8.895904406E+01  1.879201266E-06  0.00000E+00  9.000E+00
#rwgt            1           1   2.7341803793090008E-002           2      255298           0
</event>
<event>
      5   9999  3.19816E-02  3.85016E+01 -1.00000E+00  1.45876E-01
      21    -1     0     0   512   501  0.000000000E+00  0.000000000E+00  1.093551011E+03  1.093551011E+03  0.000000000E+00  0.00000E+00  9.000E+00
      21    -1     0     0   501   502  0.000000000E+00  0.000000000E+00 -1.027503192E+02  1.027503192E+02  0.000000000E+00  0.00000E+00  9.000E+00
      25     1     1     2     0     0  1.470095695E+02  1.920873296E+02  5.382422339E+02  6.031907311E+02  1.250000000E+02  0.00000E+00  9.000E+00
      25     1     1     2     0     0 -1.173133299E+02 -2.165925616E+02  2.086221176E+02  3.461545075E+02  1.250000000E+02  0.00000E+00  9.000E+00
      21     1     1     2   512   502 -2.969623959E+01  2.450523196E+01  2.439363399E+02  2.469560912E+02  6.607249480E-06  0.00000E+00  9.000E+00
#rwgt            1           1   2.5951645818291433E-002           2      255346           0
</event>
<event>
      5   9999  3.19816E-02  6.28628E+01 -1.00000E+00  1.33631E-01
       1    -1     0     0   502     0  0.000000000E+00  0.000000000E+00  2.833730763E+03  2.833730763E+03  0.000000000E+00  0.00000E+00  9.000E+00
      21    -1     0     0   501   502  0.000000000E+00  0.000000000E+00 -2.583718464E+02  2.583718464E+02  0.000000000E+00  0.00000E+00  9.000E+00
      25     1     1     2     0     0  3.882925841E+02  9.531370048E+01  5.379236159E+02  6.817936997E+02  1.250000000E+02  0.00000E+00  9.000E+00
      25     1     1     2     0     0 -3.628779678E+02 -3.781740271E+01  1.401991720E+01  3.859172626E+02  1.250000000E+02  0.00000E+00  9.000E+00
       1     1     1     2   501     0 -2.541461621E+01 -5.749629776E+01  2.023415384E+03  2.024391647E+03  3.737624730E-05  0.00000E+00  9.000E+00
#rwgt            1           1   3.2882831556408205E-002           2      255482           0
</event>
<event>
      5   9999  3.19816E-02  1.06841E+02 -1.00000E+00  1.22549E-01
      21    -1     0     0   502   501  0.000000000E+00  0.000000000E+00  5.898145782E+02  5.898145782E+02  0.000000000E+00  0.00000E+00  9.000E+00
      21    -1     0     0   511   502  0.000000000E+00  0.000000000E+00 -4.550854252E+02  4.550854252E+02  0.000000000E+00  0.00000E+00  9.000E+00
      25     1     1     2     0     0 -2.186662248E+02  3.389265560E+02 -3.807832450E+01  4.239824136E+02  1.250000000E+02  0.00000E+00  9.000E+00
      25     1     1     2     0     0  2.652437419E+02 -2.427730634E+02  2.776898936E+02  4.712002546E+02  1.250000000E+02  0.00000E+00  9.000E+00
      21     1     1     2   511   501 -4.657751713E+01 -9.615349260E+01 -1.048824161E+02  1.497173351E+02  3.015782986E-06  0.00000E+00  9.000E+00
#rwgt            1           1   2.8069202490789435E-002           2      255547           0
</event>
<event>
      5   9999  3.19816E-02  3.93808E+01 -1.00000E+00  1.45262E-01
       2    -1     0     0   502     0  0.000000000E+00  0.000000000E+00  6.769386594E+02  6.769386594E+02  0.000000000E+00  0.00000E+00  9.000E+00
      21    -1     0     0   501   502  0.000000000E+00  0.000000000E+00 -4.386533090E+02  4.386533090E+02  0.000000000E+00  0.00000E+00  9.000E+00
      25     1     1     2     0     0 -1.281914433E+02  4.261588735E+02  2.668621427E+02  5.337460396E+02  1.250000000E+02  0.00000E+00  9.000E+00
      25     1     1     2     0     0  9.111838179E+01 -4.394418222E+02 -1.210456209E+02  4.813405415E+02  1.250000000E+02  0.00000E+00  9.000E+00
       2     1     1     2   501     0  3.707306147E+01  1.328294867E+01  9.246882858E+01  1.005053873E+02  1.348699152E-06  0.00000E+00  9.000E+00
#rwgt            1           1   2.4850059343669101E-002           2      255671           0
</event>
<event>
      5   9999  3.19816E-02  3.23234E+01 -1.00000E+00  1.50823E-01
      21    -1     0     0   502   511  0.000000000E+00  0.000000000E+00  2.583738228E+02  2.583738228E+02  0.000000000E+00  0.00000E+00  9.000E+00
      21    -1     0     0   501   502  0.000000000E+00  0.000000000E+00 -2.831846043E+03  2.831846043E+03  0.000000000E+00  0.00000E+00  9.000E+00
      25     1     1     2     0     0 -6.553958397E+02 -4.184586381E+02 -1.725160655E+03  1.896432341E+03  1.250000000E+02  0.00000E+00  9.000E+00
      25     1     1     2     0     0  6.858586479E+02  4.076503317E+02 -8.139770563E+02  1.146631818E+03  1.250000000E+02  0.00000E+00  9.000E+00
      21     1     1     2   501   511 -3.046280815E+01  1.080830633E+01 -3.433450865E+01  4.715570645E+01  6.743495762E-07  0.00000E+00  9.000E+00
#rwgt            1           1   2.2814141268627096E-002           2      255842           0
</event>
<event>
      5   9999  3.19816E-02  7.21211E+01 -1.00000E+00  1.30567E-01
      21    -1     0     0   502   512  0.000000000E+00  0.000000000E+00  3.786629795E+02  3.786629795E+02  0.000000000E+00  0.00000E+00  9.000E+00
      21    -1     0     0   501   502  0.000000000E+00  0.000000000E+00 -4.120406149E+02  4.120406149E+02  0.000000000E+00  0.00000E+00  9.000E+00
      25     1     1     2     0     0 -4.428274193E+01  3.658433092E+02 -5.146403609E+01  3.925249484E+02  1.250000000E+02  0.00000E+00  9.000E+00
      25     1     1     2     0     0  1.437032315E+01 -3.002178162E+02  1.869685347E+01  3.260549274E+02  1.250000000E+02  0.00000E+00  9.000E+00
      21     1     1     2   501   512  2.991241878E+01 -6.562549300E+01 -6.104528336E-01  7.212371857E+01  1.073892065E-06  0.00000E+00  9.000E+00
#rwgt            1           1   2.7721813143530102E-002           2      256053           0
</event>
<event>
      5   9999  3.19816E-02  7.07771E+01 -1.00000E+00  1.30978E-01
      21    -1     0     0   502   511  0.000000000E+00  0.000000000E+00  1.534770288E+03  1.534770288E+03  0.000000000E+00  0.00000E+00  9.000E+00
      21    -1     0     0   501   502  0.000000000E+00  0.000000000E+00 -3.928665207E+02  3.928665207E+02  0.000000000E+00  0.00000E+00  9.000E+00
      25     1     1     2     0     0 -3.299365019E+02  1.999417916E+02  1.201281109E+03  1.267886477E+03  1.250000000E+02  0.00000E+00  9.000E+00
      25     1     1     2     0     0  3.194800656E+02 -2.699422684E+02 -2.166111702E+02  4.873209821E+02  1.250000000E+02  0.00000E+00  9.000E+00
      21     1     1     2   501   511  1.045643629E+01  7.000047680E+01  1.572338289E+02  1.724293501E+02  3.303624740E-06  0.00000E+00  9.000E+00
#rwgt            1           1   3.0658980205516540E-002           2      256113           0
</event>
<event>
      5   9999  3.19816E-02  3.24668E+01 -1.00000E+00  1.50694E-01
      21    -1     0     0   502   501  0.000000000E+00  0.000000000E+00  8.803743381E+01  8.803743381E+01  0.000000000E+00  0.00000E+00  9.000E+00
      21    -1     0     0   512   502  0.000000000E+00  0.000000000E+00 -5.111268012E+02  5.111268012E+02  0.000000000E+00  0.00000E+00  9.000E+00
      25     1     1     2     0     0  5.873781665E+01 -3.827886821E+01 -3.308883293E+02  3.605932464E+02  1.250000000E+02  0.00000E+00  9.000E+00
      25     1     1     2     0     0 -9.116721244E+01  3.672026272E+01 -2.109728167E+01  1.604055286E+02  1.250000000E+02  0.00000E+00  9.000E+00
      21     1     1     2   512   501  3.242939579E+01  1.558605489E+00 -7.110375639E+01  7.816545999E+01  9.536743164E-07  0.00000E+00  9.000E+00
#rwgt            2          11   1.5277008621417138E-003           2      256229           0
</event>
<event>
      5   9999  3.19816E-02  5.21663E+01 -1.00000E+00  1.38033E-01
      21    -1     0     0   502   511  0.000000000E+00  0.000000000E+00  1.198125927E+03  1.198125927E+03  0.000000000E+00  0.00000E+00  9.000E+00
      21    -1     0     0   501   502  0.000000000E+00  0.000000000E+00 -7.132303456E+01  7.132303456E+01  0.000000000E+00  0.00000E+00  9.000E+00
      25     1     1     2     0     0  9.168816480E+01 -1.223472420E+02  2.229012262E+02  2.978011482E+02  1.250000000E+02  0.00000E+00  9.000E+00
      25     1     1     2     0     0 -7.385022238E+01  7.332555660E+01  1.677743119E+02  2.336743725E+02  1.250000000E+02  0.00000E+00  9.000E+00
      21     1     1     2   501   511 -1.783794241E+01  4.902168541E+01  7.361273544E+02  7.379734410E+02  1.525878906E-05  0.00000E+00  9.000E+00
#rwgt            1           1   2.8005641360815046E-002           2      256339           0
</event>
<event>
      5   9999  3.19816E-02  4.23540E+01 -1.00000E+00  1.43317E-01
      21    -1     0     0   502   501  0.000000000E+00  0.000000000E+00  1.595125872E+02  1.595125872E+02  0.000000000E+00  0.00000E+00  9.000E+00
      21    -1     0     0   512   502  0.000000000E+00  0.000000000E+00 -2.253637500E+03  2.253637500E+03  0.000000000E+00  0.00000E+00  9.000E+00
      25     1     1     2     0     0  1.232547384E+02  2.497253251E+02 -2.109869780E+01  3.059814105E+02  1.250000000E+02  0.00000E+00  9.000E+00
      25     1     1     2     0     0 -1.438154854E+02 -2.126966708E+02 -1.215392122E+03  1.248489399E+03  1.250000000E+02  0.00000E+00  9.000E+00
      21     1     1     2   512   501  2.056074695E+01 -3.702865425E+01 -8.576340930E+02  8.586792783E+02  1.078959322E-05  0.00000E+00  9.000E+00
#rwgt            1           1   2.7195860877516090E-002           2      256425           0
</event>
<event>
      5   9999  3.19816E-02  7.86851E+00 -1.00000E+00  2.08616E-01
      21    -1     0     0   511   501  0.000000000E+00  0.000000000E+00  3.213042246E+02  3.213042246E+02  0.000000000E+00  0.00000E+00  9.000E+00
      21    -1     0     0   501   502  0.000000000E+00  0.000000000E+00 -2.319616108E+02  2.319616108E+02  0.000000000E+00  0.00000E+00  9.000E+00
      25     1     1     2     0     0  3.074373907E+01 -6.012022497E+01  2.602904354E+02  2.965395921E+02  1.250000000E+02  0.00000E+00  9.000E+00
      25     1     1     2     0     0 -3.522188133E+01  5.365031312E+01 -1.898842146E+02  2.362201346E+02  1.250000000E+02  0.00000E+00  9.000E+00
      21     1     1     2   511   502  4.478142262E+00  6.469911855E+00  1.893639294E+01  2.050610872E+01  3.371747881E-07  0.00000E+00  9.000E+00
#rwgt            1           1   2.5806203965491301E-002           2      256536           0
</event>
<event>
      5   9999  3.19816E-02  1.54398E+02 -1.00000E+00  1.15898E-01
       2    -1     0     0   502     0  0.000000000E+00  0.000000000E+00  1.614325474E+03  1.614325474E+03  0.000000000E+00  0.00000E+00  9.000E+00
      21    -1     0     0   501   502  0.000000000E+00  0.000000000E+00 -2.208757617E+02  2.208757617E+02  0.000000000E+00  0.00000E+00  9.000E+00
      25     1     1     2     0     0 -3.803936850E+02 -1.081415094E+02  1.138437309E+02  4.300922421E+02  1.250000000E+02  0.00000E+00  9.000E+00
      25     1     1     2     0     0  3.030720659E+02  2.417837698E+02  7.503641347E+02  8.538052489E+02  1.250000000E+02  0.00000E+00  9.000E+00
       2     1     1     2   501     0  7.732161912E+01 -1.336422604E+02  5.292418468E+02  5.513037448E+02  1.078959322E-05  0.00000E+00  9.000E+00
#rwgt            1           1   2.8929457955111572E-002           2      256856           0
</event>
<event>
      5   9999  3.19816E-02  6.45959E+00 -1.00000E+00  2.20606E-01
      21    -1     0     0   502   501  0.000000000E+00  0.000000000E+00  1.458961203E+02  1.458961203E+02  0.000000000E+00  0.00000E+00  9.000E+00
      21    -1     0     0   501   511  0.000000000E+00  0.000000000E+00 -4.339174597E+02  4.339174597E+02  0.000000000E+00  0.00000E+00  9.000E+00
      25     1     1     2     0     0  1.459228275E+02 -4.781832851E+00  4.180035078E+01  1.966941962E+02  1.250000000E+02  0.00000E+00  9.000E+00
      25     1     1     2     0     0 -1.410354200E+02  5.581505900E-01 -3.180539108E+02  3.696952683E+02  1.250000000E+02  0.00000E+00  9.000E+00
      21     1     1     2   502   511 -4.887407479E+00  4.223682261E+00 -1.176777940E+01  1.342411546E+01  1.685873940E-07  0.00000E+00  9.000E+00
#rwgt            1           1   2.6776406999526155E-002           2      256925           0
</event>
<event>
      5   9999  3.19816E-02  4.30961E+01 -1.00000E+00  1.42860E-01
      21    -1     0     0   502   501  0.000000000E+00  0.000000000E+00  5.897342359E+02  5.897342359E+02  0.000000000E+00  0.00000E+00  9.000E+00
      21    -1     0     0   501   512  0.000000000E+00  0.000000000E+00 -1.637584021E+02  1.637584021E+02  0.000000000E+00  0.00000E+00  9.000E+00
      25     1     1     2     0     0 -1.921581858E+02  8.286719251E+01  3.466171107E+02  4.237453969E+02  1.250000000E+02  0.00000E+00  9.000E+00
      25     1     1     2     0     0  2.343432218E+02 -7.405266783E+01  5.848334796E+01  2.818613936E+02  1.250000000E+02  0.00000E+00  9.000E+00
      21     1     1     2   502   512 -4.218503593E+01 -8.814524674E+00  2.087537512E+01  4.788584747E+01  5.331201500E-07  0.00000E+00  9.000E+00
#rwgt            1           1   2.8225195505205660E-002           2      257227           0
</event>
<event>
      5   9999  3.19816E-02  4.67994E+01 -1.00000E+00  1.40735E-01
      21    -1     0     0   502   511  0.000000000E+00  0.000000000E+00  6.091472574E+02  6.091472574E+02  0.000000000E+00  0.00000E+00  9.000E+00
      21    -1     0     0   501   502  0.000000000E+00  0.000000000E+00 -2.126665693E+02  2.126665693E+02  0.000000000E+00  0.00000E+00  9.000E+00
      25     1     1     2     0     0  2.227774325E+02  1.005324913E+02  2.154159012E+01  2.753644972E+02  1.250000000E+02  0.00000E+00  9.000E+00
      25     1     1     2     0     0 -2.566729813E+02 -6.826373897E+01  1.763932029E+02  3.424624350E+02  1.250000000E+02  0.00000E+00  9.000E+00
      21     1     1     2   501   511  3.389554880E+01 -3.226875232E+01  1.985458951E+02  2.039868943E+02  0.000000000E+00  0.00000E+00  9.000E+00
#rwgt            1           1   2.9170087522605317E-002           2      257302           0
</event>
<event>
      5   9999  3.19816E-02  2.43758E+01 -1.00000E+00  1.59578E-01
      21    -1     0     0   502   501  0.000000000E+00  0.000000000E+00  1.014626902E+02  1.014626902E+02  0.000000000E+00  0.00000E+00  9.000E+00
      21    -1     0     0   512   502  0.000000000E+00  0.000000000E+00 -3.171401782E+02  3.171401782E+02  0.000000000E+00  0.00000E+00  9.000E+00
      25     1     1     2     0     0 -6.911554601E+01  1.563262441E+01 -1.487231926E+02  2.067968222E+02  1.250000000E+02  0.00000E+00  9.000E+00
      25     1     1     2     0     0  4.811401012E+01 -2.800663991E+01  3.883121831E+00  1.368919592E+02  1.250000000E+02  0.00000E+00  9.000E+00
      21     1     1     2   512   501  2.100153589E+01  1.237401549E+01 -7.083741727E+01  7.491408716E+01  1.348699152E-06  0.00000E+00  9.000E+00
#rwgt            1           1   7.3866706230739848E-002           2      257382           0
</event>
<event>
      5   9999  3.19816E-02  3.61566E+01 -1.00000E+00  1.47615E-01
      21    -1     0     0   502   511  0.000000000E+00  0.000000000E+00  2.311662947E+03  2.311662947E+03  0.000000000E+00  0.00000E+00  9.000E+00
      21    -1     0     0   501   502  0.000000000E+00  0.000000000E+00 -4.609817693E+02  4.609817693E+02  0.000000000E+00  0.00000E+00  9.000E+00
      25     1     1     2     0     0 -1.155856864E+02 -7.133051450E+02  1.640020636E+03  1.796512445E+03  1.250000000E+02  0.00000E+00  9.000E+00
      25     1     1     2     0     0  7.987158599E+01  7.076659228E+02 -3.877967707E+01  7.240852104E+02  1.250000000E+02  0.00000E+00  9.000E+00
      21     1     1     2   501   511  3.571410042E+01  5.639222145E+00  2.494402188E+02  2.520470602E+02  2.697398305E-06  0.00000E+00  9.000E+00
#rwgt            1           1   3.0301480820280020E-002           2      257496           0
</event>
<event>
      5   9999  3.19816E-02  1.96462E+02 -1.00000E+00  1.11931E-01
      21    -1     0     0   502   501  0.000000000E+00  0.000000000E+00  5.086997411E+02  5.086997411E+02  0.000000000E+00  0.00000E+00  9.000E+00
       3    -1     0     0   501     0  0.000000000E+00  0.000000000E+00 -1.467955653E+03  1.467955653E+03  0.000000000E+00  0.00000E+00  9.000E+00
      25     1     1     2     0     0  6.435296853E+02 -2.455785913E+02 -1.143604570E+02  7.093254644E+02  1.250000000E+02  0.00000E+00  9.000E+00
      25     1     1     2     0     0 -4.840745635E+02  3.603446679E+02 -2.947135715E+02  6.831233797E+02  1.250000000E+02  0.00000E+00  9.000E+00
       3     1     1     2   502     0 -1.594551218E+02 -1.147660766E+02 -5.501818835E+02  5.842065501E+02  0.000000000E+00  0.00000E+00  9.000E+00
#rwgt            1           1   2.8537806105978714E-002           2      257707           0
</event>
<event>
      5   9999  3.19816E-02  3.93884E+01 -1.00000E+00  1.45256E-01
      21    -1     0     0   502   511  0.000000000E+00  0.000000000E+00  6.510687801E+01  6.510687801E+01  0.000000000E+00  0.00000E+00  9.000E+00
      21    -1     0     0   501   502  0.000000000E+00  0.000000000E+00 -2.201841889E+03  2.201841889E+03  0.000000000E+00  0.00000E+00  9.000E+00
      25     1     1     2     0     0 -1.716667576E+02  1.545810510E+02 -3.105203234E+02  4.067095380E+02  1.250000000E+02  0.00000E+00  9.000E+00
      25     1     1     2     0     0  1.422161139E+02 -1.807364923E+02 -1.781596105E+03  1.800722295E+03  1.250000000E+02  0.00000E+00  9.000E+00
      21     1     1     2   501   511  2.945064365E+01  2.615544130E+01 -4.461858258E+01  5.951693399E+01  0.000000000E+00  0.00000E+00  9.000E+00
#rwgt            2          11   1.0315822752676028E-002           2      257764           0
</event>
<event>
      5   9999  3.19816E-02  2.01392E+01 -1.00000E+00  1.66121E-01
      21    -1     0     0   512   501  0.000000000E+00  0.000000000E+00  5.879800554E+02  5.879800554E+02  0.000000000E+00  0.00000E+00  9.000E+00
      21    -1     0     0   501   502  0.000000000E+00  0.000000000E+00 -1.159144067E+02  1.159144067E+02  0.000000000E+00  0.00000E+00  9.000E+00
      25     1     1     2     0     0  2.777068091E+01  1.912570640E+02  1.273076698E+02  2.630260787E+02  1.250000000E+02  0.00000E+00  9.000E+00
      25     1     1     2     0     0 -1.060433786E+01 -1.807259057E+02  2.084106815E+02  3.030417746E+02  1.250000000E+02  0.00000E+00  9.000E+00
      21     1     1     2   512   502 -1.716634305E+01 -1.053115830E+01  1.363472973E+02  1.378266089E+02  1.907348633E-06  0.00000E+00  9.000E+00
#rwgt            1           1   3.0573502881944378E-002           2      257784           0
</event>
<event>
      5   9999  3.19816E-02  1.64166E+01 -1.00000E+00  1.73769E-01
      21    -1     0     0   511   501  0.000000000E+00  0.000000000E+00  1.025847196E+03  1.025847196E+03  0.000000000E+00  0.00000E+00  9.000E+00
      21    -1     0     0   501   502  0.000000000E+00  0.000000000E+00 -6.775408792E+02  6.775408792E+02  0.000000000E+00  0.00000E+00  9.000E+00
      25     1     1     2     0     0  4.558679255E+02 -2.863323007E+02  7.987085269E+02  9.712682754E+02  1.250000000E+02  0.00000E+00  9.000E+00
      25     1     1     2     0     0 -4.417112692E+02  2.780200502E+02 -4.650327376E+02  7.101298759E+02  1.250000000E+02  0.00000E+00  9.000E+00
      21     1     1     2   511   502 -1.415665626E+01  8.312250536E+00  1.463052786E+01  2.198992431E+01  4.768371582E-07  0.00000E+00  9.000E+00
#rwgt            1           1   3.0386358751692575E-002           2      257982           0
</event>
<event>
      5   9999  3.19816E-02  3.14991E+02 -1.00000E+00  1.04908E-01
      21    -1     0     0   502   501  0.000000000E+00  0.000000000E+00  1.254715897E+03  1.254715897E+03  0.000000000E+00  0.00000E+00  9.000E+00
      21    -1     0     0   512   502  0.000000000E+00  0.000000000E+00 -2.007947135E+03  2.007947135E+03  0.000000000E+00  0.00000E+00  9.000E+00
      25     1     1     2     0     0 -2.934195738E+02 -1.142651232E+02  6.507517606E+02  7.336582438E+02  1.250000000E+02  0.00000E+00  9.000E+00
      25     1     1     2     0     0  5.771901131E+02  2.509907139E+02  3.609092465E+02  7.362236408E+02  1.250000000E+02  0.00000E+00  9.000E+00
      21     1     1     2   512   501 -2.837705392E+02 -1.367255907E+02 -1.764892245E+03  1.792781147E+03  0.000000000E+00  0.00000E+00  9.000E+00
#rwgt            1           1   3.4541103414900728E-002           2      258237           0
</event>
<event>
      5   9999  3.19816E-02  1.10653E+02 -1.00000E+00  1.21882E-01
      21    -1     0     0   511   501  0.000000000E+00  0.000000000E+00  7.757276825E+02  7.757276825E+02  0.000000000E+00  0.00000E+00  9.000E+00
      21    -1     0     0   501   502  0.000000000E+00  0.000000000E+00 -6.671197870E+02  6.671197870E+02  0.000000000E+00  0.00000E+00  9.000E+00
      25     1     1     2     0     0 -4.885791252E+02  1.226630335E+02 -2.958505807E+02  5.974180675E+02  1.250000000E+02  0.00000E+00  9.000E+00
      25     1     1     2     0     0  5.938479029E+02 -1.567590247E+02  3.067763616E+02  6.978291049E+02  1.250000000E+02  0.00000E+00  9.000E+00
      21     1     1     2   511   502 -1.052687777E+02  3.409599115E+01  9.768211460E+01  1.476002970E+02  1.907348633E-06  0.00000E+00  9.000E+00
#rwgt            1           1   2.9739748224440178E-002           2      258282           0
</event>
<event>
      5   9999  3.19816E-02  3.25860E+02 -1.00000E+00  1.04438E-01
      21    -1     0     0   502   501  0.000000000E+00  0.000000000E+00  2.337385347E+02  2.337385347E+02  0.000000000E+00  0.00000E+00  9.000E+00
      21    -1     0     0   512   502  0.000000000E+00  0.000000000E+00 -1.276273148E+03  1.276273148E+03  0.000000000E+00  0.00000E+00  9.000E+00
      25     1     1     2     0     0  2.120015611E+01  1.717598002E+02 -1.084380114E+02  2.394466077E+02  1.250000000E+02  0.00000E+00  9.000E+00
      25     1     1     2     0     0 -2.192374177E+02  8.701814354E+01  1.471603372E+01  2.673551276E+02  1.250000000E+02  0.00000E+00  9.000E+00
      21     1     1     2   512   501  1.980372616E+02 -2.587779438E+02 -9.488126360E+02  1.003209948E+03  1.868812365E-05  0.00000E+00  9.000E+00
#rwgt            2          11   3.0720273189722303E-003           2      258443           0
</event>
<event>
      5   9999  3.19816E-02  3.28573E+01 -1.00000E+00  1.50345E-01
      21    -1     0     0   502   511  0.000000000E+00  0.000000000E+00  2.711360179E+02  2.711360179E+02  0.000000000E+00  0.00000E+00  9.000E+00
      21    -1     0     0   501   502  0.000000000E+00  0.000000000E+00 -1.563555580E+03  1.563555580E+03  0.000000000E+00  0.00000E+00  9.000E+00
      25     1     1     2     0     0 -4.221134479E+01  6.269754338E+02 -6.609223074E+02  9.205016505E+02  1.250000000E+02  0.00000E+00  9.000E+00
      25     1     1     2     0     0  5.873591022E+01 -5.985757570E+02 -6.319601441E+02  8.813293753E+02  1.250000000E+02  0.00000E+00  9.000E+00
      21     1     1     2   501   511 -1.652456543E+01 -2.839967677E+01  4.628898667E-01  3.286057167E+01  1.790466136E-07  0.00000E+00  9.000E+00
#rwgt            1           1   3.0383604053685658E-002           2      258493           0
</event>
<event>
      5   9999  3.19816E-02  7.22666E+01 -1.00000E+00  1.30524E-01
      21    -1     0     0   502   501  0.000000000E+00  0.000000000E+00  5.472434378E+01  5.472434378E+01  0.000000000E+00  0.00000E+00  9.000E+00
      21    -1     0     0   501   512  0.000000000E+00  0.000000000E+00 -1.874916717E+03  1.874916717E+03  0.000000000E+00  0.00000E+00  9.000E+00
      25     1     1     2     0     0  2.777488913E+00  2.308163721E+02 -6.786473088E+02  7.276476358E+02  1.250000000E+02  0.00000E+00  9.000E+00
      25     1     1     2     0     0 -7.072597990E+01 -2.062102213E+02 -5.341014340E+02  5.902661785E+02  1.250000000E+02  0.00000E+00  9.000E+00
      21     1     1     2   502   512  6.794849099E+01 -2.460615074E+01 -6.074436305E+02  6.117272467E+02  0.000000000E+00  0.00000E+00  9.000E+00
#rwgt            1           1   2.9033070093544756E-002           2      258705           0
</event>
<event>
      5   9999  3.19816E-02  1.44548E+02 -1.00000E+00  1.17034E-01
       2    -1     0     0   502     0  0.000000000E+00  0.000000000E+00  1.240049857E+03  1.240049857E+03  0.000000000E+00  0.00000E+00  9.000E+00
      21    -1     0     0   501   502  0.000000000E+00  0.000000000E+00 -5.807809797E+02  5.807809797E+02  0.000000000E+00  0.00000E+00  9.000E+00
      25     1     1     2     0     0 -2.767007113E+02  6.857986735E+02  5.010225726E+02  9.019599340E+02  1.250000000E+02  0.00000E+00  9.000E+00
      25     1     1     2     0     0  2.198491687E+02 -5.529000066E+02 -1.064835035E+02  6.172485811E+02  1.250000000E+02  0.00000E+00  9.000E+00
       2     1     1     2   501     0  5.685154257E+01 -1.328986669E+02  2.647298079E+02  3.016223214E+02  6.607249480E-06  0.00000E+00  9.000E+00
#rwgt            1           1   2.7362109686525662E-002           2      258779           0
</event>
<event>
      5   9999  3.19816E-02  1.07047E+02 -1.00000E+00  1.22512E-01
      21    -1     0     0   502   511  0.000000000E+00  0.000000000E+00  7.811575335E+02  7.811575335E+02  0.000000000E+00  0.00000E+00  9.000E+00
      21    -1     0     0   501   502  0.000000000E+00  0.000000000E+00 -3.448346688E+02  3.448346688E+02  0.000000000E+00  0.00000E+00  9.000E+00
      25     1     1     2     0     0 -1.790524364E+02 -4.179249611E+02 -9.005614336E+00  4.716218286E+02  1.250000000E+02  0.00000E+00  9.000E+00
      25     1     1     2     0     0  1.558615212E+02  3.134203670E+02  3.303384932E+02  4.972661866E+02  1.250000000E+02  0.00000E+00  9.000E+00
      21     1     1     2   501   511  2.319091528E+01  1.045045942E+02  1.149899859E+02  1.571041871E+02  1.907348633E-06  0.00000E+00  9.000E+00
#rwgt            1           1   2.8553630124106236E-002           2      258920           0
</event>
<event>
      5   9999  3.19816E-02  2.72890E+01 -1.00000E+00  1.55953E-01
      21    -1     0     0   502   501  0.000000000E+00  0.000000000E+00  8.938828864E+02  8.938828864E+02  0.000000000E+00  0.00000E+00  9.000E+00
      21    -1     0     0   501   512  0.000000000E+00  0.000000000E+00 -1.535746147E+02  1.535746147E+02  0.000000000E+00  0.00000E+00  9.000E+00
      25     1     1     2     0     0 -4.959934600E+01  2.283199908E+02  3.795450296E+01  2.676857441E+02  1.250000000E+02  0.00000E+00  9.000E+00
      25     1     1     2     0     0  2.284157064E+01 -2.229617412E+02  7.069590292E+02  7.520968983E+02  1.250000000E+02  0.00000E+00  9.000E+00
      21     1     1     2   502   512  2.675777535E+01 -5.358249588E+00 -4.605260489E+00  2.767485871E+01  5.264139692E-07  0.00000E+00  9.000E+00
#rwgt            1           1   2.6724416916137660E-002           2      259040           0
</event>
<event>
      5   9999  3.19816E-02  2.79429E+02 -1.00000E+00  1.06604E-01
      21    -1     0     0   502   501  0.000000000E+00  0.000000000E+00  7.266529678E+02  7.266529678E+02  0.000000000E+00  0.00000E+00  9.000E+00
       1    -1     0     0   501     0  0.000000000E+00  0.000000000E+00 -1.901859740E+03  1.901859740E+03  0.000000000E+00  0.00000E+00  9.000E+00
      25     1     1     2     0     0  2.550065955E+02  5.230533341E+01  8.414539928E+01  3.007817479E+02  1.250000000E+02  0.00000E+00  9.000E+00
      25     1     1     2     0     0 -6.819928422E+01 -2.601125900E+02  4.810144045E+02  5.650748261E+02  1.250000000E+02  0.00000E+00  9.000E+00
       1     1     1     2   502     0 -1.868073113E+02  2.078072566E+02 -1.740366576E+03  1.762656134E+03  3.051757812E-05  0.00000E+00  9.000E+00
#rwgt            2          12   3.6408458017255438E-003           2      259180           0
</event>
<event>
      5   9999  3.19816E-02  4.88831E+02 -1.00000E+00  9.91315E-02
       2    -1     0     0   502     0  0.000000000E+00  0.000000000E+00  2.989582002E+03  2.989582002E+03  0.000000000E+00  0.00000E+00  9.000E+00
      21    -1     0     0   501   502  0.000000000E+00  0.000000000E+00 -2.020856012E+03  2.020856012E+03  0.000000000E+00  0.00000E+00  9.000E+00
      25     1     1     2     0     0  5.171795411E+02 -2.803885538E+02  7.971981314E+02  9.986201878E+02  1.250000000E+02  0.00000E+00  9.000E+00
      25     1     1     2     0     0 -9.273926768E+02  1.452969694E+01 -1.774045366E+03  2.005774227E+03  1.250000000E+02  0.00000E+00  9.000E+00
       2     1     1     2   501     0  4.102131357E+02  2.658588568E+02  1.945573225E+03  2.006043599E+03  3.051757812E-05  0.00000E+00  9.000E+00
#rwgt            2          18   5.8196171026801847E-003           2      259364           0
</event>
<event>
      5   9999  3.19816E-02  6.27037E+01 -1.00000E+00  1.33688E-01
      21    -1     0     0   502   501  0.000000000E+00  0.000000000E+00  1.762395241E+02  1.762395241E+02  0.000000000E+00  0.00000E+00  9.000E+00
      21    -1     0     0   501   511  0.000000000E+00  0.000000000E+00 -2.421744181E+02  2.421744181E+02  0.000000000E+00  0.00000E+00  9.000E+00
      25     1     1     2     0     0 -4.548945693E+01 -9.689701029E+01  5.423574729E+01  1.732767658E+02  1.250000000E+02  0.00000E+00  9.000E+00
      25     1     1     2     0     0  6.539181872E+01  3.743565212E+01 -5.866124220E+01  1.573011740E+02  1.250000000E+02  0.00000E+00  9.000E+00
      21     1     1     2   502   511 -1.990236179E+01  5.946135817E+01 -6.150939914E+01  8.783600231E+01  6.743495762E-07  0.00000E+00  9.000E+00
#rwgt            1           1   2.5011820500680165E-002           2      259383           0
</event>
<event>
      5   9999  3.19816E-02  1.53091E+01 -1.00000E+00  1.76553E-01
      21    -1     0     0   502   501  0.000000000E+00  0.000000000E+00  8.066301653E+02  8.066301653E+02  0.000000000E+00  0.00000E+00  9.000E+00
      21    -1     0     0   512   502  0.000000000E+00  0.000000000E+00 -1.129721367E+02  1.129721367E+02  0.000000000E+00  0.00000E+00  9.000E+00
      25     1     1     2     0     0  4.819086566E+01  1.492726464E+02  6.166247078E+02  6.484255646E+02  1.250000000E+02  0.00000E+00  9.000E+00
      25     1     1     2     0     0 -4.513298496E+01 -1.342720135E+02  1.211840182E+02  2.244471568E+02  1.250000000E+02  0.00000E+00  9.000E+00
      21     1     1     2   512   501 -3.057880699E+00 -1.500063287E+01 -4.415069740E+01  4.672958059E+01  0.000000000E+00  0.00000E+00  9.000E+00
#rwgt            1           1   2.0318009159078415E-002           2      259472           0
</event>
<event>
      5   9999  3.19816E-02  7.63985E+01 -1.00000E+00  1.29325E-01
      21    -1     0     0   502   501  0.000000000E+00  0.000000000E+00  2.330151748E+02  2.330151748E+02  0.000000000E+00  0.00000E+00  9.000E+00
      21    -1     0     0   501   511  0.000000000E+00  0.000000000E+00 -3.977528522E+02  3.977528522E+02  0.000000000E+00  0.00000E+00  9.000E+00
      25     1     1     2     0     0 -9.490717156E+01  1.340976608E+02  6.605211749E+01  2.167427878E+02  1.250000000E+02  0.00000E+00  9.000E+00
      25     1     1     2     0     0  1.703238935E+02 -1.463060192E+02 -1.312915888E+02  2.885795579E+02  1.250000000E+02  0.00000E+00  9.000E+00
      21     1     1     2   502   511 -7.541672192E+01  1.220835837E+01 -9.949820604E+01  1.254456813E+02  1.348699152E-06  0.00000E+00  9.000E+00
#rwgt            1           1   2.9548509514449088E-002           2      259684           0
</event>
<event>
      5   9999  3.19816E-02  5.30268E+02 -1.00000E+00  9.81322E-02
      21    -1     0     0   502   501  0.000000000E+00  0.000000000E+00  1.770498989E+02  1.770498989E+02  0.000000000E+00  0.00000E+00  9.000E+00
       1    -1     0     0   501     0  0.000000000E+00  0.000000000E+00 -2.934417185E+03  2.934417185E+03  0.000000000E+00  0.00000E+00  9.000E+00
      25     1     1     2     0     0 -1.952293795E+02  2.030395350E+00 -5.054646942E+02  5.560918901E+02  1.250000000E+02  0.00000E+00  9.000E+00
      25     1     1     2     0     0  4.130254288E+02  4.814451803E+02 -9.450890783E+02  1.145075470E+03  1.250000000E+02  0.00000E+00  9.000E+00
       1     1     1     2   502     0 -2.177960492E+02 -4.834755757E+02 -1.306813514E+03  1.410299724E+03  0.000000000E+00  0.00000E+00  9.000E+00
#rwgt            2          12   4.0632354425120540E-004           2      259830           0
</event>
<event>
      5   9999  3.19816E-02  6.78405E+00 -1.00000E+00  2.17495E-01
      21    -1     0     0   502   511  0.000000000E+00  0.000000000E+00  8.826689012E+02  8.826689012E+02  0.000000000E+00  0.00000E+00  9.000E+00
      21    -1     0     0   501   502  0.000000000E+00  0.000000000E+00 -5.304026278E+01  5.304026278E+01  0.000000000E+00  0.00000E+00  9.000E+00
      25     1     1     2     0     0  6.908708960E+01  1.525525663E+02  5.207928592E+02  5.611555164E+02  1.250000000E+02  0.00000E+00  9.000E+00
      25     1     1     2     0     0 -6.983324345E+01 -1.458096714E+02  2.920448314E+02  3.564440008E+02  1.250000000E+02  0.00000E+00  9.000E+00
      21     1     1     2   501   511  7.461538467E-01 -6.742894825E+00  1.679094786E+01  1.810964678E+01  3.371747881E-07  0.00000E+00  9.000E+00
#rwgt            1           1   2.7064286526138213E-002           2      259849           0
</event>
<event>
      5   9999  3.19816E-02  1.28333E+02 -1.00000E+00  1.19144E-01
      21    -1     0     0   502   501  0.000000000E+00  0.000000000E+00  1.544187133E+03  1.544187133E+03  0.000000000E+00  0.00000E+00  9.000E+00
      21    -1     0     0   501   512  0.000000000E+00  0.000000000E+00 -6.770450131E+02  6.770450131E+02  0.000000000E+00  0.00000E+00  9.000E+00
      25     1     1     2     0     0  2.443564253E+02  1.073607613E+02  7.560146909E+02  8.114305937E+02  1.250000000E+02  0.00000E+00  9.000E+00
      25     1     1     2     0     0 -1.256925099E+02 -5.849110794E+01  7.424556037E+02  7.655619767E+02  1.250000000E+02  0.00000E+00  9.000E+00
      21     1     1     2   502   512 -1.186639154E+02 -4.886965340E+01 -6.313281742E+02  6.442395761E+02  1.078959322E-05  0.00000E+00  9.000E+00
#rwgt            1           1   3.5451437156008764E-002           2      260105           0
</event>
<event>
      5   9999  3.19816E-02  1.84599E+02 -1.00000E+00  1.12930E-01
       2    -1     0     0   502     0  0.000000000E+00  0.000000000E+00  1.165637216E+03  1.165637216E+03  0.000000000E+00  0.00000E+00  9.000E+00
      21    -1     0     0   501   502  0.000000000E+00  0.000000000E+00 -1.969707838E+02  1.969707838E+02  0.000000000E+00  0.00000E+00  9.000E+00
      25     1     1     2     0     0  2.096852038E+02  2.509662598E+02  7.485732178E+02  8.264011197E+02  1.250000000E+02  0.00000E+00  9.000E+00
      25     1     1     2     0     0 -2.005837862E+02 -6.659127679E+01 -4.369888018E+00  2.455857271E+02  1.250000000E+02  0.00000E+00  9.000E+00
       2     1     1     2   501     0 -9.101417610E+00 -1.843749830E+02  2.244631022E+02  2.906211527E+02  2.697398305E-06  0.00000E+00  9.000E+00
#rwgt            2          18   5.3961887431823582E-004           2      260202           0
</event>
<event>
      5   9999  3.19816E-02  4.78523E+01 -1.00000E+00  1.40172E-01
      21    -1     0     0   502   511  0.000000000E+00  0.000000000E+00  1.224881033E+03  1.224881033E+03  0.000000000E+00  0.00000E+00  9.000E+00
      21    -1     0     0   501   502  0.000000000E+00  0.000000000E+00 -2.374819526E+02  2.374819526E+02  0.000000000E+00  0.00000E+00  9.000E+00
      25     1     1     2     0     0 -6.100593692E+00 -1.990728301E+02  8.797699301E+01  2.510620645E+02  1.250000000E+02  0.00000E+00  9.000E+00
      25     1     1     2     0     0 -2.091825165E+01  2.385674864E+02 -3.787353760E+01  2.727845737E+02  1.250000000E+02  0.00000E+00  9.000E+00
      21     1     1     2   501   511  2.701884534E+01 -3.949465631E+01  9.372956250E+02  9.385163475E+02  0.000000000E+00  0.00000E+00  9.000E+00
#rwgt            1           1   3.1817619768036938E-002           2      260221           0
</event>
<event>
      5   9999  3.19816E-02  2.85136E+01 -1.00000E+00  1.54589E-01
      21    -1     0     0   502   512  0.000000000E+00  0.000000000E+00  1.909722457E+02  1.909722457E+02  0.000000000E+00  0.00000E+00  9.000E+00
      21    -1     0     0   501   502  0.000000000E+00  0.000000000E+00 -2.101440588E+02  2.101440588E+02  0.000000000E+00  0.00000E+00  9.000E+00
      25     1     1     2     0     0  8.399140637E+01  8.884145185E+01 -7.249323190E+01  1.892818760E+02  1.250000000E+02  0.00000E+00  9.000E+00
      25     1     1     2     0     0 -1.032319595E+02 -6.779796657E+01  3.931697813E+01  1.800672833E+02  1.250000000E+02  0.00000E+00  9.000E+00
      21     1     1     2   501   512  1.924055317E+01 -2.104348528E+01  1.400444062E+01  3.176714523E+01  3.371747881E-07  0.00000E+00  9.000E+00
#rwgt            1           1   3.1099068752487150E-002           2      260293           0
</event>
<event>
      5   9999  3.19816E-02  7.38145E+01 -1.00000E+00  1.30064E-01
      21    -1     0     0   502   501  0.000000000E+00  0.000000000E+00  2.364740288E+02  2.364740288E+02  0.000000000E+00  0.00000E+00  9.000E+00
      21    -1     0     0   511   502  0.000000000E+00  0.000000000E+00 -4.147676332E+02  4.147676332E+02  0.000000000E+00  0.00000E+00  9.000E+00
      25     1     1     2     0     0  1.219423275E+02  2.172378529E+02 -2.127622442E+02  3.506493812E+02  1.250000000E+02  0.00000E+00  9.000E+00
      25     1     1     2     0     0 -9.243970570E+01 -1.495756571E+02  5.749774610E+01  2.232688227E+02  1.250000000E+02  0.00000E+00  9.000E+00
      21     1     1     2   511   501 -2.950262181E+01 -6.766219580E+01 -2.302910638E+01  7.732345812E+01  6.743495762E-07  0.00000E+00  9.000E+00
#rwgt            1           1   2.7175072084362407E-002           2      260415           0
</event>
<event>
      5   9999  3.19816E-02  2.28665E+01 -1.00000E+00  1.61708E-01
      21    -1     0     0   502   512  0.000000000E+00  0.000000000E+00  5.876022029E+02  5.876022029E+02  0.000000000E+00  0.00000E+00  9.000E+00
      21    -1     0     0   501   502  0.000000000E+00  0.000000000E+00 -2.960761938E+02  2.960761938E+02  0.000000000E+00  0.00000E+00  9.000E+00
      25     1     1     2     0     0 -1.014825423E+02  1.612358843E+02 -2.133009224E+02  3.121185677E+02  1.250000000E+02  0.00000E+00  9.000E+00
      25     1     1     2     0     0  9.782733537E+01 -1.838083740E+02  4.365616829E+02  4.995666210E+02  1.250000000E+02  0.00000E+00  9.000E+00
      21     1     1     2   501   512  3.655206972E+00  2.257248969E+01  6.826524863E+01  7.199320801E+01  0.000000000E+00  0.00000E+00  9.000E+00
#rwgt            1           1   2.7621945875538283E-002           2      260535           0
</event>
<event>
      5   9999  3.19816E-02  4.31031E+02 -1.00000E+00  1.00718E-01
      21    -1     0     0   511   501  0.000000000E+00  0.000000000E+00  5.964764872E+02  5.964764872E+02  0.000000000E+00  0.00000E+00  9.000E+00
      21    -1     0     0   501   502  0.000000000E+00  0.000000000E+00 -5.653072161E+02  5.653072161E+02  0.000000000E+00  0.00000E+00  9.000E+00
      25     1     1     2     0     0  4.665424670E+02 -5.510620891E+01 -3.670107306E+01  4.875146526E+02  1.250000000E+02  0.00000E+00  9.000E+00
      25     1     1     2     0     0 -3.906850547E+01 -1.522395445E-01 -1.434357552E+02  1.942297278E+02  1.250000000E+02  0.00000E+00  9.000E+00
      21     1     1     2   511   502 -4.274739615E+02  5.525844845E+01  2.113060994E+02  4.800393229E+02  2.697398305E-06  0.00000E+00  9.000E+00
#rwgt            2          11   3.7306663731955644E-003           2      260702           0
</event>
<event>
      5   9999  3.19816E-02  2.26696E+01 -1.00000E+00  1.62001E-01
      21    -1     0     0   502   501  0.000000000E+00  0.000000000E+00  1.051460803E+02  1.051460803E+02  0.000000000E+00  0.00000E+00  9.000E+00
      21    -1     0     0   501   512  0.000000000E+00  0.000000000E+00 -1.441231717E+03  1.441231717E+03  0.000000000E+00  0.00000E+00  9.000E+00
      25     1     1     2     0     0 -1.390089626E+02 -1.563885282E+02 -9.359033850E+01  2.610843061E+02  1.250000000E+02  0.00000E+00  9.000E+00
      25     1     1     2     0     0  1.164763341E+02  1.588765615E+02 -6.209403191E+02  6.633252431E+02  1.250000000E+02  0.00000E+00  9.000E+00
      21     1     1     2   502   512  2.253262856E+01 -2.488033345E+00 -6.215549791E+02  6.219682481E+02  7.629394531E-06  0.00000E+00  9.000E+00
#rwgt            1           1   2.9439843317018880E-002           2      260722           0
</event>
<event>
      5   9999  3.19816E-02  5.52953E+01 -1.00000E+00  1.36626E-01
      21    -1     0     0   502   501  0.000000000E+00  0.000000000E+00  9.755750895E+02  9.755750895E+02  0.000000000E+00  0.00000E+00  9.000E+00
       2    -1     0     0   501     0  0.000000000E+00  0.000000000E+00 -2.462648854E+03  2.462648854E+03  0.000000000E+00  0.00000E+00  9.000E+00
      25     1     1     2     0     0  1.341654667E+02  4.256174986E+02  4.339528608E+02  6.348942534E+02  1.250000000E+02  0.00000E+00  9.000E+00
      25     1     1     2     0     0 -1.209657142E+02 -3.719207500E+02  3.452055712E+02  5.364229998E+02  1.250000000E+02  0.00000E+00  9.000E+00
       2     1     1     2   502     0 -1.319975257E+01 -5.369674866E+01 -2.266232197E+03  2.266906691E+03  0.000000000E+00  0.00000E+00  9.000E+00
#rwgt            1           1   2.8051149813700375E-002           2      260867           0
</event>
<event>
      5   9999  3.19816E-02  7.07862E+01 -1.00000E+00  1.30975E-01
      21    -1     0     0   502   511  0.000000000E+00  0.000000000E+00  6.661551040E+02  6.661551040E+02  0.000000000E+00  0.00000E+00  9.000E+00
      21    -1     0     0   501   502  0.000000000E+00  0.000000000E+00 -7.906746815E+02  7.906746815E+02  0.000000000E+00  0.00000E+00  9.000E+00
      25     1     1     2     0     0 -1.853658482E+02  3.948391510E+01  5.263099486E+02  5.731898806E+02  1.250000000E+02  0.00000E+00  9.000E+00
      25     1     1     2     0     0  1.455480007E+02  1.904149436E+01 -7.428961022E+02  7.675066238E+02  1.250000000E+02  0.00000E+00  9.000E+00
      21     1     1     2   501   511  3.981784751E+01 -5.852540946E+01  9.206657609E+01  1.161332810E+02  0.000000000E+00  0.00000E+00  9.000E+00
#rwgt            1           1   3.0075334312379246E-002           2      260981           0
</event>
<event>
      5   9999  3.52623E-02  6.64457E+01 -1.00000E+00  1.32377E-01
      21    -1     0     0   502   512  0.000000000E+00  0.000000000E+00  2.577408249E+03  2.577408249E+03  0.000000000E+00  0.00000E+00  9.000E+00
      21    -1     0     0   501   502  0.000000000E+00  0.000000000E+00 -7.018622713E+01  7.018622713E+01  0.000000000E+00  0.00000E+00  9.000E+00
      25     1     1     2     0     0  2.897334687E+02 -1.488931690E+02  7.490856342E+02  8.263588482E+02  1.250000000E+02  0.00000E+00  9.000E+00
      25     1     1     2     0     0 -3.556434238E+02  1.573135695E+02  1.488171083E+03  1.543213523E+03  1.250000000E+02  0.00000E+00  9.000E+00
      21     1     1     2   501   512  6.590995513E+01 -8.420400495E+00  2.699653049E+02  2.780221055E+02  3.814697266E-06  0.00000E+00  9.000E+00
#rwgt            1           1  0.10346472123538121                2      261148           0
</event>
<event>
      5   9999  3.19816E-02  2.19784E+02 -1.00000E+00  1.10177E-01
      21    -1     0     0   502   501  0.000000000E+00  0.000000000E+00  6.993988260E+02  6.993988260E+02  0.000000000E+00  0.00000E+00  9.000E+00
       1    -1     0     0   501     0  0.000000000E+00  0.000000000E+00 -3.172061442E+03  3.172061442E+03  0.000000000E+00  0.00000E+00  9.000E+00
      25     1     1     2     0     0 -4.729021704E+02  3.742764228E+02  3.517756669E+02  7.092886741E+02  1.250000000E+02  0.00000E+00  9.000E+00
      25     1     1     2     0     0  5.222008364E+02 -5.884602261E+02 -8.111126958E+02  1.136885199E+03  1.250000000E+02  0.00000E+00  9.000E+00
       1     1     1     2   502     0 -4.929866607E+01  2.141838033E+02 -2.013325587E+03  2.025286395E+03  3.051757812E-05  0.00000E+00  9.000E+00
#rwgt            1           1   3.7409854745497378E-002           2      261244           0
</event>
<event>
      5   9999  3.19816E-02  2.40808E+01 -1.00000E+00  1.59979E-01
      21    -1     0     0   502   501  0.000000000E+00  0.000000000E+00  8.277430603E+02  8.277430603E+02  0.000000000E+00  0.00000E+00  9.000E+00
      21    -1     0     0   511   502  0.000000000E+00  0.000000000E+00 -2.290057293E+02  2.290057293E+02  0.000000000E+00  0.00000E+00  9.000E+00
      25     1     1     2     0     0 -2.335995030E+01 -3.788344972E+02  4.119091492E+02  5.738949475E+02  1.250000000E+02  0.00000E+00  9.000E+00
      25     1     1     2     0     0  3.574062448E+01  3.994888516E+02  1.838885807E+02  4.585943140E+02  1.250000000E+02  0.00000E+00  9.000E+00
      21     1     1     2   511   501 -1.238067417E+01 -2.065435433E+01  2.939601183E+00  2.425952804E+01  4.616955931E-07  0.00000E+00  9.000E+00
#rwgt            1           1   2.9942057479859122E-002           2      261339           0
</event>
<event>
      5   9999  3.19816E-02  1.58236E+01 -1.00000E+00  1.75224E-01
      21    -1     0     0   512   501  0.000000000E+00  0.000000000E+00  7.020622756E+02  7.020622756E+02  0.000000000E+00  0.00000E+00  9.000E+00
      21    -1     0     0   501   502  0.000000000E+00  0.000000000E+00 -2.244679476E+02  2.244679476E+02  0.000000000E+00  0.00000E+00  9.000E+00
      25     1     1     2     0     0  3.080555728E+02 -5.745893511E+01  4.367795675E+02  5.519068361E+02  1.250000000E+02  0.00000E+00  9.000E+00
      25     1     1     2     0     0 -2.922706719E+02  5.856446884E+01 -7.979619221E+00  3.233274146E+02  1.250000000E+02  0.00000E+00  9.000E+00
      21     1     1     2   512   502 -1.578490084E+01 -1.105533738E+00  4.879437976E+01  5.129597251E+01  0.000000000E+00  0.00000E+00  9.000E+00
#rwgt            1           1   2.6776893621681706E-002           2      261535           0
</event>
<event>
      5   9999  3.19816E-02  3.11800E+01 -1.00000E+00  1.51885E-01
      21    -1     0     0   502   501  0.000000000E+00  0.000000000E+00  3.443466624E+02  3.443466624E+02  0.000000000E+00  0.00000E+00  9.000E+00
      21    -1     0     0   501   511  0.000000000E+00  0.000000000E+00 -2.987881024E+02  2.987881024E+02  0.000000000E+00  0.00000E+00  9.000E+00
      25     1     1     2     0     0 -1.065041126E+02 -3.133456656E+01  2.753109789E+02  3.220964392E+02  1.250000000E+02  0.00000E+00  9.000E+00
      25     1     1     2     0     0  1.360426388E+02  4.131795250E+01 -2.152301460E+02  2.866422657E+02  1.250000000E+02  0.00000E+00  9.000E+00
      21     1     1     2   502   511 -2.953852618E+01 -9.983385939E+00 -1.452227294E+01  3.439605988E+01  5.591411304E-07  0.00000E+00  9.000E+00
#rwgt            1           1   2.8137148616309719E-002           2      261669           0
</event>
<event>
      5   9999  3.19816E-02  7.66493E+01 -1.00000E+00  1.29255E-01
      21    -1     0     0   502   512  0.000000000E+00  0.000000000E+00  8.795236423E+02  8.795236423E+02  0.000000000E+00  0.00000E+00  9.000E+00
      21    -1     0     0   501   502  0.000000000E+00  0.000000000E+00 -4.609572500E+02  4.609572500E+02  0.000000000E+00  0.00000E+00  9.000E+00
      25     1     1     2     0     0  9.310025929E+01 -3.622643440E+02 -2.329722530E+02  4.580438667E+02  1.250000000E+02  0.00000E+00  9.000E+00
      25     1     1     2     0     0 -6.577749953E+01  4.338784336E+02  3.606242486E+02  5.815943804E+02  1.250000000E+02  0.00000E+00  9.000E+00
      21     1     1     2   501   512 -2.732275976E+01 -7.161408960E+01  2.909143965E+02  3.008426452E+02  0.000000000E+00  0.00000E+00  9.000E+00
#rwgt            1           1   2.8771675968982755E-002           2      261815           0
</event>
<event>
      5   9999  3.19816E-02  2.64497E+02 -1.00000E+00  1.07400E-01
      21    -1     0     0   502   511  0.000000000E+00  0.000000000E+00  9.040496452E+02  9.040496452E+02  0.000000000E+00  0.00000E+00  9.000E+00
      21    -1     0     0   501   502  0.000000000E+00  0.000000000E+00 -1.537107673E+02  1.537107673E+02  0.000000000E+00  0.00000E+00  9.000E+00
      25     1     1     2     0     0  9.946137823E+01  9.731086075E+01  8.655211857E+01  2.061024954E+02  1.250000000E+02  0.00000E+00  9.000E+00
      25     1     1     2     0     0 -1.209872591E+02  1.663086477E+02  1.808899200E+02  3.010691720E+02  1.250000000E+02  0.00000E+00  9.000E+00
      21     1     1     2   501   511  2.152588091E+01 -2.636195085E+02  4.828968393E+02  5.505887451E+02  5.394796609E-06  0.00000E+00  9.000E+00
#rwgt            1           1   2.7993151355762261E-002           2      261907           0
</event>
<event>
      5   9999  3.19816E-02  4.71147E+01 -1.00000E+00  1.40565E-01
      21    -1     0     0   502   501  0.000000000E+00  0.000000000E+00  8.054501995E+02  8.054501995E+02  0.000000000E+00  0.00000E+00  9.000E+00
      21    -1     0     0   512   502  0.000000000E+00  0.000000000E+00 -3.992313581E+02  3.992313581E+02  0.000000000E+00  0.00000E+00  9.000E+00
      25     1     1     2     0     0 -1.713427710E+01 -1.194126754E+02 -3.302916123E+02  3.731896564E+02  1.250000000E+02  0.00000E+00  9.000E+00
      25     1     1     2     0     0  4.900762038E+01  1.541097301E+02  7.540179117E+02  7.812295226E+02  1.250000000E+02  0.00000E+00  9.000E+00
      21     1     1     2   512   501 -3.187334328E+01 -3.469705469E+01 -1.750745803E+01  5.026237860E+01  4.129530925E-07  0.00000E+00  9.000E+00
#rwgt            1           1   2.8078260641180391E-002           2      261941           0
</event>
<event>
      5   9999  3.19816E-02  1.19190E+02 -1.00000E+00  1.20493E-01
      21    -1     0     0   502   501  0.000000000E+00  0.000000000E+00  6.828201353E+02  6.828201353E+02  0.000000000E+00  0.00000E+00  9.000E+00
       1    -1     0     0   501     0  0.000000000E+00  0.000000000E+00 -9.025351556E+02  9.025351556E+02  0.000000000E+00  0.00000E+00  9.000E+00
      25     1     1     2     0     0 -2.020129669E+02  2.069040478E+02  2.542404555E+02  4.048230886E+02  1.250000000E+02  0.00000E+00  9.000E+00
      25     1     1     2     0     0  8.416550197E+01 -2.247407137E+02  2.962119099E+02  4.011966047E+02  1.250000000E+02  0.00000E+00  9.000E+00
       1     1     1     2   502     0  1.178474649E+02  1.783666587E+01 -7.701673857E+02  7.793355975E+02  1.078959322E-05  0.00000E+00  9.000E+00
#rwgt            1           1   2.8200740369730252E-002           2      262044           0
</event>
<event>
      5   9999  3.19816E-02  1.81856E+02 -1.00000E+00  1.13173E-01
      21    -1     0     0   502   501  0.000000000E+00  0.000000000E+00  7.537672182E+02  7.537672182E+02  0.000000000E+00  0.00000E+00  9.000E+00
      21    -1     0     0   511   502  0.000000000E+00  0.000000000E+00 -1.235589061E+03  1.235589061E+03  0.000000000E+00  0.00000E+00  9.000E+00
      25     1     1     2     0     0  2.428024387E+02  1.074597784E+02 -8.505708721E+02  8.997757702E+02  1.250000000E+02  0.00000E+00  9.000E+00
      25     1     1     2     0     0 -7.157348170E+01 -4.620539220E+01  6.975907247E+02  7.138035589E+02  1.250000000E+02  0.00000E+00  9.000E+00
      21     1     1     2   511   501 -1.712289570E+02 -6.125438625E+01 -3.288416958E+02  3.757769504E+02  3.814697266E-06  0.00000E+00  9.000E+00
#rwgt            1           1   1.6030948248456262E-002           2      262096           0
</event>
<event>
      5   9999  3.19816E-02  1.53590E+02 -1.00000E+00  1.15988E-01
      21    -1     0     0   512   501  0.000000000E+00  0.000000000E+00  1.726186872E+02  1.726186872E+02  0.000000000E+00  0.00000E+00  9.000E+00
      21    -1     0     0   501   502  0.000000000E+00  0.000000000E+00 -2.136907343E+03  2.136907343E+03  0.000000000E+00  0.00000E+00  9.000E+00
      25     1     1     2     0     0  2.708716255E+02 -2.735619113E+02 -1.009670347E+03  1.087780661E+03  1.250000000E+02  0.00000E+00  9.000E+00
      25     1     1     2     0     0 -2.204530633E+02  1.284828200E+02 -1.017018170E+03  1.055963232E+03  1.250000000E+02  0.00000E+00  9.000E+00
      21     1     1     2   512   502 -5.041856219E+01  1.450790913E+02  6.239986193E+01  1.657821369E+02  5.840038640E-06  0.00000E+00  9.000E+00
#rwgt            1           1   2.9373632314892959E-002           2      262196           0
</event>
<event>
      5   9999  3.19816E-02  5.65583E+01 -1.00000E+00  1.36089E-01
      21    -1     0     0   502   511  0.000000000E+00  0.000000000E+00  3.621551434E+01  3.621551434E+01  0.000000000E+00  0.00000E+00  9.000E+00
      21    -1     0     0   501   502  0.000000000E+00  0.000000000E+00 -2.229563712E+03  2.229563712E+03  0.000000000E+00  0.00000E+00  9.000E+00
      25     1     1     2     0     0 -1.234848892E+01 -5.521779013E+01 -1.869962291E+03  1.874989456E+03  1.250000000E+02  0.00000E+00  9.000E+00
      25     1     1     2     0     0  6.709842368E+01  6.940540163E+01 -1.982866252E+02  2.534992978E+02  1.250000000E+02  0.00000E+00  9.000E+00
      21     1     1     2   501   511 -5.474993476E+01 -1.418761151E+01 -1.250992805E+02  1.372904719E+02  0.000000000E+00  0.00000E+00  9.000E+00
#rwgt            1           1   8.3198120814859611E-002           2      262246           0
</event>
<event>
      5   9999  3.19816E-02  2.54777E+01 -1.00000E+00  1.58138E-01
      21    -1     0     0   502   512  0.000000000E+00  0.000000000E+00  1.504791926E+02  1.504791926E+02  0.000000000E+00  0.00000E+00  9.000E+00
      21    -1     0     0   501   502  0.000000000E+00  0.000000000E+00 -1.598316928E+03  1.598316928E+03  0.000000000E+00  0.00000E+00  9.000E+00
      25     1     1     2     0     0  3.664572629E+02  2.021828729E+02 -3.986599034E+02  5.913742963E+02  1.250000000E+02  0.00000E+00  9.000E+00
      25     1     1     2     0     0 -3.557384723E+02 -1.790696874E+02 -1.051999997E+03  1.131788322E+03  1.250000000E+02  0.00000E+00  9.000E+00
      21     1     1     2   501   512 -1.071879065E+01 -2.311318555E+01  2.822164597E+00  2.563350215E+01  5.670278546E-07  0.00000E+00  9.000E+00
#rwgt            1           1   3.0698948079586352E-002           2      262304           0
</event>
<event>
      5   9999  3.19816E-02  1.43914E+02 -1.00000E+00  1.17111E-01
      21    -1     0     0   502   511  0.000000000E+00  0.000000000E+00  5.483611385E+02  5.483611385E+02  0.000000000E+00  0.00000E+00  9.000E+00
      21    -1     0     0   501   502  0.000000000E+00  0.000000000E+00 -1.846427085E+02  1.846427085E+02  0.000000000E+00  0.00000E+00  9.000E+00
      25     1     1     2     0     0  2.128518124E+02 -4.048245616E+01 -5.204283483E+00  2.501935408E+02  1.250000000E+02  0.00000E+00  9.000E+00
      25     1     1     2     0     0 -6.899203849E+01  3.653710990E+01  2.718168660E+02  3.091994024E+02  1.250000000E+02  0.00000E+00  9.000E+00
      21     1     1     2   501   511 -1.438597739E+02  3.945346259E+00  9.710584750E+01  1.736109038E+02  3.814697266E-06  0.00000E+00  9.000E+00
#rwgt            1           1   2.8724524118534274E-002           2      262412           0
</event>
<event>
      5   9999  3.19816E-02  5.31982E+01 -1.00000E+00  1.37556E-01
      21    -1     0     0   502   501  0.000000000E+00  0.000000000E+00  4.225417761E+01  4.225417761E+01  0.000000000E+00  0.00000E+00  9.000E+00
      21    -1     0     0   501   512  0.000000000E+00  0.000000000E+00 -8.695512831E+02  8.695512831E+02  0.000000000E+00  0.00000E+00  9.000E+00
      25     1     1     2     0     0  8.355541371E+01 -5.243536836E+01 -5.508472776E+02  5.734009926E+02  1.250000000E+02  0.00000E+00  9.000E+00
      25     1     1     2     0     0 -3.204746965E+01  3.913182336E+01 -1.527739626E+02  2.037724799E+02  1.250000000E+02  0.00000E+00  9.000E+00
      21     1     1     2   502   512 -5.150794407E+01  1.330354500E+01 -1.236758653E+02  1.346319883E+02  1.907348633E-06  0.00000E+00  9.000E+00
#rwgt            1           1   2.4474038951886896E-002           2      262458           0
</event>
<event>
      5   9999  3.19816E-02  4.89294E+01 -1.00000E+00  1.39614E-01
      21    -1     0     0   502   511  0.000000000E+00  0.000000000E+00  2.862853324E+02  2.862853324E+02  0.000000000E+00  0.00000E+00  9.000E+00
      21    -1     0     0   501   502  0.000000000E+00  0.000000000E+00 -2.977976109E+02  2.977976109E+02  0.000000000E+00  0.00000E+00  9.000E+00
      25     1     1     2     0     0  3.339383020E+01  2.409700744E+00 -2.501146447E+02  2.816083984E+02  1.250000000E+02  0.00000E+00  9.000E+00
      25     1     1     2     0     0  7.374679929E+00  2.464603423E+01  2.101741909E+02  2.458861595E+02  1.250000000E+02  0.00000E+00  9.000E+00
      21     1     1     2   501   511 -4.076851013E+01 -2.705573497E+01  2.842817534E+01  5.658838543E+01  9.536743164E-07  0.00000E+00  9.000E+00
#rwgt            1           1   2.6773546001932776E-002           2      262552           0
</event>
<event>
      5   9999  3.19816E-02  1.14371E+02 -1.00000E+00  1.21261E-01
       2    -1     0     0   502     0  0.000000000E+00  0.000000000E+00  5.284294272E+02  5.284294272E+02  0.000000000E+00  0.00000E+00  9.000E+00
      21    -1     0     0   501   502  0.000000000E+00  0.000000000E+00 -4.882495348E+02  4.882495348E+02  0.000000000E+00  0.00000E+00  9.000E+00
      25     1     1     2     0     0 -1.582606996E+02 -1.274998606E+02  2.284365063E+02  3.303193922E+02  1.250000000E+02  0.00000E+00  9.000E+00
      25     1     1     2     0     0  9.849495738E+01  2.998669307E+01 -4.078183259E+02  4.387952203E+02  1.250000000E+02  0.00000E+00  9.000E+00
       2     1     1     2   501     0  5.976574219E+01  9.751316749E+01  2.195617120E+02  2.475643495E+02  2.697398305E-06  0.00000E+00  9.000E+00
#rwgt            1           1   2.7808331985688012E-002           2      262662           0
</event>
<event>
      5   9999  3.19816E-02  1.88411E+01 -1.00000E+00  1.68537E-01
      21    -1     0     0   511   501  0.000000000E+00  0.000000000E+00  2.126944337E+02  2.126944337E+02  0.000000000E+00  0.00000E+00  9.000E+00
      21    -1     0     0   501   502  0.000000000E+00  0.000000000E+00 -3.619537999E+02  3.619537999E+02  0.000000000E+00  0.00000E+00  9.000E+00
      25     1     1     2     0     0 -3.319273660E+01 -2.300626825E+02 -8.577375361E+01  2.775116798E+02  1.250000000E+02  0.00000E+00  9.000E+00
      25     1     1     2     0     0  5.152468332E+01  2.344133104E+02 -6.476677194E+01  2.782519144E+02  1.250000000E+02  0.00000E+00  9.000E+00
      21     1     1     2   511   502 -1.833194671E+01 -4.350627957E+00  1.281159357E+00  1.888463934E+01  1.873046918E-07  0.00000E+00  9.000E+00
#rwgt            1           1   2.6817517230120384E-002           2      262766           0
</event>
<event>
      5   9999  3.19816E-02  4.71393E+01 -1.00000E+00  1.40551E-01
      21    -1     0     0   512   501  0.000000000E+00  0.000000000E+00  7.736131117E+02  7.736131117E+02  0.000000000E+00  0.00000E+00  9.000E+00
      21    -1     0     0   501   502  0.000000000E+00  0.000000000E+00 -3.760954730E+02  3.760954730E+02  0.000000000E+00  0.00000E+00  9.000E+00
      25     1     1     2     0     0 -4.799408343E+02 -1.771895914E+02  8.100307671E+01  5.328469332E+02  1.250000000E+02  0.00000E+00  9.000E+00
      25     1     1     2     0     0  4.331727324E+02  1.712858428E+02  2.861419074E+02  5.607848493E+02  1.250000000E+02  0.00000E+00  9.000E+00
      21     1     1     2   512   502  4.676810192E+01  5.903748580E+00  3.037265458E+01  5.607680225E+01  4.768371582E-07  0.00000E+00  9.000E+00
#rwgt            1           1   3.1093637500900575E-002           2      262928           0
</event>
<event>
      5   9999  3.19816E-02  7.75570E+01 -1.00000E+00  1.29005E-01
      21    -1     0     0   502   501  0.000000000E+00  0.000000000E+00  2.840948754E+02  2.840948754E+02  0.000000000E+00  0.00000E+00  9.000E+00
      -2    -1     0     0     0   502  0.000000000E+00  0.000000000E+00 -6.789354180E+02  6.789354180E+02  0.000000000E+00  0.00000E+00  9.000E+00
      25     1     1     2     0     0 -2.194795486E+02  5.885338561E+01  1.412876043E+02  2.953340149E+02  1.250000000E+02  0.00000E+00  9.000E+00
      25     1     1     2     0     0  1.424642899E+02 -4.970248597E+01 -9.131228464E+01  2.161697119E+02  1.250000000E+02  0.00000E+00  9.000E+00
      -2     1     1     2     0   501  7.701525869E+01 -9.150899640E+00 -4.448158622E+02  4.515265666E+02  7.629394531E-06  0.00000E+00  9.000E+00
#rwgt            1           1   3.0376555030678667E-002           2      263078           0
</event>
<event>
      5   9999  3.19816E-02  1.30835E+01 -1.00000E+00  1.83165E-01
      21    -1     0     0   502   511  0.000000000E+00  0.000000000E+00  2.555565412E+02  2.555565412E+02  0.000000000E+00  0.00000E+00  9.000E+00
      21    -1     0     0   501   502  0.000000000E+00  0.000000000E+00 -1.567150717E+02  1.567150717E+02  0.000000000E+00  0.00000E+00  9.000E+00
      25     1     1     2     0     0  8.871360532E+01  4.369871457E+01  1.604348851E+02  2.261504671E+02  1.250000000E+02  0.00000E+00  9.000E+00
      25     1     1     2     0     0 -8.975548589E+01 -3.065677482E+01 -6.863299721E+01  1.712640458E+02  1.250000000E+02  0.00000E+00  9.000E+00
      21     1     1     2   501   511  1.041880573E+00 -1.304193976E+01  7.039581677E+00  1.485709992E+01  1.460009660E-07  0.00000E+00  9.000E+00
#rwgt            1           1   2.6253468367526532E-002           2      263140           0
</event>
<event>
      5   9999  3.19816E-02  1.87425E+02 -1.00000E+00  1.12684E-01
       4    -1     0     0   502     0  0.000000000E+00  0.000000000E+00  9.647846982E+01  9.647846982E+01  0.000000000E+00  0.00000E+00  9.000E+00
      21    -1     0     0   501   502  0.000000000E+00  0.000000000E+00 -1.813603147E+03  1.813603147E+03  0.000000000E+00  0.00000E+00  9.000E+00
      25     1     1     2     0     0 -1.419076686E+02 -2.131712471E+02 -1.438033549E+03  1.465996335E+03  1.250000000E+02  0.00000E+00  9.000E+00
      25     1     1     2     0     0  2.946030567E+01  6.322581382E+01 -1.863161250E+02  2.349555523E+02  1.250000000E+02  0.00000E+00  9.000E+00
       4     1     1     2   501     0  1.124473629E+02  1.499454332E+02 -9.277500299E+01  2.091297290E+02  6.325959759E-06  0.00000E+00  9.000E+00
#rwgt            1           1   3.6918194775865713E-002           2      263260           0
</event>
<event>
      5   9999  3.19816E-02  1.78082E+02 -1.00000E+00  1.13514E-01
       2    -1     0     0   502     0  0.000000000E+00  0.000000000E+00  2.585139846E+02  2.585139846E+02  0.000000000E+00  0.00000E+00  9.000E+00
      21    -1     0     0   501   502  0.000000000E+00  0.000000000E+00 -1.389489580E+03  1.389489580E+03  0.000000000E+00  0.00000E+00  9.000E+00
      25     1     1     2     0     0 -4.108575173E+01  3.157300180E+01 -8.716374227E+02  8.820780521E+02  1.250000000E+02  0.00000E+00  9.000E+00
      25     1     1     2     0     0  1.682071911E+02  9.314019401E+01 -4.499780554E+02  5.050485177E+02  1.250000000E+02  0.00000E+00  9.000E+00
       2     1     1     2   501     0 -1.271214394E+02 -1.247131958E+02  1.906398827E+02  2.608769948E+02  2.697398305E-06  0.00000E+00  9.000E+00
#rwgt            2          18   1.9403851106585669E-003           2      263364           0
</event>
<event>
      5   9999  3.19816E-02  2.70200E+02 -1.00000E+00  1.07090E-01
      21    -1     0     0   502   511  0.000000000E+00  0.000000000E+00  5.381315357E+02  5.381315357E+02  0.000000000E+00  0.00000E+00  9.000E+00
      21    -1     0     0   501   502  0.000000000E+00  0.000000000E+00 -5.539743967E+02  5.539743967E+02  0.000000000E+00  0.00000E+00  9.000E+00
      25     1     1     2     0     0 -1.506023091E+02 -1.249985887E+02 -2.283225150E+02  3.256714196E+02  1.250000000E+02  0.00000E+00  9.000E+00
      25     1     1     2     0     0 -4.954017812E+01  3.065225349E+02 -1.038100440E+02  3.504451724E+02  1.250000000E+02  0.00000E+00  9.000E+00
      21     1     1     2   501   511  2.001424872E+02 -1.815239462E+02  3.162896981E+02  4.159893404E+02  0.000000000E+00  0.00000E+00  9.000E+00
#rwgt            1           1   2.6411423317933384E-002           2      263398           0
</event>
<event>
      5   9999  3.19816E-02  7.27355E+01 -1.00000E+00  1.30383E-01
      -2    -1     0     0     0   501  0.000000000E+00  0.000000000E+00  6.778840206E+02  6.778840206E+02  0.000000000E+00  0.00000E+00  9.000E+00
      21    -1     0     0   501   502  0.000000000E+00  0.000000000E+00 -5.512609087E+02  5.512609087E+02  0.000000000E+00  0.00000E+00  9.000E+00
      25     1     1     2     0     0  3.362234556E+02  2.852039192E+02  2.915662571E+02  5.431605379E+02  1.250000000E+02  0.00000E+00  9.000E+00
      25     1     1     2     0     0 -2.658450219E+02 -3.035705231E+02 -3.098212606E+02  5.238729347E+02  1.250000000E+02  0.00000E+00  9.000E+00
      -2     1     1     2     0   502 -7.037843369E+01  1.836660390E+01  1.448781154E+02  1.621114567E+02  2.697398305E-06  0.00000E+00  9.000E+00
#rwgt            1           1   3.0916282214068353E-002           2      263443           0
</event>
<event>
      5   9999  3.19816E-02  1.18001E+02 -1.00000E+00  1.20679E-01
      21    -1     0     0   502   501  0.000000000E+00  0.000000000E+00  3.982196823E+03  3.982196823E+03  0.000000000E+00  0.00000E+00  9.000E+00
      21    -1     0     0   511   502  0.000000000E+00  0.000000000E+00 -9.958609363E+02  9.958609363E+02  0.000000000E+00  0.00000E+00  9.000E+00
      25     1     1     2     0     0  1.946395286E+02  1.910824526E+01  1.668912719E+03  1.684976064E+03  1.250000000E+02  0.00000E+00  9.000E+00
      25     1     1     2     0     0 -1.041500525E+02  5.662789340E+01  2.298493361E+03  2.304940494E+03  1.250000000E+02  0.00000E+00  9.000E+00
      21     1     1     2   511   501 -9.048947605E+01 -7.573613866E+01 -9.810701937E+02  9.881412009E+02  1.868812365E-05  0.00000E+00  9.000E+00
#rwgt            1           1   5.8431783795695200E-003           2      263533           0
</event>
<event>
      5   9999  3.19816E-02  7.68091E+01 -1.00000E+00  1.29211E-01
      21    -1     0     0   502   501  0.000000000E+00  0.000000000E+00  1.278745523E+02  1.278745523E+02  0.000000000E+00  0.00000E+00  9.000E+00
      21    -1     0     0   512   502  0.000000000E+00  0.000000000E+00 -1.908217874E+03  1.908217874E+03  0.000000000E+00  0.00000E+00  9.000E+00
      25     1     1     2     0     0 -1.782701224E+02  1.346363403E+02 -4.392476296E+01  2.597336433E+02  1.250000000E+02  0.00000E+00  9.000E+00
      25     1     1     2     0     0  1.923960177E+02 -5.913733500E+01 -7.404905331E+02  7.774732675E+02  1.250000000E+02  0.00000E+00  9.000E+00
      21     1     1     2   512   501 -1.412589537E+01 -7.549900526E+01 -9.959280255E+02  9.988855153E+02  0.000000000E+00  0.00000E+00  9.000E+00
#rwgt            1           1   2.9123832442555047E-002           2      263613           0
</event>
<event>
      5   9999  3.19816E-02  1.49945E+02 -1.00000E+00  1.16400E-01
      21    -1     0     0   502   501  0.000000000E+00  0.000000000E+00  8.365440336E+02  8.365440336E+02  0.000000000E+00  0.00000E+00  9.000E+00
      21    -1     0     0   501   511  0.000000000E+00  0.000000000E+00 -1.031852412E+03  1.031852412E+03  0.000000000E+00  0.00000E+00  9.000E+00
      25     1     1     2     0     0  1.475589403E+02 -3.118908720E+01  7.321444012E+02  7.578963150E+02  1.250000000E+02  0.00000E+00  9.000E+00
      25     1     1     2     0     0 -2.838713936E+02 -3.128003856E+01 -2.060720610E+02  3.737005529E+02  1.250000000E+02  0.00000E+00  9.000E+00
      21     1     1     2   502   511  1.363124533E+02  6.246912576E+01 -7.213807185E+02  7.367995776E+02  1.525878906E-05  0.00000E+00  9.000E+00
#rwgt            1           1   2.8139283770413741E-002           2      263675           0
</event>
<event>
      5   9999  3.19816E-02  1.70460E+02 -1.00000E+00  1.14234E-01
      21    -1     0     0   502   501  0.000000000E+00  0.000000000E+00  8.943536917E+02  8.943536917E+02  0.000000000E+00  0.00000E+00  9.000E+00
       1    -1     0     0   501     0  0.000000000E+00  0.000000000E+00 -7.008910384E+02  7.008910384E+02  0.000000000E+00  0.00000E+00  9.000E+00
      25     1     1     2     0     0  8.615414724E+01 -3.761168516E+02  7.589098122E+02  8.604972552E+02  1.250000000E+02  0.00000E+00  9.000E+00
      25     1     1     2     0     0 -7.469375304E+00  2.249037543E+02 -1.824097557E+02  3.154929622E+02  1.250000000E+02  0.00000E+00  9.000E+00
       1     1     1     2   502     0 -7.868477194E+01  1.512130973E+02 -3.830374032E+02  4.192545127E+02  0.000000000E+00  0.00000E+00  9.000E+00
#rwgt            2          12   4.4625012853483537E-004           2      263732           0
</event>
<event>
      5   9999  3.19816E-02  7.39304E+01 -1.00000E+00  1.30030E-01
      21    -1     0     0   502   501  0.000000000E+00  0.000000000E+00  6.575530244E+02  6.575530244E+02  0.000000000E+00  0.00000E+00  9.000E+00
      21    -1     0     0   501   511  0.000000000E+00  0.000000000E+00 -8.339122541E+02  8.339122541E+02  0.000000000E+00  0.00000E+00  9.000E+00
      25     1     1     2     0     0  1.967042743E+02 -6.115221739E+02 -1.506552212E+02  6.715459302E+02  1.250000000E+02  0.00000E+00  9.000E+00
      25     1     1     2     0     0 -2.659852445E+02  6.373261844E+02  6.276590708E+01  7.046256983E+02  1.250000000E+02  0.00000E+00  9.000E+00
      21     1     1     2   502   511  6.928097016E+01 -2.580401050E+01 -8.846991552E+01  1.152936500E+02  1.348699152E-06  0.00000E+00  9.000E+00
#rwgt            1           1   2.3300069181551402E-002           2      263751           0
</event>
<event>
      5   9999  3.19816E-02  3.72098E+01 -1.00000E+00  1.46815E-01
      21    -1     0     0   502   501  0.000000000E+00  0.000000000E+00  4.012486941E+02  4.012486941E+02  0.000000000E+00  0.00000E+00  9.000E+00
      21    -1     0     0   501   512  0.000000000E+00  0.000000000E+00 -3.466100868E+03  3.466100868E+03  0.000000000E+00  0.00000E+00  9.000E+00
      25     1     1     2     0     0 -2.760051718E+02  1.442918381E+02  1.288028447E+02  3.594637147E+02  1.250000000E+02  0.00000E+00  9.000E+00
      25     1     1     2     0     0  2.487692601E+02 -1.189389029E+02  1.106269036E+01  3.029521258E+02  1.250000000E+02  0.00000E+00  9.000E+00
      21     1     1     2   502   512  2.723591166E+01 -2.535293513E+01 -3.204717709E+03  3.204933721E+03  6.103515625E-05  0.00000E+00  9.000E+00
#rwgt            1           1   2.7222451873479405E-002           2      263871           0
</event>
<event>
      5   9999  3.19816E-02  7.24955E+01 -1.00000E+00  1.30455E-01
      21    -1     0     0   502   501  0.000000000E+00  0.000000000E+00  4.684370197E+02  4.684370197E+02  0.000000000E+00  0.00000E+00  9.000E+00
      21    -1     0     0   501   511  0.000000000E+00  0.000000000E+00 -2.568972060E+02  2.568972060E+02  0.000000000E+00  0.00000E+00  9.000E+00
      25     1     1     2     0     0 -1.194781981E+02 -1.552524772E+01  3.344437421E+02  3.768205007E+02  1.250000000E+02  0.00000E+00  9.000E+00
      25     1     1     2     0     0  5.672917753E+01  5.183169042E+01  5.477001148E+01  1.566188937E+02  1.250000000E+02  0.00000E+00  9.000E+00
      21     1     1     2   502   511  6.274902062E+01 -3.630644269E+01 -1.776739398E+02  1.918948312E+02  1.907348633E-06  0.00000E+00  9.000E+00
#rwgt            1           1   3.1793269798812564E-002           2      264007           0
</event>
<event>
      5   9999  3.19816E-02  5.30237E+01 -1.00000E+00  1.37636E-01
      21    -1     0     0   502   501  0.000000000E+00  0.000000000E+00  1.453094958E+02  1.453094958E+02  0.000000000E+00  0.00000E+00  9.000E+00
       2    -1     0     0   501     0  0.000000000E+00  0.000000000E+00 -2.940934181E+03  2.940934181E+03  0.000000000E+00  0.00000E+00  9.000E+00
      25     1     1     2     0     0  2.249523712E+02 -2.031011943E+02 -1.567887703E+02  3.634025081E+02  1.250000000E+02  0.00000E+00  9.000E+00
      25     1     1     2     0     0 -1.848430512E+02  2.377820119E+02 -5.964593973E+02  6.797764716E+02  1.250000000E+02  0.00000E+00  9.000E+00
       2     1     1     2   502     0 -4.010931996E+01 -3.468081760E+01 -2.042376518E+03  2.043064697E+03  0.000000000E+00  0.00000E+00  9.000E+00
#rwgt            1           1   2.6516253144561793E-002           2      264063           0
</event>
<event>
      5   9999  3.19816E-02  9.08717E+01 -1.00000E+00  1.25727E-01
      21    -1     0     0   502   501  0.000000000E+00  0.000000000E+00  5.090992981E+02  5.090992981E+02  0.000000000E+00  0.00000E+00  9.000E+00
      21    -1     0     0   501   511  0.000000000E+00  0.000000000E+00 -5.588595611E+02  5.588595611E+02  0.000000000E+00  0.00000E+00  9.000E+00
      25     1     1     2     0     0 -3.392237249E+02 -2.911529213E+02  2.196767890E+02  5.135422580E+02  1.250000000E+02  0.00000E+00  9.000E+00
      25     1     1     2     0     0  2.508164828E+02  2.701334589E+02 -2.463932275E+02  4.606686621E+02  1.250000000E+02  0.00000E+00  9.000E+00
      21     1     1     2   502   511  8.840724209E+01  2.101946236E+01 -2.304382443E+01  9.374793916E+01  4.768371582E-07  0.00000E+00  9.000E+00
#rwgt            1           1   2.9210426984980820E-002           2      264155           0
</event>
<event>
      5   9999  3.19816E-02  5.74701E+01 -1.00000E+00  1.35711E-01
      21    -1     0     0   512   501  0.000000000E+00  0.000000000E+00  6.323773795E+02  6.323773795E+02  0.000000000E+00  0.00000E+00  9.000E+00
      21    -1     0     0   501   502  0.000000000E+00  0.000000000E+00 -2.879587536E+02  2.879587536E+02  0.000000000E+00  0.00000E+00  9.000E+00
      25     1     1     2     0     0 -1.266803106E+02 -8.308422788E+01  4.477785541E+02  4.889596339E+02  1.250000000E+02  0.00000E+00  9.000E+00
      25     1     1     2     0     0  7.052012915E+01  7.088406213E+01 -2.369489676E+02  2.859500867E+02  1.250000000E+02  0.00000E+00  9.000E+00
      21     1     1     2   512   502  5.616018147E+01  1.220016575E+01  1.335890394E+02  1.454264125E+02  0.000000000E+00  0.00000E+00  9.000E+00
#rwgt            1           1   2.7077158491675399E-002           2      264229           0
</event>
<event>
      5   9999  3.19816E-02  9.27171E+01 -1.00000E+00  1.25323E-01
       2    -1     0     0   502     0  0.000000000E+00  0.000000000E+00  8.585534517E+02  8.585534517E+02  0.000000000E+00  0.00000E+00  9.000E+00
      21    -1     0     0   501   502  0.000000000E+00  0.000000000E+00 -8.313249382E+02  8.313249382E+02  0.000000000E+00  0.00000E+00  9.000E+00
      25     1     1     2     0     0 -2.664452241E+01  2.578552127E+02 -7.223227275E+02  7.775438019E+02  1.250000000E+02  0.00000E+00  9.000E+00
      25     1     1     2     0     0 -6.211710361E+01 -2.310629253E+02  1.564087014E+02  3.119892496E+02  1.250000000E+02  0.00000E+00  9.000E+00
       2     1     1     2   501     0  8.876162603E+01 -2.679228738E+01  5.931425397E+02  6.003453384E+02  1.078959322E-05  0.00000E+00  9.000E+00
#rwgt            1           1   2.8414028339926140E-002           2      264372           0
</event>
<event>
      5   9999  3.19816E-02  4.40740E+01 -1.00000E+00  1.42275E-01
      21    -1     0     0   502   501  0.000000000E+00  0.000000000E+00  2.251607766E+02  2.251607766E+02  0.000000000E+00  0.00000E+00  9.000E+00
      21    -1     0     0   501   511  0.000000000E+00  0.000000000E+00 -1.022752703E+03  1.022752703E+03  0.000000000E+00  0.00000E+00  9.000E+00
      25     1     1     2     0     0 -1.927336642E+02 -1.030572261E+02  1.258753153E+02  2.814900570E+02  1.250000000E+02  0.00000E+00  9.000E+00
      25     1     1     2     0     0  1.952449782E+02  5.905481235E+01 -7.387490708E+02  7.765199688E+02  1.250000000E+02  0.00000E+00  9.000E+00
      21     1     1     2   502   511 -2.511314073E+00  4.400241374E+01 -1.847181707E+02  1.899034536E+02  0.000000000E+00  0.00000E+00  9.000E+00
#rwgt            1           1   2.9517341968743224E-002           2      264478           0
</event>
<event>
      5   9999  3.19816E-02  2.31366E+01 -1.00000E+00  1.61313E-01
      21    -1     0     0   502   501  0.000000000E+00  0.000000000E+00  3.423211484E+02  3.423211484E+02  0.000000000E+00  0.00000E+00  9.000E+00
      21    -1     0     0   512   502  0.000000000E+00  0.000000000E+00 -4.188147434E+02  4.188147434E+02  0.000000000E+00  0.00000E+00  9.000E+00
      25     1     1     2     0     0  2.280651965E+02 -1.257985744E+01 -2.836515899E+02  3.850392333E+02  1.250000000E+02  0.00000E+00  9.000E+00
      25     1     1     2     0     0 -2.462168572E+02 -1.766594909E+00  2.167571599E+02  3.510477574E+02  1.250000000E+02  0.00000E+00  9.000E+00
      21     1     1     2   512   501  1.815166062E+01  1.434645235E+01 -9.599164960E+00  2.504890109E+01  5.057621821E-07  0.00000E+00  9.000E+00
#rwgt            1           1   2.8355376708555168E-002           2      264641           0
</event>
<event>
      5   9999  3.19816E-02  2.00841E+02 -1.00000E+00  1.11582E-01
      21    -1     0     0   502   501  0.000000000E+00  0.000000000E+00  3.650511893E+02  3.650511893E+02  0.000000000E+00  0.00000E+00  9.000E+00
      21    -1     0     0   511   502  0.000000000E+00  0.000000000E+00 -2.866447103E+03  2.866447103E+03  0.000000000E+00  0.00000E+00  9.000E+00
      25     1     1     2     0     0  2.808451352E+02 -3.805775829E+02 -3.201201908E+02  5.846496585E+02  1.250000000E+02  0.00000E+00  9.000E+00
      25     1     1     2     0     0 -4.487644218E+02  4.907606041E+02 -2.756134666E+02  7.306320960E+02  1.250000000E+02  0.00000E+00  9.000E+00
      21     1     1     2   511   501  1.679192866E+02 -1.101830212E+02 -1.905662256E+03  1.916216538E+03  0.000000000E+00  0.00000E+00  9.000E+00
#rwgt            1           1   2.8082017530844914E-002           2      264797           0
</event>
<event>
      5   9999  3.19816E-02  2.21844E+02 -1.00000E+00  1.10033E-01
      21    -1     0     0   502   501  0.000000000E+00  0.000000000E+00  2.584919756E+02  2.584919756E+02  0.000000000E+00  0.00000E+00  9.000E+00
       2    -1     0     0   501     0  0.000000000E+00  0.000000000E+00 -2.172563646E+03  2.172563646E+03  0.000000000E+00  0.00000E+00  9.000E+00
      25     1     1     2     0     0 -3.853769287E+02 -3.705610936E+02 -5.199600930E+02  7.561841043E+02  1.250000000E+02  0.00000E+00  9.000E+00
      25     1     1     2     0     0  3.299465386E+02  5.853680966E+02 -8.746813714E+02  1.110050912E+03  1.250000000E+02  0.00000E+00  9.000E+00
       2     1     1     2   502     0  5.543039010E+01 -2.148070030E+02 -5.194302058E+02  5.648206046E+02  7.629394531E-06  0.00000E+00  9.000E+00
#rwgt            1           1   3.0528755350986234E-002           2      264887           0
</event>
<event>
      5   9999  3.19816E-02  8.60278E+00 -1.00000E+00  2.03629E-01
      21    -1     0     0   502   501  0.000000000E+00  0.000000000E+00  1.824804094E+03  1.824804094E+03  0.000000000E+00  0.00000E+00  9.000E+00
      21    -1     0     0   501   511  0.000000000E+00  0.000000000E+00 -1.318226760E+02  1.318226760E+02  0.000000000E+00  0.00000E+00  9.000E+00
      25     1     1     2     0     0  1.174670242E+02 -1.678929454E+02  1.676595242E+03  1.693689212E+03  1.250000000E+02  0.00000E+00  9.000E+00
      25     1     1     2     0     0 -1.134099767E+02  1.754790031E+02  3.154351082E+01  2.455090557E+02  1.250000000E+02  0.00000E+00  9.000E+00
      21     1     1     2   502   511 -4.057047475E+00 -7.586057673E+00 -1.515733438E+01  1.742850225E+01  3.769728732E-07  0.00000E+00  9.000E+00
#rwgt            1           1   2.7514550992503682E-002           2      264960           0
</event>
<event>
      5   9999  3.19816E-02  9.00968E+01 -1.00000E+00  1.25900E-01
      21    -1     0     0   502   501  0.000000000E+00  0.000000000E+00  1.106192751E+03  1.106192751E+03  0.000000000E+00  0.00000E+00  9.000E+00
      21    -1     0     0   501   512  0.000000000E+00  0.000000000E+00 -1.404823678E+02  1.404823678E+02  0.000000000E+00  0.00000E+00  9.000E+00
      25     1     1     2     0     0  2.575627599E+01 -3.287372297E+01  9.716937485E+02  9.805905406E+02  1.250000000E+02  0.00000E+00  9.000E+00
      25     1     1     2     0     0 -1.150508999E+02  4.486999983E+01 -8.928628363E+00  1.759396114E+02  1.250000000E+02  0.00000E+00  9.000E+00
      21     1     1     2   502   512  8.929462396E+01 -1.199627686E+01  2.945263433E+00  9.014496715E+01  1.271410525E-06  0.00000E+00  9.000E+00
#rwgt            1           1   2.8009583245151286E-002           2      265151           0
</event>
<event>
      5   9999  3.19816E-02  2.96629E+01 -1.00000E+00  1.53382E-01
      21    -1     0     0   502   501  0.000000000E+00  0.000000000E+00  4.749775269E+02  4.749775269E+02  0.000000000E+00  0.00000E+00  9.000E+00
      21    -1     0     0   501   511  0.000000000E+00  0.000000000E+00 -5.067309674E+02  5.067309674E+02  0.000000000E+00  0.00000E+00  9.000E+00
      25     1     1     2     0     0 -2.547047369E+02  9.491795116E+01  3.657893853E+02  4.725577159E+02  1.250000000E+02  0.00000E+00  9.000E+00
      25     1     1     2     0     0  2.515264094E+02 -6.542586157E+01 -3.631303074E+02  4.637183392E+02  1.250000000E+02  0.00000E+00  9.000E+00
      21     1     1     2   502   511  3.178327555E+00 -2.949208959E+01 -3.441251835E+01  4.543243922E+01  6.743495762E-07  0.00000E+00  9.000E+00
#rwgt            1           1   2.8744291824319774E-002           2      265212           0
</event>
<event>
      5   9999  3.19816E-02  4.86817E+01 -1.00000E+00  1.39741E-01
      21    -1     0     0   512   501  0.000000000E+00  0.000000000E+00  7.629061670E+01  7.629061670E+01  0.000000000E+00  0.00000E+00  9.000E+00
      21    -1     0     0   501   502  0.000000000E+00  0.000000000E+00 -7.165776475E+02  7.165776475E+02  0.000000000E+00  0.00000E+00  9.000E+00
      25     1     1     2     0     0  1.302262965E+02 -9.966224175E+01 -2.381311633E+02  3.149966693E+02  1.250000000E+02  0.00000E+00  9.000E+00
      25     1     1     2     0     0 -9.563868953E+01  1.339201030E+02 -3.505344883E+02  4.069161836E+02  1.250000000E+02  0.00000E+00  9.000E+00
      21     1     1     2   512   502 -3.458760694E+01 -3.425786130E+01 -5.162137921E+01  7.095541140E+01  0.000000000E+00  0.00000E+00  9.000E+00
#rwgt            1           1   2.6169985590637206E-002           2      265359           0
</event>
<event>
      5   9999  3.19816E-02  5.22180E+00 -1.00000E+00  2.35269E-01
      21    -1     0     0   502   501  0.000000000E+00  0.000000000E+00  6.610161167E+01  6.610161167E+01  0.000000000E+00  0.00000E+00  9.000E+00
      21    -1     0     0   511   502  0.000000000E+00  0.000000000E+00 -9.368147718E+02  9.368147718E+02  0.000000000E+00  0.00000E+00  9.000E+00
      25     1     1     2     0     0 -1.567735065E+02 -8.682116091E+01 -2.014521439E+02  2.971932244E+02  1.250000000E+02  0.00000E+00  9.000E+00
      25     1     1     2     0     0  1.522277211E+02  8.425152418E+01 -6.156816675E+02  6.518899555E+02  1.250000000E+02  0.00000E+00  9.000E+00
      21     1     1     2   511   501  4.545785451E+00  2.569636731E+00 -5.357934869E+01  5.383320355E+01  0.000000000E+00  0.00000E+00  9.000E+00
#rwgt            1           1   3.0056269467186755E-002           2      265477           0
</event>
<event>
      5   9999  3.19816E-02  2.21662E+01 -1.00000E+00  1.62766E-01
       1    -1     0     0   502     0  0.000000000E+00  0.000000000E+00  2.992162732E+02  2.992162732E+02  0.000000000E+00  0.00000E+00  9.000E+00
      21    -1     0     0   501   502  0.000000000E+00  0.000000000E+00 -6.654894302E+02  6.654894302E+02  0.000000000E+00  0.00000E+00  9.000E+00
      25     1     1     2     0     0 -5.984911612E+01  2.195135790E+02 -1.016865039E+01  2.598009421E+02  1.250000000E+02  0.00000E+00  9.000E+00
      25     1     1     2     0     0  7.223273462E+01 -2.011291367E+02 -5.007287038E+02  5.585917403E+02  1.250000000E+02  0.00000E+00  9.000E+00
       1     1     1     2   501     0 -1.238361850E+01 -1.838444225E+01  1.446241971E+02  1.463130210E+02  1.907348633E-06  0.00000E+00  9.000E+00
#rwgt            1           1   2.4930762395973222E-002           2      265706           0
</event>
<event>
      5   9999  3.19816E-02  3.16089E+02 -1.00000E+00  1.04860E-01
      21    -1     0     0   511   501  0.000000000E+00  0.000000000E+00  1.118564859E+03  1.118564859E+03  0.000000000E+00  0.00000E+00  9.000E+00
      21    -1     0     0   501   502  0.000000000E+00  0.000000000E+00 -2.415651906E+02  2.415651906E+02  0.000000000E+00  0.00000E+00  9.000E+00
      25     1     1     2     0     0 -1.886876012E+02 -1.803511616E+01 -6.569360876E+01  2.363660858E+02  1.250000000E+02  0.00000E+00  9.000E+00
      25     1     1     2     0     0 -5.644875447E+01  2.175850086E+02  2.337783728E+02  3.475730505E+02  1.250000000E+02  0.00000E+00  9.000E+00
      21     1     1     2   511   502  2.451363557E+02 -1.995498925E+02  7.089149044E+02  7.761909134E+02  1.078959322E-05  0.00000E+00  9.000E+00
#rwgt            2          11   2.3831872111353247E-003           2      265867           0
</event>
<event>
      5   9999  3.19816E-02  1.76106E+01 -1.00000E+00  1.71061E-01
      21    -1     0     0   502   501  0.000000000E+00  0.000000000E+00  1.669432320E+03  1.669432320E+03  0.000000000E+00  0.00000E+00  9.000E+00
      21    -1     0     0   512   502  0.000000000E+00  0.000000000E+00 -5.283881064E+02  5.283881064E+02  0.000000000E+00  0.00000E+00  9.000E+00
      25     1     1     2     0     0 -1.571868620E+02 -4.621364861E+02  1.491687658E+03  1.574495129E+03  1.250000000E+02  0.00000E+00  9.000E+00
      25     1     1     2     0     0  1.396949098E+02  4.600960679E+02 -3.312111905E+02  5.971004206E+02  1.250000000E+02  0.00000E+00  9.000E+00
      21     1     1     2   512   501  1.749195218E+01  2.040418159E+00 -1.943225374E+01  2.622487717E+01  5.331201500E-07  0.00000E+00  9.000E+00
#rwgt            1           1   3.0922799029054523E-002           2      265887           0
</event>
<event>
      5   9999  3.19816E-02  7.24762E+01 -1.00000E+00  1.30461E-01
      21    -1     0     0   502   501  0.000000000E+00  0.000000000E+00  1.206068577E+02  1.206068577E+02  0.000000000E+00  0.00000E+00  9.000E+00
      21    -1     0     0   511   502  0.000000000E+00  0.000000000E+00 -4.194442597E+02  4.194442597E+02  0.000000000E+00  0.00000E+00  9.000E+00
      25     1     1     2     0     0 -6.820309657E+01  6.090007726E+01 -9.898404163E+01  1.838024001E+02  1.250000000E+02  0.00000E+00  9.000E+00
      25     1     1     2     0     0  8.118595511E+01 -1.322039573E+02 -7.697068561E+01  2.135849528E+02  1.250000000E+02  0.00000E+00  9.000E+00
      21     1     1     2   511   501 -1.298285853E+01  7.130388005E+01 -1.228826748E+02  1.426637644E+02  1.348699152E-06  0.00000E+00  9.000E+00
#rwgt            1           1   3.2303819431889903E-002           2      266176           0
</event>
<event>
      5   9999  3.19816E-02  3.70128E+01 -1.00000E+00  1.46962E-01
      21    -1     0     0   512   501  0.000000000E+00  0.000000000E+00  7.180379860E+02  7.180379860E+02  0.000000000E+00  0.00000E+00  9.000E+00
      21    -1     0     0   501   502  0.000000000E+00  0.000000000E+00 -4.906688345E+02  4.906688345E+02  0.000000000E+00  0.00000E+00  9.000E+00
      25     1     1     2     0     0 -4.906138091E+01 -3.604057868E+02 -3.124020294E+02  4.954991203E+02  1.250000000E+02  0.00000E+00  9.000E+00
      25     1     1     2     0     0  5.735579219E+01  3.964772832E+02  4.459837205E+02  6.123809288E+02  1.250000000E+02  0.00000E+00  9.000E+00
      21     1     1     2   512   502 -8.294411283E+00 -3.607149641E+01  9.378746031E+01  1.008267714E+02  0.000000000E+00  0.00000E+00  9.000E+00
#rwgt            1           1   3.1097583999252481E-002           2      266243           0
</event>
<event>
      5   9999  3.19816E-02  1.44574E+02 -1.00000E+00  1.17031E-01
      21    -1     0     0   502   501  0.000000000E+00  0.000000000E+00  8.406599245E+02  8.406599245E+02  0.000000000E+00  0.00000E+00  9.000E+00
      21    -1     0     0   501   511  0.000000000E+00  0.000000000E+00 -2.328652782E+03  2.328652782E+03  0.000000000E+00  0.00000E+00  9.000E+00
      25     1     1     2     0     0  9.624595388E+02 -7.811897479E+02 -8.354303021E+02  1.500051524E+03  1.250000000E+02  0.00000E+00  9.000E+00
      25     1     1     2     0     0 -8.324181302E+02  7.180165412E+02 -1.147112063E+02  1.112318011E+03  1.250000000E+02  0.00000E+00  9.000E+00
      21     1     1     2   502   511 -1.300414086E+02  6.317320676E+01 -5.378513490E+02  5.569431709E+02  0.000000000E+00  0.00000E+00  9.000E+00
#rwgt            1           1   6.1689148930464364E-002           2      266389           0
</event>
<event>
      5   9999  3.19816E-02  7.33588E+01 -1.00000E+00  1.30198E-01
      21    -1     0     0   502   501  0.000000000E+00  0.000000000E+00  1.240509603E+03  1.240509603E+03  0.000000000E+00  0.00000E+00  9.000E+00
      21    -1     0     0   512   502  0.000000000E+00  0.000000000E+00 -1.457492703E+03  1.457492703E+03  0.000000000E+00  0.00000E+00  9.000E+00
      25     1     1     2     0     0 -4.318891265E+02  1.495829809E+02  1.130642397E+03  1.225920273E+03  1.250000000E+02  0.00000E+00  9.000E+00
      25     1     1     2     0     0  3.651895450E+02 -1.190430690E+02 -6.149718910E+02  7.357649644E+02  1.250000000E+02  0.00000E+00  9.000E+00
      21     1     1     2   512   501  6.669958146E+01 -3.053991184E+01 -7.326536060E+02  7.363170694E+02  1.078959322E-05  0.00000E+00  9.000E+00
#rwgt            1           1   2.0876416776730869E-002           2      266467           0
</event>
<event>
      5   9999  3.19816E-02  1.13000E+01 -1.00000E+00  1.89815E-01
      21    -1     0     0   502   501  0.000000000E+00  0.000000000E+00  7.750617136E+02  7.750617136E+02  0.000000000E+00  0.00000E+00  9.000E+00
      21    -1     0     0   501   511  0.000000000E+00  0.000000000E+00 -1.961856598E+02  1.961856598E+02  0.000000000E+00  0.00000E+00  9.000E+00
      25     1     1     2     0     0 -2.338886234E+02 -1.565262639E+02  3.013754716E+01  3.094149822E+02  1.250000000E+02  0.00000E+00  9.000E+00
      25     1     1     2     0     0  2.324055031E+02  1.677285202E+02  5.627791212E+02  6.438093768E+02  1.250000000E+02  0.00000E+00  9.000E+00
      21     1     1     2   502   511  1.483120270E+00 -1.120225628E+01 -1.404061456E+01  1.802301442E+01  4.129530925E-07  0.00000E+00  9.000E+00
#rwgt            1           1   2.8638554716394711E-002           2      266597           0
</event>
<event>
      5   9999  3.19816E-02  3.19197E+02 -1.00000E+00  1.04724E-01
      21    -1     0     0   502   501  0.000000000E+00  0.000000000E+00  8.438620344E+02  8.438620344E+02  0.000000000E+00  0.00000E+00  9.000E+00
      21    -1     0     0   501   512  0.000000000E+00  0.000000000E+00 -4.762428416E+02  4.762428416E+02  0.000000000E+00  0.00000E+00  9.000E+00
      25     1     1     2     0     0 -1.376325923E+02 -1.627678319E+02  1.725274262E+02  3.013748668E+02  1.250000000E+02  0.00000E+00  9.000E+00
      25     1     1     2     0     0  3.640896448E+01 -1.399543715E+02  5.255819090E+02  5.592621763E+02  1.250000000E+02  0.00000E+00  9.000E+00
      21     1     1     2   502   512  1.012236278E+02  3.027222034E+02 -3.304901424E+02  4.594678329E+02  5.394796609E-06  0.00000E+00  9.000E+00
#rwgt            2          11   1.1230001562552239E-002           2      266841           0
</event>
<event>
      5   9999  3.19816E-02  1.04755E+01 -1.00000E+00  1.93453E-01
      21    -1     0     0   502   511  0.000000000E+00  0.000000000E+00  4.875741435E+02  4.875741435E+02  0.000000000E+00  0.00000E+00  9.000E+00
      21    -1     0     0   501   502  0.000000000E+00  0.000000000E+00 -4.072601985E+02  4.072601985E+02  0.000000000E+00  0.00000E+00  9.000E+00
      25     1     1     2     0     0  2.666932179E+02 -2.746510359E+02  2.059640018E+02  4.523324375E+02  1.250000000E+02  0.00000E+00  9.000E+00
      25     1     1     2     0     0 -2.711598608E+02  2.841265878E+02 -1.283431782E+02  4.316857183E+02  1.250000000E+02  0.00000E+00  9.000E+00
      21     1     1     2   501   511  4.466642957E+00 -9.475551880E+00  2.693121294E+00  1.081618625E+01  1.228781231E-07  0.00000E+00  9.000E+00
#rwgt            1           1   3.2497551879270697E-002           2      266891           0
</event>
<event>
      5   9999  3.19816E-02  1.15015E+01 -1.00000E+00  1.88987E-01
      21    -1     0     0   502   501  0.000000000E+00  0.000000000E+00  2.874554580E+02  2.874554580E+02  0.000000000E+00  0.00000E+00  9.000E+00
      21    -1     0     0   501   512  0.000000000E+00  0.000000000E+00 -4.042263311E+02  4.042263311E+02  0.000000000E+00  0.00000E+00  9.000E+00
      25     1     1     2     0     0  2.157576120E+01  3.070014886E+02 -1.593543789E+01  3.325573119E+02  1.250000000E+02  0.00000E+00  9.000E+00
      25     1     1     2     0     0 -3.274966812E+01 -3.042760654E+02 -8.841539873E+01  3.421969425E+02  1.250000000E+02  0.00000E+00  9.000E+00
      21     1     1     2   502   512  1.117390692E+01 -2.725423293E+00 -1.242003644E+01  1.692753476E+01  3.371747881E-07  0.00000E+00  9.000E+00
#rwgt            1           1   3.0332673836136755E-002           2      267194           0
</event>
<event>
      5   9999  3.19816E-02  7.00595E+01 -1.00000E+00  1.31202E-01
      21    -1     0     0   502   501  0.000000000E+00  0.000000000E+00  4.037032038E+02  4.037032038E+02  0.000000000E+00  0.00000E+00  9.000E+00
      21    -1     0     0   511   502  0.000000000E+00  0.000000000E+00 -6.934853955E+02  6.934853955E+02  0.000000000E+00  0.00000E+00  9.000E+00
      25     1     1     2     0     0  2.758499573E+02 -2.129066966E+02  1.245948686E+02  3.906038167E+02  1.250000000E+02  0.00000E+00  9.000E+00
      25     1     1     2     0     0 -3.285679940E+02  2.590493152E+02 -1.986001790E+02  4.797191944E+02  1.250000000E+02  0.00000E+00  9.000E+00
      21     1     1     2   511   501  5.271803672E+01 -4.614261865E+01 -2.157768812E+02  2.268655882E+02  0.000000000E+00  0.00000E+00  9.000E+00
#rwgt            1           1   2.9034464345834253E-002           2      267419           0
</event>
<event>
      5   9999  3.19816E-02  2.76142E+01 -1.00000E+00  1.55582E-01
      21    -1     0     0   502   501  0.000000000E+00  0.000000000E+00  3.077593609E+02  3.077593609E+02  0.000000000E+00  0.00000E+00  9.000E+00
      21    -1     0     0   501   512  0.000000000E+00  0.000000000E+00 -3.374777628E+02  3.374777628E+02  0.000000000E+00  0.00000E+00  9.000E+00
      25     1     1     2     0     0  1.976771553E+01  1.785173574E+02 -1.073683486E+02  2.437461215E+02  1.250000000E+02  0.00000E+00  9.000E+00
      25     1     1     2     0     0 -4.368429948E+01 -1.923210691E+02  1.804173628E+02  2.950781870E+02  1.250000000E+02  0.00000E+00  9.000E+00
      21     1     1     2   502   512  2.391658396E+01  1.380371167E+01 -1.027674161E+02  1.064128153E+02  1.907348633E-06  0.00000E+00  9.000E+00
#rwgt            1           1   2.9030029340912308E-002           2      267504           0
</event>
<event>
      5   9999  3.19816E-02  6.03611E+01 -1.00000E+00  1.34564E-01
      21    -1     0     0   502   501  0.000000000E+00  0.000000000E+00  7.120901432E+02  7.120901432E+02  0.000000000E+00  0.00000E+00  9.000E+00
      21    -1     0     0   501   511  0.000000000E+00  0.000000000E+00 -1.672814728E+02  1.672814728E+02  0.000000000E+00  0.00000E+00  9.000E+00
      25     1     1     2     0     0 -7.145135846E+01  1.646612922E+02  5.623408664E+02  6.033828700E+02  1.250000000E+02  0.00000E+00  9.000E+00
      25     1     1     2     0     0  1.148232297E+01 -1.715296173E+02 -2.907640240E+01  2.145336583E+02  1.250000000E+02  0.00000E+00  9.000E+00
      21     1     1     2   502   511  5.996903549E+01  6.868325108E+00  1.154420642E+01  6.145508774E+01  1.410503336E-06  0.00000E+00  9.000E+00
#rwgt            1           1   2.7940420000532356E-002           2      267612           0
</event>
<event>
      5   9999  3.19816E-02  1.59308E+02 -1.00000E+00  1.15367E-01
      21    -1     0     0   512   501  0.000000000E+00  0.000000000E+00  4.744251427E+02  4.744251427E+02  0.000000000E+00  0.00000E+00  9.000E+00
      21    -1     0     0   501   502  0.000000000E+00  0.000000000E+00 -2.279448510E+03  2.279448510E+03  0.000000000E+00  0.00000E+00  9.000E+00
      25     1     1     2     0     0 -4.237402288E+02  3.110466400E+02 -1.802001220E+03  1.881260001E+03  1.250000000E+02  0.00000E+00  9.000E+00
      25     1     1     2     0     0  5.817041073E+02 -2.903995418E+02 -1.227218013E+02  6.733477577E+02  1.250000000E+02  0.00000E+00  9.000E+00
      21     1     1     2   512   502 -1.579638785E+02 -2.064709825E+01  1.196996538E+02  1.992658944E+02  0.000000000E+00  0.00000E+00  9.000E+00
#rwgt            1           1   2.4440511457088629E-002           2      267716           0
</event>
<event>
      5   9999  3.19816E-02  7.30128E+01 -1.00000E+00  1.30300E-01
      21    -1     0     0   502   501  0.000000000E+00  0.000000000E+00  7.129523463E+02  7.129523463E+02  0.000000000E+00  0.00000E+00  9.000E+00
      21    -1     0     0   501   511  0.000000000E+00  0.000000000E+00 -3.221141185E+02  3.221141185E+02  0.000000000E+00  0.00000E+00  9.000E+00
      25     1     1     2     0     0  7.501094954E+01 -3.677188111E+02  1.837662182E+02  4.361637187E+02  1.250000000E+02  0.00000E+00  9.000E+00
      25     1     1     2     0     0 -1.477893348E+02  3.735643103E+02  2.721626932E+02  5.010883285E+02  1.250000000E+02  0.00000E+00  9.000E+00
      21     1     1     2   502   511  7.277838525E+01 -5.845499247E+00 -6.509068346E+01  9.781441762E+01  1.348699152E-06  0.00000E+00  9.000E+00
#rwgt            1           1   2.9186398138776250E-002           2      267820           0
</event>
<event>
      5   9999  3.19816E-02  4.37214E+01 -1.00000E+00  1.42484E-01
      21    -1     0     0   512   501  0.000000000E+00  0.000000000E+00  1.244063581E+03  1.244063581E+03  0.000000000E+00  0.00000E+00  9.000E+00
      21    -1     0     0   501   502  0.000000000E+00  0.000000000E+00 -2.028483189E+02  2.028483189E+02  0.000000000E+00  0.00000E+00  9.000E+00
      25     1     1     2     0     0  2.705841201E+02 -9.439413273E+01  4.705884226E+01  3.161732958E+02  1.250000000E+02  0.00000E+00  9.000E+00
      25     1     1     2     0     0 -2.543971169E+02  5.377959755E+01  2.399001945E+02  3.752162597E+02  1.250000000E+02  0.00000E+00  9.000E+00
      21     1     1     2   512   502 -1.618700315E+01  4.061453518E+01  7.542562257E+02  7.555223448E+02  1.525878906E-05  0.00000E+00  9.000E+00
#rwgt            1           1   2.8816821366965194E-002           2      267886           0
</event>
<event>
      5   9999  3.19816E-02  1.84169E+02 -1.00000E+00  1.12968E-01
      21    -1     0     0   502   501  0.000000000E+00  0.000000000E+00  1.468548681E+02  1.468548681E+02  0.000000000E+00  0.00000E+00  9.000E+00
       2    -1     0     0   501     0  0.000000000E+00  0.000000000E+00 -2.325387705E+03  2.325387705E+03  0.000000000E+00  0.00000E+00  9.000E+00
      25     1     1     2     0     0  3.810002689E+02 -1.624885991E+02 -5.438372996E+02  6.949444281E+02  1.250000000E+02  0.00000E+00  9.000E+00
      25     1     1     2     0     0 -2.729961674E+02  1.331334013E+01 -2.820310272E+02  4.121536762E+02  1.250000000E+02  0.00000E+00  9.000E+00
       2     1     1     2   502     0 -1.080041015E+02  1.491752590E+02 -1.352664510E+03  1.365144469E+03  0.000000000E+00  0.00000E+00  9.000E+00
#rwgt            1           1   2.9490738075304133E-002           2      268032           0
</event>
<event>
      5   9999  3.19816E-02  1.31028E+02 -1.00000E+00  1.18770E-01
      21    -1     0     0   502   501  0.000000000E+00  0.000000000E+00  1.436656821E+03  1.436656821E+03  0.000000000E+00  0.00000E+00  9.000E+00
      21    -1     0     0   511   502  0.000000000E+00  0.000000000E+00 -5.461064671E+02  5.461064671E+02  0.000000000E+00  0.00000E+00  9.000E+00
      25     1     1     2     0     0 -2.991588549E+02 -9.262165760E+01 -2.221058283E+02  4.037707157E+02  1.250000000E+02  0.00000E+00  9.000E+00
      25     1     1     2     0     0  3.154323795E+02  2.226351338E+02  1.293502267E+03  1.355668508E+03  1.250000000E+02  0.00000E+00  9.000E+00
      21     1     1     2   511   501 -1.627352466E+01 -1.300134762E+02 -1.808460844E+02  2.233240647E+02  7.136645101E-06  0.00000E+00  9.000E+00
#rwgt            1           1   3.0044649966499234E-002           2      268071           0
</event>
<event>
      5   9999  3.19816E-02  1.37955E+01 -1.00000E+00  1.80878E-01
      21    -1     0     0   502   501  0.000000000E+00  0.000000000E+00  7.661651256E+01  7.661651256E+01  0.000000000E+00  0.00000E+00  9.000E+00
      21    -1     0     0   512   502  0.000000000E+00  0.000000000E+00 -8.934822478E+02  8.934822478E+02  0.000000000E+00  0.00000E+00  9.000E+00
      25     1     1     2     0     0  1.584019472E+02 -2.129997041E+01 -4.200730032E+02  4.665095858E+02  1.250000000E+02  0.00000E+00  9.000E+00
      25     1     1     2     0     0 -1.537241981E+02  3.427824323E+01 -1.367255145E+02  2.431563147E+02  1.250000000E+02  0.00000E+00  9.000E+00
      21     1     1     2   512   501 -4.677749139E+00 -1.297827282E+01 -2.600672175E+02  2.604328599E+02  5.394796609E-06  0.00000E+00  9.000E+00
#rwgt            1           1   2.5940138382005318E-002           2      268183           0
</event>
<event>
      5   9999  3.19816E-02  1.69627E+01 -1.00000E+00  1.72496E-01
       1    -1     0     0   502     0  0.000000000E+00  0.000000000E+00  4.955845547E+02  4.955845547E+02  0.000000000E+00  0.00000E+00  9.000E+00
      21    -1     0     0   501   502  0.000000000E+00  0.000000000E+00 -1.969765406E+02  1.969765406E+02  0.000000000E+00  0.00000E+00  9.000E+00
      25     1     1     2     0     0 -4.926316250E+00  8.678783773E+01 -9.737609553E+01  1.807304660E+02  1.250000000E+02  0.00000E+00  9.000E+00
      25     1     1     2     0     0  1.658186573E+01 -7.446381070E+01  3.515248156E+01  1.506005124E+02  1.250000000E+02  0.00000E+00  9.000E+00
       1     1     1     2   501     0 -1.165554948E+01 -1.232402703E+01  3.608316281E+02  3.612301168E+02  3.814697266E-06  0.00000E+00  9.000E+00
#rwgt            1           1   2.5736143148465396E-002           2      268372           0
</event>
<event>
      5   9999  3.19816E-02  3.00780E+01 -1.00000E+00  1.52962E-01
      21    -1     0     0   502   501  0.000000000E+00  0.000000000E+00  1.913399972E+02  1.913399972E+02  0.000000000E+00  0.00000E+00  9.000E+00
       2    -1     0     0   501     0  0.000000000E+00  0.000000000E+00 -7.035824562E+02  7.035824562E+02  0.000000000E+00  0.00000E+00  9.000E+00
      25     1     1     2     0     0  1.322484134E+02  2.737783944E+01 -4.429951108E+02  4.796966303E+02  1.250000000E+02  0.00000E+00  9.000E+00
      25     1     1     2     0     0 -1.361549091E+02 -5.720102632E+01  1.173049240E+02  2.262643629E+02  1.250000000E+02  0.00000E+00  9.000E+00
       2     1     1     2   502     0  3.906495763E+00  2.982318688E+01 -1.865522723E+02  1.889614603E+02  0.000000000E+00  0.00000E+00  9.000E+00
#rwgt            1           1   2.7434079539562839E-002           2      268539           0
</event>
<event>
      5   9999  3.19816E-02  2.10557E+02 -1.00000E+00  1.10841E-01
      21    -1     0     0   502   511  0.000000000E+00  0.000000000E+00  4.141645113E+02  4.141645113E+02  0.000000000E+00  0.00000E+00  9.000E+00
      21    -1     0     0   501   502  0.000000000E+00  0.000000000E+00 -3.847069552E+02  3.847069552E+02  0.000000000E+00  0.00000E+00  9.000E+00
      25     1     1     2     0     0  1.375662171E+02  1.017875774E+01 -1.795645580E+02  2.586435804E+02  1.250000000E+02  0.00000E+00  9.000E+00
      25     1     1     2     0     0 -9.484771883E+01 -2.163568023E+02  4.004250932E+01  2.702494370E+02  1.250000000E+02  0.00000E+00  9.000E+00
      21     1     1     2   501   511 -4.271849828E+01  2.061780445E+02  1.689796047E+02  2.699784490E+02  3.303624740E-06  0.00000E+00  9.000E+00
#rwgt            1           1   2.8166237856637726E-002           2      268657           0
</event>
<event>
      5   9999  3.19816E-02  4.23463E+01 -1.00000E+00  1.43321E-01
      21    -1     0     0   502   501  0.000000000E+00  0.000000000E+00  9.846959778E+01  9.846959778E+01  0.000000000E+00  0.00000E+00  9.000E+00
       1    -1     0     0   501     0  0.000000000E+00  0.000000000E+00 -2.062959514E+03  2.062959514E+03  0.000000000E+00  0.00000E+00  9.000E+00
      25     1     1     2     0     0  1.464293288E+02 -2.135890905E+02 -2.405317592E+02  3.748898172E+02  1.250000000E+02  0.00000E+00  9.000E+00
      25     1     1     2     0     0 -1.461459649E+02  1.712437059E+02 -5.051534822E+02  5.669991979E+02  1.250000000E+02  0.00000E+00  9.000E+00
       1     1     1     2   502     0 -2.833638515E-01  4.234538455E+01 -1.218804675E+03  1.219540096E+03  1.525878906E-05  0.00000E+00  9.000E+00
#rwgt            1           1   2.8772426981682430E-002           2      268709           0
</event>
<event>
      5   9999  3.19816E-02  1.48802E+01 -1.00000E+00  1.77712E-01
      21    -1     0     0   511   501  0.000000000E+00  0.000000000E+00  9.041322959E+01  9.041322959E+01  0.000000000E+00  0.00000E+00  9.000E+00
      21    -1     0     0   501   502  0.000000000E+00  0.000000000E+00 -7.177065904E+02  7.177065904E+02  0.000000000E+00  0.00000E+00  9.000E+00
      25     1     1     2     0     0  1.651444241E+02 -4.520123985E+01 -3.876869132E+02  4.418619417E+02  1.250000000E+02  0.00000E+00  9.000E+00
      25     1     1     2     0     0 -1.680085558E+02  3.059929240E+01 -2.635887140E+02  3.380343203E+02  1.250000000E+02  0.00000E+00  9.000E+00
      21     1     1     2   511   502  2.864131732E+00  1.460194744E+01  2.398226645E+01  2.822355796E+01  4.768371582E-07  0.00000E+00  9.000E+00
#rwgt            1           1   3.6406711500604733E-002           2      268807           0
</event>
<event>
      5   9999  3.19816E-02  1.93009E+01 -1.00000E+00  1.67654E-01
       2    -1     0     0   502     0  0.000000000E+00  0.000000000E+00  1.474221322E+03  1.474221322E+03  0.000000000E+00  0.00000E+00  9.000E+00
      21    -1     0     0   501   502  0.000000000E+00  0.000000000E+00 -2.626959442E+02  2.626959442E+02  0.000000000E+00  0.00000E+00  9.000E+00
      25     1     1     2     0     0 -2.420087937E+02  9.699022680E+01 -6.648276375E+01  2.966821838E+02  1.250000000E+02  0.00000E+00  9.000E+00
      25     1     1     2     0     0  2.609399813E+02 -1.007500907E+02  2.085868225E+02  3.706396055E+02  1.250000000E+02  0.00000E+00  9.000E+00
       2     1     1     2   501     0 -1.893118761E+01  3.759863878E+00  1.069421319E+03  1.069595477E+03  2.157918644E-05  0.00000E+00  9.000E+00
#rwgt            1           1   2.5210017243412697E-002           2      268961           0
</event>
<event>
      5   9999  3.19816E-02  1.16908E+02 -1.00000E+00  1.20851E-01
      21    -1     0     0   502   501  0.000000000E+00  0.000000000E+00  8.478374536E+02  8.478374536E+02  0.000000000E+00  0.00000E+00  9.000E+00
      21    -1     0     0   511   502  0.000000000E+00  0.000000000E+00 -2.886459887E+02  2.886459887E+02  0.000000000E+00  0.00000E+00  9.000E+00
      25     1     1     2     0     0  3.757815153E+02  1.507749259E+02  3.077851929E+02  5.237380552E+02  1.250000000E+02  0.00000E+00  9.000E+00
      25     1     1     2     0     0 -3.303330672E+02 -2.584874021E+02  2.280549414E+02  4.935278397E+02  1.250000000E+02  0.00000E+00  9.000E+00
      21     1     1     2   511   501 -4.544844811E+01  1.077124762E+02  2.335133065E+01  1.192175474E+02  7.539457465E-07  0.00000E+00  9.000E+00
#rwgt            1           1   3.0756678293598259E-002           2      269194           0
</event>
<event>
      5   9999  3.19816E-02  5.13272E+02 -1.00000E+00  9.85299E-02
      21    -1     0     0   502   501  0.000000000E+00  0.000000000E+00  2.704032344E+03  2.704032344E+03  0.000000000E+00  0.00000E+00  9.000E+00
       1    -1     0     0   501     0  0.000000000E+00  0.000000000E+00 -7.675317297E+02  7.675317297E+02  0.000000000E+00  0.00000E+00  9.000E+00
      25     1     1     2     0     0  2.051967643E+02  1.141189226E+02 -3.888388514E+02  4.711151589E+02  1.250000000E+02  0.00000E+00  9.000E+00
      25     1     1     2     0     0 -3.513473920E+02  3.779055327E+02  2.420832926E+03  2.478369351E+03  1.250000000E+02  0.00000E+00  9.000E+00
       1     1     1     2   502     0  1.461506277E+02 -4.920244553E+02 -9.549346036E+01  5.220795644E+02  1.395105251E-05  0.00000E+00  9.000E+00
#rwgt            2          12   3.0808786189115412E-004           2      269291           0
</event>
<event>
      5   9999  3.19816E-02  1.16970E+01 -1.00000E+00  1.88203E-01
      21    -1     0     0   502   501  0.000000000E+00  0.000000000E+00  3.737137188E+02  3.737137188E+02  0.000000000E+00  0.00000E+00  9.000E+00
      21    -1     0     0   501   511  0.000000000E+00  0.000000000E+00 -1.320256229E+02  1.320256229E+02  0.000000000E+00  0.00000E+00  9.000E+00
      25     1     1     2     0     0  3.237776942E+00 -5.910389710E+01  2.942943233E+02  3.251736499E+02  1.250000000E+02  0.00000E+00  9.000E+00
      25     1     1     2     0     0 -9.119619219E+00  6.921445775E+01 -1.832275181E+01  1.443417190E+02  1.250000000E+02  0.00000E+00  9.000E+00
      21     1     1     2   502   511  5.881842277E+00 -1.011056065E+01 -3.428347564E+01  3.622397283E+01  4.768371582E-07  0.00000E+00  9.000E+00
#rwgt            1           1   2.5184011149408308E-002           2      269310           0
</event>
<event>
      5   9999  3.19816E-02  5.26416E+02 -1.00000E+00  9.82209E-02
      -1    -1     0     0     0   501  0.000000000E+00  0.000000000E+00  1.483829873E+03  1.483829873E+03  0.000000000E+00  0.00000E+00  9.000E+00
      21    -1     0     0   501   502  0.000000000E+00  0.000000000E+00 -6.904453233E+02  6.904453233E+02  0.000000000E+00  0.00000E+00  9.000E+00
      25     1     1     2     0     0  2.579971531E+02  3.813999858E+02  4.138087000E+02  6.315782773E+02  1.250000000E+02  0.00000E+00  9.000E+00
      25     1     1     2     0     0 -2.847694370E+02 -9.071344285E+02  1.595357628E+02  9.721435919E+02  1.250000000E+02  0.00000E+00  9.000E+00
      -1     1     1     2     0   502  2.677228398E+01  5.257344427E+02  2.200400871E+02  5.705533274E+02  1.044697871E-05  0.00000E+00  9.000E+00
#rwgt            2           5   4.2012263605235124E-005           2      269544           0
</event>
<event>
      5   9999  3.19816E-02  2.37360E+01 -1.00000E+00  1.60457E-01
      21    -1     0     0   502   511  0.000000000E+00  0.000000000E+00  2.911050157E+02  2.911050157E+02  0.000000000E+00  0.00000E+00  9.000E+00
      21    -1     0     0   501   502  0.000000000E+00  0.000000000E+00 -5.949391442E+02  5.949391442E+02  0.000000000E+00  0.00000E+00  9.000E+00
      25     1     1     2     0     0 -9.333327619E+01 -1.576447410E+02 -2.815118345E+01  2.235630871E+02  1.250000000E+02  0.00000E+00  9.000E+00
      25     1     1     2     0     0  7.213815985E+01  1.469599755E+02 -4.456060163E+02  4.909082097E+02  1.250000000E+02  0.00000E+00  9.000E+00
      21     1     1     2   501   511  2.119511633E+01  1.068476543E+01  1.699230713E+02  1.715728630E+02  3.303624740E-06  0.00000E+00  9.000E+00
#rwgt            1           1   3.3161253931667876E-002           2      269578           0
</event>
<event>
      5   9999  3.19816E-02  2.21883E+01 -1.00000E+00  1.62732E-01
      21    -1     0     0   502   501  0.000000000E+00  0.000000000E+00  1.751263760E+03  1.751263760E+03  0.000000000E+00  0.00000E+00  9.000E+00
      21    -1     0     0   501   512  0.000000000E+00  0.000000000E+00 -1.179463654E+02  1.179463654E+02  0.000000000E+00  0.00000E+00  9.000E+00
      25     1     1     2     0     0  2.688292088E+02 -1.597707859E+02  1.100841340E+03  1.151204805E+03  1.250000000E+02  0.00000E+00  9.000E+00
      25     1     1     2     0     0 -2.684605664E+02  1.819560240E+02  5.739400562E+02  6.709778375E+02  1.250000000E+02  0.00000E+00  9.000E+00
      21     1     1     2   502   512 -3.686423371E-01 -2.218523808E+01 -4.146400170E+01  4.702748263E+01  2.286830675E-06  0.00000E+00  9.000E+00
#rwgt            1           1   4.4139873560493717E-002           2      269742           0
</event>
<event>
      5   9999  3.19816E-02  1.73850E+02 -1.00000E+00  1.13909E-01
      21    -1     0     0   502   501  0.000000000E+00  0.000000000E+00  1.016596621E+02  1.016596621E+02  0.000000000E+00  0.00000E+00  9.000E+00
       4    -1     0     0   501     0  0.000000000E+00  0.000000000E+00 -1.078590102E+03  1.078590102E+03  0.000000000E+00  0.00000E+00  9.000E+00
      25     1     1     2     0     0  1.389613597E+02 -7.165409268E+01 -7.059164873E+01  2.122563293E+02  1.250000000E+02  0.00000E+00  9.000E+00
      25     1     1     2     0     0  3.405700822E+01  8.864179702E+01 -3.200954821E+02  3.565155896E+02  1.250000000E+02  0.00000E+00  9.000E+00
       4     1     1     2   502     0 -1.730183679E+02 -1.698770434E+01 -5.862433086E+02  6.114778447E+02  0.000000000E+00  0.00000E+00  9.000E+00
#rwgt            2          15   2.4273640092230873E-005           2      269935           0
</event>
<event>
      5   9999  3.19816E-02  8.31854E+01 -1.00000E+00  1.27534E-01
      21    -1     0     0   502   511  0.000000000E+00  0.000000000E+00  1.422661607E+03  1.422661607E+03  0.000000000E+00  0.00000E+00  9.000E+00
      21    -1     0     0   501   502  0.000000000E+00  0.000000000E+00 -3.023063324E+02  3.023063324E+02  0.000000000E+00  0.00000E+00  9.000E+00
      25     1     1     2     0     0  6.796863820E+01 -4.974574566E+02  8.722567309E+02  1.014169839E+03  1.250000000E+02  0.00000E+00  9.000E+00
      25     1     1     2     0     0  1.508406217E+01  4.927607539E+02  6.890590098E+01  5.132384559E+02  1.250000000E+02  0.00000E+00  9.000E+00
      21     1     1     2   501   511 -8.305270037E+01  4.696702781E+00  1.791926430E+02  1.975596451E+02  2.697398305E-06  0.00000E+00  9.000E+00
#rwgt            1           1   2.4816344460717728E-002           2      269999           0
</event>
<event>
      5   9999  3.19816E-02  2.43480E+01 -1.00000E+00  1.59615E-01
      21    -1     0     0   502   512  0.000000000E+00  0.000000000E+00  2.280434456E+02  2.280434456E+02  0.000000000E+00  0.00000E+00  9.000E+00
      21    -1     0     0   501   502  0.000000000E+00  0.000000000E+00 -3.514326513E+02  3.514326513E+02  0.000000000E+00  0.00000E+00  9.000E+00
      25     1     1     2     0     0 -1.070241769E+02 -1.391696319E+02  8.253960151E+01  2.307815996E+02  1.250000000E+02  0.00000E+00  9.000E+00
      25     1     1     2     0     0  1.120758851E+02  1.629878340E+02 -2.194920115E+02  3.208235982E+02  1.250000000E+02  0.00000E+00  9.000E+00
      21     1     1     2   501   512 -5.051708269E+00 -2.381820210E+01  1.356320424E+01  2.787089911E+01  5.840038640E-07  0.00000E+00  9.000E+00
#rwgt            1           1   2.7613039698362003E-002           2      270116           0
</event>
<event>
      5   9999  3.19816E-02  5.87796E+01 -1.00000E+00  1.35182E-01
      21    -1     0     0   502   501  0.000000000E+00  0.000000000E+00  1.534892811E+03  1.534892811E+03  0.000000000E+00  0.00000E+00  9.000E+00
      21    -1     0     0   511   502  0.000000000E+00  0.000000000E+00 -3.853134170E+01  3.853134170E+01  0.000000000E+00  0.00000E+00  9.000E+00
      25     1     1     2     0     0  3.067440643E+01  5.749793487E+01  1.170289753E+03  1.178749353E+03  1.250000000E+02  0.00000E+00  9.000E+00
      25     1     1     2     0     0 -8.422051951E+01 -3.325218547E+01  1.793832139E+02  2.366477153E+02  1.250000000E+02  0.00000E+00  9.000E+00
      21     1     1     2   511   501  5.354611308E+01 -2.424574941E+01  1.466885025E+02  1.580270843E+02  0.000000000E+00  0.00000E+00  9.000E+00
#rwgt            1           1   4.5373418074047517E-002           2      270264           0
</event>
<event>
      5   9999  3.19816E-02  9.83405E+01 -1.00000E+00  1.24156E-01
      21    -1     0     0   502   501  0.000000000E+00  0.000000000E+00  1.298414943E+02  1.298414943E+02  0.000000000E+00  0.00000E+00  9.000E+00
      21    -1     0     0   501   512  0.000000000E+00  0.000000000E+00 -3.811658705E+02  3.811658705E+02  0.000000000E+00  0.00000E+00  9.000E+00
      25     1     1     2     0     0 -9.989005573E+01  1.160315256E+02 -1.472698890E+02  2.464848035E+02  1.250000000E+02  0.00000E+00  9.000E+00
      25     1     1     2     0     0  2.746655237E+01 -4.950562604E+01 -2.763030068E+01  1.399773268E+02  1.250000000E+02  0.00000E+00  9.000E+00
      21     1     1     2   502   512  7.242350336E+01 -6.652589953E+01 -7.642418654E+01  1.245452345E+02  0.000000000E+00  0.00000E+00  9.000E+00
#rwgt            1           1   2.8789418170822482E-002           2      270346           0
</event>
<event>
      5   9999  3.19816E-02  1.22840E+02 -1.00000E+00  1.19939E-01
      21    -1     0     0   502   511  0.000000000E+00  0.000000000E+00  1.274919559E+03  1.274919559E+03  0.000000000E+00  0.00000E+00  9.000E+00
      21    -1     0     0   501   502  0.000000000E+00  0.000000000E+00 -5.764978515E+02  5.764978515E+02  0.000000000E+00  0.00000E+00  9.000E+00
      25     1     1     2     0     0 -8.307707742E+01  5.704729839E+02  3.324629171E+02  6.771246690E+02  1.250000000E+02  0.00000E+00  9.000E+00
      25     1     1     2     0     0  3.041602085E+01 -6.814529405E+02 -9.252774019E+01  6.996353530E+02  1.250000000E+02  0.00000E+00  9.000E+00
      21     1     1     2   501   511  5.266105657E+01  1.109799566E+02  4.584865308E+02  4.746573887E+02  5.394796609E-06  0.00000E+00  9.000E+00
#rwgt            1           1   3.2365869580628495E-002           2      270390           0
</event>
<event>
      5   9999  3.19816E-02  4.01730E+01 -1.00000E+00  1.44724E-01
      21    -1     0     0   502   501  0.000000000E+00  0.000000000E+00  2.602306366E+02  2.602306366E+02  0.000000000E+00  0.00000E+00  9.000E+00
      21    -1     0     0   501   512  0.000000000E+00  0.000000000E+00 -1.427446870E+02  1.427446870E+02  0.000000000E+00  0.00000E+00  9.000E+00
      25     1     1     2     0     0 -5.348893475E+01 -6.565472524E+00 -3.179218574E+01  1.397852447E+02  1.250000000E+02  0.00000E+00  9.000E+00
      25     1     1     2     0     0  4.406746866E+01  4.561811953E+01  1.680605693E+02  2.188431163E+02  1.250000000E+02  0.00000E+00  9.000E+00
      21     1     1     2   502   512  9.421466087E+00 -3.905264701E+01 -1.878243394E+01  4.434696254E+01  8.259061849E-07  0.00000E+00  9.000E+00
#rwgt            1           1   2.8520309670377157E-002           2      270457           0
</event>
<event>
      5   9999  3.19816E-02  4.05476E+01 -1.00000E+00  1.44475E-01
      21    -1     0     0   502   501  0.000000000E+00  0.000000000E+00  6.473464443E+02  6.473464443E+02  0.000000000E+00  0.00000E+00  9.000E+00
      21    -1     0     0   511   502  0.000000000E+00  0.000000000E+00 -5.387910357E+02  5.387910357E+02  0.000000000E+00  0.00000E+00  9.000E+00
      25     1     1     2     0     0  3.278529413E+02 -2.818097102E+02 -1.844280493E+02  4.863568332E+02  1.250000000E+02  0.00000E+00  9.000E+00
      25     1     1     2     0     0 -2.905274220E+02  2.659693458E+02  4.062402660E+02  5.794842790E+02  1.250000000E+02  0.00000E+00  9.000E+00
      21     1     1     2   511   501 -3.732551933E+01  1.584036439E+01 -1.132568081E+02  1.202963678E+02  0.000000000E+00  0.00000E+00  9.000E+00
#rwgt            1           1   2.8535757506385609E-002           2      270549           0
</event>
<event>
      5   9999  3.19816E-02  5.49957E+01 -1.00000E+00  1.36756E-01
      21    -1     0     0   512   501  0.000000000E+00  0.000000000E+00  9.093443415E+02  9.093443415E+02  0.000000000E+00  0.00000E+00  9.000E+00
      21    -1     0     0   501   502  0.000000000E+00  0.000000000E+00 -5.979194587E+01  5.979194587E+01  0.000000000E+00  0.00000E+00  9.000E+00
      25     1     1     2     0     0 -1.126126172E+02 -7.424625436E+01  1.740812679E+02  2.532259775E+02  1.250000000E+02  0.00000E+00  9.000E+00
      25     1     1     2     0     0  1.111641015E+02  1.926960546E+01  3.840088779E+02  4.193048932E+02  1.250000000E+02  0.00000E+00  9.000E+00
      21     1     1     2   512   502  1.448515673E+00  5.497664890E+01  2.914622498E+02  2.966054167E+02  0.000000000E+00  0.00000E+00  9.000E+00
#rwgt            1           1   2.7287434259221786E-002           2      270675           0
</event>
<event>
      5   9999  3.19816E-02  1.93656E+02 -1.00000E+00  1.12160E-01
      21    -1     0     0   502   501  0.000000000E+00  0.000000000E+00  4.581399061E+02  4.581399061E+02  0.000000000E+00  0.00000E+00  9.000E+00
       2    -1     0     0   501     0  0.000000000E+00  0.000000000E+00 -1.742052145E+03  1.742052145E+03  0.000000000E+00  0.00000E+00  9.000E+00
      25     1     1     2     0     0  8.556671000E+01  2.522156567E+02 -1.372452519E+03  1.403632899E+03  1.250000000E+02  0.00000E+00  9.000E+00
      25     1     1     2     0     0  3.510290522E+01 -1.007511368E+02  3.985108341E+02  4.310671530E+02  1.250000000E+02  0.00000E+00  9.000E+00
       2     1     1     2   502     0 -1.206696152E+02 -1.514645199E+02 -3.099705544E+02  3.654919991E+02  5.394796609E-06  0.00000E+00  9.000E+00
#rwgt            1           1   2.9903272611399564E-002           2      270746           0
</event>
<event>
      5   9999  3.19816E-02  3.97811E+01 -1.00000E+00  1.44988E-01
      21    -1     0     0   502   501  0.000000000E+00  0.000000000E+00  2.057810334E+02  2.057810334E+02  0.000000000E+00  0.00000E+00  9.000E+00
      21    -1     0     0   511   502  0.000000000E+00  0.000000000E+00 -2.078766338E+02  2.078766338E+02  0.000000000E+00  0.00000E+00  9.000E+00
      25     1     1     2     0     0 -5.400983453E+01 -3.496811169E+01 -9.250898000E+01  1.682936197E+02  1.250000000E+02  0.00000E+00  9.000E+00
      25     1     1     2     0     0  2.495159535E+01  6.213704409E+01  1.277081087E+02  1.908348904E+02  1.250000000E+02  0.00000E+00  9.000E+00
      21     1     1     2   511   501  2.905823918E+01 -2.716893241E+01 -3.729472906E+01  5.452915705E+01  9.536743164E-07  0.00000E+00  9.000E+00
#rwgt            1           1   2.4468477229253899E-002           2      270828           0
</event>
<event>
      5   9999  3.19816E-02  3.44867E+01 -1.00000E+00  1.48951E-01
      21    -1     0     0   502   501  0.000000000E+00  0.000000000E+00  1.086679222E+03  1.086679222E+03  0.000000000E+00  0.00000E+00  9.000E+00
      21    -1     0     0   512   502  0.000000000E+00  0.000000000E+00 -6.462355709E+02  6.462355709E+02  0.000000000E+00  0.00000E+00  9.000E+00
      25     1     1     2     0     0 -6.262893053E+01  1.732049651E+02  3.768647525E+02  4.376921115E+02  1.250000000E+02  0.00000E+00  9.000E+00
      25     1     1     2     0     0  2.988621158E+01 -1.623768703E+02  6.631135001E+02  6.946970186E+02  1.250000000E+02  0.00000E+00  9.000E+00
      21     1     1     2   512   501  3.274271895E+01 -1.082809478E+01 -5.995346014E+02  6.005256627E+02  1.078959322E-05  0.00000E+00  9.000E+00
#rwgt            1           1   2.6326504763612181E-002           2      270928           0
</event>
<event>
      5   9999  3.19816E-02  1.03183E+02 -1.00000E+00  1.23219E-01
      21    -1     0     0   511   501  0.000000000E+00  0.000000000E+00  2.438297158E+02  2.438297158E+02  0.000000000E+00  0.00000E+00  9.000E+00
      21    -1     0     0   501   502  0.000000000E+00  0.000000000E+00 -3.442331293E+02  3.442331293E+02  0.000000000E+00  0.00000E+00  9.000E+00
      25     1     1     2     0     0 -6.211436246E+01 -3.583642400E+01 -4.980124789E+00  1.441951627E+02  1.250000000E+02  0.00000E+00  9.000E+00
      25     1     1     2     0     0  1.396629335E+02  1.039016987E+02 -2.027295591E+02  2.950009697E+02  1.250000000E+02  0.00000E+00  9.000E+00
      21     1     1     2   511   502 -7.754857101E+01 -6.806527467E+01  1.073062704E+02  1.488667127E+02  1.348699152E-06  0.00000E+00  9.000E+00
#rwgt            1           1   3.0597207098482897E-002           2      271072           0
</event>
<event>
      5   9999  3.19816E-02  1.51320E+01 -1.00000E+00  1.77026E-01
      21    -1     0     0   502   501  0.000000000E+00  0.000000000E+00  1.076029882E+02  1.076029882E+02  0.000000000E+00  0.00000E+00  9.000E+00
      21    -1     0     0   512   502  0.000000000E+00  0.000000000E+00 -2.255680182E+03  2.255680182E+03  0.000000000E+00  0.00000E+00  9.000E+00
      25     1     1     2     0     0  2.967510132E+01 -8.706558347E+01  4.587242278E+01  1.618341949E+02  1.250000000E+02  0.00000E+00  9.000E+00
      25     1     1     2     0     0 -1.732118826E+01  9.580393480E+01 -1.726578784E+03  1.733833243E+03  1.250000000E+02  0.00000E+00  9.000E+00
      21     1     1     2   512   501 -1.235391307E+01 -8.738351327E+00 -4.673708324E+02  4.676157321E+02  5.394796609E-06  0.00000E+00  9.000E+00
#rwgt            1           1   2.8851113189808847E-002           2      271133           0
</event>
<event>
      5   9999  3.19816E-02  1.48764E+02 -1.00000E+00  1.16536E-01
      21    -1     0     0   511   501  0.000000000E+00  0.000000000E+00  1.350461158E+03  1.350461158E+03  0.000000000E+00  0.00000E+00  9.000E+00
      21    -1     0     0   501   502  0.000000000E+00  0.000000000E+00 -1.963458088E+02  1.963458088E+02  0.000000000E+00  0.00000E+00  9.000E+00
      25     1     1     2     0     0 -5.152708244E+01 -3.154298049E+02  5.149968467E+02  6.188681234E+02  1.250000000E+02  0.00000E+00  9.000E+00
      25     1     1     2     0     0  3.993403547E+00  1.744638810E+02 -5.210131170E+01  2.208916923E+02  1.250000000E+02  0.00000E+00  9.000E+00
      21     1     1     2   511   502  4.753367889E+01  1.409659239E+02  6.912198147E+02  7.070471516E+02  1.078959322E-05  0.00000E+00  9.000E+00
#rwgt            1           1   2.8295486109899039E-002           2      271369           0
</event>
<event>
      5   9999  3.19816E-02  3.92674E+01 -1.00000E+00  1.45340E-01
      21    -1     0     0   502   501  0.000000000E+00  0.000000000E+00  5.205746396E+02  5.205746396E+02  0.000000000E+00  0.00000E+00  9.000E+00
      21    -1     0     0   501   512  0.000000000E+00  0.000000000E+00 -2.175521496E+02  2.175521496E+02  0.000000000E+00  0.00000E+00  9.000E+00
      25     1     1     2     0     0 -2.652588822E+02  5.804078822E+01  2.115333170E+02  3.661998797E+02  1.250000000E+02  0.00000E+00  9.000E+00
      25     1     1     2     0     0  2.801778386E+02 -9.436368290E+01  8.578665095E+01  3.322476115E+02  1.250000000E+02  0.00000E+00  9.000E+00
      21     1     1     2   502   512 -1.491895639E+01  3.632289468E+01  5.702522056E+00  3.967929807E+01  3.769728732E-07  0.00000E+00  9.000E+00
#rwgt            1           1   2.8043015663533850E-002           2      271425           0
</event>
<event>
      5   9999  3.19816E-02  3.41966E+01 -1.00000E+00  1.49193E-01
      21    -1     0     0   502   511  0.000000000E+00  0.000000000E+00  8.097333604E+02  8.097333604E+02  0.000000000E+00  0.00000E+00  9.000E+00
      21    -1     0     0   501   502  0.000000000E+00  0.000000000E+00 -7.358651291E+02  7.358651291E+02  0.000000000E+00  0.00000E+00  9.000E+00
      25     1     1     2     0     0  4.552910750E+01  3.357815046E+02 -6.253545780E+02  7.221602777E+02  1.250000000E+02  0.00000E+00  9.000E+00
      25     1     1     2     0     0 -4.785301986E+01 -3.698990624E+02  5.910279381E+02  7.099677820E+02  1.250000000E+02  0.00000E+00  9.000E+00
      21     1     1     2   501   511  2.323912355E+00  3.411755773E+01  1.081948711E+02  1.134704298E+02  2.336015456E-06  0.00000E+00  9.000E+00
#rwgt            1           1   2.5464491391684024E-002           2      271496           0
</event>
<event>
      5   9999  3.19816E-02  1.08916E+02 -1.00000E+00  1.22182E-01
      21    -1     0     0   512   501  0.000000000E+00  0.000000000E+00  2.296213471E+02  2.296213471E+02  0.000000000E+00  0.00000E+00  9.000E+00
      21    -1     0     0   501   502  0.000000000E+00  0.000000000E+00 -4.305441816E+02  4.305441816E+02  0.000000000E+00  0.00000E+00  9.000E+00
      25     1     1     2     0     0  1.450280021E+02  1.587685047E+01  5.668753410E+01  2.003089422E+02  1.250000000E+02  0.00000E+00  9.000E+00
      25     1     1     2     0     0 -2.082610539E+02  7.280397291E+01 -2.407279815E+02  3.496398806E+02  1.250000000E+02  0.00000E+00  9.000E+00
      21     1     1     2   512   502  6.323305178E+01 -8.868082339E+01 -1.688238708E+01  1.102167059E+02  7.152557373E-07  0.00000E+00  9.000E+00
#rwgt            1           1   2.7915744328438734E-002           2      271735           0
</event>
<event>
      5   9999  3.19816E-02  5.46467E+01 -1.00000E+00  1.36909E-01
      21    -1     0     0   502   501  0.000000000E+00  0.000000000E+00  3.294803394E+01  3.294803394E+01  0.000000000E+00  0.00000E+00  9.000E+00
       1    -1     0     0   501     0  0.000000000E+00  0.000000000E+00 -1.832725487E+03  1.832725487E+03  0.000000000E+00  0.00000E+00  9.000E+00
      25     1     1     2     0     0  4.162497059E+01  7.128066526E+01 -1.779396453E+02  2.325964075E+02  1.250000000E+02  0.00000E+00  9.000E+00
      25     1     1     2     0     0 -4.424956171E+01 -1.669700868E+01 -1.010077271E+03  1.018880713E+03  1.250000000E+02  0.00000E+00  9.000E+00
       1     1     1     2   502     0  2.624591125E+00 -5.458365659E+01 -6.117605367E+02  6.141964005E+02  0.000000000E+00  0.00000E+00  9.000E+00
#rwgt            1           1   3.1515137296726108E-002           2      271790           0
</event>
<event>
      5   9999  3.19816E-02  4.95528E+02 -1.00000E+00  9.89630E-02
       2    -1     0     0   502     0  0.000000000E+00  0.000000000E+00  2.666210306E+03  2.666210306E+03  0.000000000E+00  0.00000E+00  9.000E+00
      21    -1     0     0   501   502  0.000000000E+00  0.000000000E+00 -2.686153812E+02  2.686153812E+02  0.000000000E+00  0.00000E+00  9.000E+00
      25     1     1     2     0     0  8.369081708E+01 -1.768323934E+02 -6.720999523E+01  2.416940870E+02  1.250000000E+02  0.00000E+00  9.000E+00
      25     1     1     2     0     0  3.195210314E+02  4.648736555E+02  1.126388285E+03  1.265929213E+03  1.250000000E+02  0.00000E+00  9.000E+00
       2     1     1     2   501     0 -4.032118485E+02 -2.880412621E+02  1.338416635E+03  1.427202387E+03  2.157918644E-05  0.00000E+00  9.000E+00
#rwgt            2          18   1.4572372861854580E-003           2      271912           0
</event>
<event>
      5   9999  3.19816E-02  1.49750E+02 -1.00000E+00  1.16422E-01
      -5    -1     0     0     0   501  0.000000000E+00  0.000000000E+00  4.199956728E+02  4.199956728E+02  0.000000000E+00  0.00000E+00  9.000E+00
      21    -1     0     0   501   502  0.000000000E+00  0.000000000E+00 -7.574029570E+02  7.574029570E+02  0.000000000E+00  0.00000E+00  9.000E+00
      25     1     1     2     0     0  2.338333438E+02  1.205374448E+02 -6.208762650E+02  6.857985453E+02  1.250000000E+02  0.00000E+00  9.000E+00
      25     1     1     2     0     0 -1.106318677E+02 -3.541123269E+01 -4.135810156E-01  1.706415442E+02  1.250000000E+02  0.00000E+00  9.000E+00
      -5     1     1     2     0   502 -1.232014760E+02 -8.512621206E+01  2.838825618E+02  3.209585403E+02  6.607249480E-06  0.00000E+00  9.000E+00
#rwgt            1           1   2.9882539993119940E-002           2      271961           0
</event>
<event>
      5   9999  3.19816E-02  2.98295E+01 -1.00000E+00  1.53212E-01
      21    -1     0     0   502   501  0.000000000E+00  0.000000000E+00  1.804450660E+03  1.804450660E+03  0.000000000E+00  0.00000E+00  9.000E+00
      21    -1     0     0   501   511  0.000000000E+00  0.000000000E+00 -1.247459297E+02  1.247459297E+02  0.000000000E+00  0.00000E+00  9.000E+00
      25     1     1     2     0     0 -9.046030752E+01 -3.015970362E+02  1.910040017E+02  3.889104886E+02  1.250000000E+02  0.00000E+00  9.000E+00
      25     1     1     2     0     0  1.201995701E+02  3.039157121E+02  1.448868465E+03  1.490522568E+03  1.250000000E+02  0.00000E+00  9.000E+00
      21     1     1     2   502   511 -2.973926258E+01 -2.318675820E+00  3.983226340E+01  4.976353288E+01  0.000000000E+00  0.00000E+00  9.000E+00
#rwgt            1           1   3.0546553214907173E-002           2      272024           0
</event>
<event>
      5   9999  3.19816E-02  3.34615E+01 -1.00000E+00  1.49817E-01
      21    -1     0     0   502   512  0.000000000E+00  0.000000000E+00  7.932175673E+02  7.932175673E+02  0.000000000E+00  0.00000E+00  9.000E+00
      21    -1     0     0   501   502  0.000000000E+00  0.000000000E+00 -4.921439022E+02  4.921439022E+02  0.000000000E+00  0.00000E+00  9.000E+00
      25     1     1     2     0     0 -6.947495991E+01 -1.607574169E+02  3.561580675E+02  4.161048981E+02  1.250000000E+02  0.00000E+00  9.000E+00
      25     1     1     2     0     0  6.421925655E+01  1.277112618E+02 -4.419122825E+02  4.809841418E+02  1.250000000E+02  0.00000E+00  9.000E+00
      21     1     1     2   501   512  5.255703357E+00  3.304615514E+01  3.868278801E+02  3.882724296E+02  5.394796609E-06  0.00000E+00  9.000E+00
#rwgt            1           1   2.8505337745452726E-002           2      272128           0
</event>
<event>
      5   9999  3.19816E-02  6.30373E+01 -1.00000E+00  1.33567E-01
      21    -1     0     0   502   501  0.000000000E+00  0.000000000E+00  4.805009123E+02  4.805009123E+02  0.000000000E+00  0.00000E+00  9.000E+00
       1    -1     0     0   501     0  0.000000000E+00  0.000000000E+00 -6.314498189E+02  6.314498189E+02  0.000000000E+00  0.00000E+00  9.000E+00
      25     1     1     2     0     0  3.580167451E+02  2.969934279E+02 -1.670615311E+02  5.098192240E+02  1.250000000E+02  0.00000E+00  9.000E+00
      25     1     1     2     0     0 -3.186686230E+02 -2.477448607E+02  1.546191703E+02  4.499547701E+02  1.250000000E+02  0.00000E+00  9.000E+00
       1     1     1     2   502     0 -3.934812217E+01 -4.924856718E+01 -1.385065459E+02  1.521767372E+02  0.000000000E+00  0.00000E+00  9.000E+00
#rwgt            1           1   2.9998296789530133E-002           2      272230           0
</event>
<event>
      5   9999  3.19816E-02  1.21750E+02 -1.00000E+00  1.20102E-01
      21    -1     0     0   502   501  0.000000000E+00  0.000000000E+00  1.102374779E+03  1.102374779E+03  0.000000000E+00  0.00000E+00  9.000E+00
      21    -1     0     0   511   502  0.000000000E+00  0.000000000E+00 -2.182032672E+03  2.182032672E+03  0.000000000E+00  0.00000E+00  9.000E+00
      25     1     1     2     0     0 -4.408311736E+01 -4.804755003E+02  9.798297650E+02  1.099314057E+03  1.250000000E+02  0.00000E+00  9.000E+00
      25     1     1     2     0     0 -5.650103410E+01  5.490743426E+02 -1.911164570E+03  1.993200947E+03  1.250000000E+02  0.00000E+00  9.000E+00
      21     1     1     2   511   501  1.005841515E+02 -6.859884231E+01 -1.483230879E+02  1.918924466E+02  1.907348633E-06  0.00000E+00  9.000E+00
#rwgt            1           1   4.2530635905406497E-002           2      272420           0
</event>
<event>
      5   9999  3.19816E-02  1.02554E+02 -1.00000E+00  1.23337E-01
      21    -1     0     0   502   512  0.000000000E+00  0.000000000E+00  2.029576120E+02  2.029576120E+02  0.000000000E+00  0.00000E+00  9.000E+00
      21    -1     0     0   501   502  0.000000000E+00  0.000000000E+00 -5.741951915E+02  5.741951915E+02  0.000000000E+00  0.00000E+00  9.000E+00
      25     1     1     2     0     0 -1.257707949E+02  1.584174443E+02 -4.249413825E+01  2.415473686E+02  1.250000000E+02  0.00000E+00  9.000E+00
      25     1     1     2     0     0  2.217651725E+02 -1.223280808E+02 -3.282735044E+02  4.330501642E+02  1.250000000E+02  0.00000E+00  9.000E+00
      21     1     1     2   501   512 -9.599437757E+01 -3.608936351E+01 -4.699368803E-01  1.025552706E+02  1.969167450E-06  0.00000E+00  9.000E+00
#rwgt            1           1   3.5304436957877237E-002           2      272559           0
</event>
<event>
      5   9999  3.19816E-02  2.47083E+01 -1.00000E+00  1.59134E-01
      21    -1     0     0   511   501  0.000000000E+00  0.000000000E+00  4.767383155E+02  4.767383155E+02  0.000000000E+00  0.00000E+00  9.000E+00
      21    -1     0     0   501   502  0.000000000E+00  0.000000000E+00 -4.335701458E+02  4.335701458E+02  0.000000000E+00  0.00000E+00  9.000E+00
      25     1     1     2     0     0 -1.923552635E+01 -4.726752958E+01 -3.226284273E+02  3.497403708E+02  1.250000000E+02  0.00000E+00  9.000E+00
      25     1     1     2     0     0 -9.603672800E-02  3.187954976E+01 -5.414262644E+01  1.399026051E+02  1.250000000E+02  0.00000E+00  9.000E+00
      21     1     1     2   511   502  1.933156308E+01  1.538797983E+01  4.199392235E+02  4.206654855E+02  5.394796609E-06  0.00000E+00  9.000E+00
#rwgt            1           1   7.7659057039849794E-002           2      272651           0
</event>
<event>
      5   9999  3.19816E-02  2.61192E+01 -1.00000E+00  1.57339E-01
      21    -1     0     0   502   512  0.000000000E+00  0.000000000E+00  1.500597738E+03  1.500597738E+03  0.000000000E+00  0.00000E+00  9.000E+00
      21    -1     0     0   501   502  0.000000000E+00  0.000000000E+00 -1.996066895E+02  1.996066895E+02  0.000000000E+00  0.00000E+00  9.000E+00
      25     1     1     2     0     0  3.568949638E+02  3.778436414E+02  4.729264277E+02  7.137396154E+02  1.250000000E+02  0.00000E+00  9.000E+00
      25     1     1     2     0     0 -3.384030597E+02 -3.593974084E+02  7.750888827E+02  9.274000777E+02  1.250000000E+02  0.00000E+00  9.000E+00
      21     1     1     2   501   512 -1.849190412E+01 -1.844623299E+01  5.297573774E+01  5.906473413E+01  1.168007728E-06  0.00000E+00  9.000E+00
#rwgt            1           1   3.1296769270015734E-002           2      272748           0
</event>
<event>
      5   9999  3.19816E-02  5.06227E+02 -1.00000E+00  9.86995E-02
      21    -1     0     0   502   511  0.000000000E+00  0.000000000E+00  6.097066609E+02  6.097066609E+02  0.000000000E+00  0.00000E+00  9.000E+00
      21    -1     0     0   501   502  0.000000000E+00  0.000000000E+00 -8.457483637E+02  8.457483637E+02  0.000000000E+00  0.00000E+00  9.000E+00
      25     1     1     2     0     0  1.025767545E+02  2.654004748E+02 -5.424813730E+00  3.108276551E+02  1.250000000E+02  0.00000E+00  9.000E+00
      25     1     1     2     0     0  1.679773663E+02  1.624617205E+02 -5.039024939E+02  5.693442980E+02  1.250000000E+02  0.00000E+00  9.000E+00
      21     1     1     2   501   511 -2.705541209E+02 -4.278621953E+02  2.732856049E+02  5.752830715E+02  1.206313194E-05  0.00000E+00  9.000E+00
#rwgt            2          11   3.9651828452242997E-003           2      272920           0
</event>
<event>
      5   9999  3.19816E-02  2.30688E+01 -1.00000E+00  1.61411E-01
      21    -1     0     0   502   501  0.000000000E+00  0.000000000E+00  1.249837864E+02  1.249837864E+02  0.000000000E+00  0.00000E+00  9.000E+00
       1    -1     0     0   501     0  0.000000000E+00  0.000000000E+00 -6.551770126E+02  6.551770126E+02  0.000000000E+00  0.00000E+00  9.000E+00
      25     1     1     2     0     0 -4.549531635E+01 -1.414797221E+02 -3.176071517E+02  3.722709207E+02  1.250000000E+02  0.00000E+00  9.000E+00
      25     1     1     2     0     0  6.477368738E+01  1.288103960E+02  3.225850544E+00  1.908485127E+02  1.250000000E+02  0.00000E+00  9.000E+00
       1     1     1     2   502     0 -1.927837103E+01  1.266932615E+01 -2.158119250E+02  2.170413656E+02  3.814697266E-06  0.00000E+00  9.000E+00
#rwgt            1           1   2.7346684881275292E-002           2      272955           0
</event>
<event>
      5   9999  3.19816E-02  6.16473E+01 -1.00000E+00  1.34078E-01
       1    -1     0     0   502     0  0.000000000E+00  0.000000000E+00  6.341459064E+02  6.341459064E+02  0.000000000E+00  0.00000E+00  9.000E+00
      21    -1     0     0   501   502  0.000000000E+00  0.000000000E+00 -1.299888293E+03  1.299888293E+03  0.000000000E+00  0.00000E+00  9.000E+00
      25     1     1     2     0     0  2.756809139E+02 -3.967960457E+02 -7.930544500E+02  9.370205061E+02  1.250000000E+02  0.00000E+00  9.000E+00
      25     1     1     2     0     0 -2.800858550E+02  3.353062912E+02 -3.133959540E+02  5.520148722E+02  1.250000000E+02  0.00000E+00  9.000E+00
       1     1     1     2   501     0  4.404941015E+00  6.148975449E+01  4.407080178E+02  4.449988207E+02  5.394796609E-06  0.00000E+00  9.000E+00
#rwgt            1           1   2.6223289074171423E-002           2      273088           0
</event>
<event>
      5   9999  3.19816E-02  1.22305E+02 -1.00000E+00  1.20019E-01
      -1    -1     0     0     0   501  0.000000000E+00  0.000000000E+00  6.492176183E+02  6.492176183E+02  0.000000000E+00  0.00000E+00  9.000E+00
      21    -1     0     0   501   502  0.000000000E+00  0.000000000E+00 -2.706566518E+02  2.706566518E+02  0.000000000E+00  0.00000E+00  9.000E+00
      25     1     1     2     0     0 -1.389610013E+02  2.522248528E+02 -9.500045474E+01  3.279902783E+02  1.250000000E+02  0.00000E+00  9.000E+00
      25     1     1     2     0     0  5.266945017E+01 -1.655517800E+02  3.863479988E+02  4.416686982E+02  1.250000000E+02  0.00000E+00  9.000E+00
      -1     1     1     2     0   502  8.629155117E+01 -8.667307283E+01  8.721342251E+01  1.502152936E+02  2.697398305E-06  0.00000E+00  9.000E+00
#rwgt            1           1   2.6065625444207319E-002           2      273184           0
</event>
<event>
      5   9999  3.22931E-02  1.00038E+02 -1.00000E+00  1.23821E-01
      21    -1     0     0   511   501  0.000000000E+00  0.000000000E+00  1.408524962E+03  1.408524962E+03  0.000000000E+00  0.00000E+00  9.000E+00
      21    -1     0     0   501   502  0.000000000E+00  0.000000000E+00 -7.211010221E+01  7.211010221E+01  0.000000000E+00  0.00000E+00  9.000E+00
      25     1     1     2     0     0  1.639801222E+02 -9.804947501E+01  7.292193311E+02  7.641263069E+02  1.250000000E+02  0.00000E+00  9.000E+00
      25     1     1     2     0     0 -1.291482422E+02  1.918271567E+02  3.305600419E+02  4.223409379E+02  1.250000000E+02  0.00000E+00  9.000E+00
      21     1     1     2   511   502 -3.483188006E+01 -9.377768170E+01  2.766354873E+02  2.941678199E+02  3.814697266E-06  0.00000E+00  9.000E+00
#rwgt            1           1   3.0514305373863945E-002           2      273280           0
</event>
<event>
      5   9999  3.19816E-02  1.41922E+01 -1.00000E+00  1.79679E-01
      21    -1     0     0   502   501  0.000000000E+00  0.000000000E+00  1.557692709E+03  1.557692709E+03  0.000000000E+00  0.00000E+00  9.000E+00
      21    -1     0     0   512   502  0.000000000E+00  0.000000000E+00 -2.414645375E+02  2.414645375E+02  0.000000000E+00  0.00000E+00  9.000E+00
      25     1     1     2     0     0 -5.587657973E+02 -9.853291219E+01  5.576993463E+02  8.053455854E+02  1.250000000E+02  0.00000E+00  9.000E+00
      25     1     1     2     0     0  5.489083551E+02  1.087431995E+02  7.800052534E+02  9.680695538E+02  1.250000000E+02  0.00000E+00  9.000E+00
      21     1     1     2   512   501  9.857442280E+00 -1.021028728E+01 -2.147642807E+01  2.574210748E+01  7.152557373E-07  0.00000E+00  9.000E+00
#rwgt            1           1   2.8281965751704743E-002           2      273387           0
</event>
<event>
      5   9999  3.19816E-02  3.48559E+01 -1.00000E+00  1.48648E-01
      21    -1     0     0   502   501  0.000000000E+00  0.000000000E+00  7.671152846E+01  7.671152846E+01  0.000000000E+00  0.00000E+00  9.000E+00
      21    -1     0     0   501   511  0.000000000E+00  0.000000000E+00 -2.036441662E+03  2.036441662E+03  0.000000000E+00  0.00000E+00  9.000E+00
      25     1     1     2     0     0  2.622691560E+02  2.637311227E+01 -6.134702526E+02  6.793021435E+02  1.250000000E+02  0.00000E+00  9.000E+00
      25     1     1     2     0     0 -2.443793820E+02  3.541571645E+00 -3.898365651E+02  4.767927984E+02  1.250000000E+02  0.00000E+00  9.000E+00
      21     1     1     2   502   511 -1.788977409E+01 -2.991468391E+01 -9.564233161E+02  9.570582490E+02  0.000000000E+00  0.00000E+00  9.000E+00
#rwgt            1           1   2.9326195888290430E-002           2      273653           0
</event>
<event>
      5   9999  3.19816E-02  4.04578E+02 -1.00000E+00  1.01537E-01
      -1    -1     0     0     0   501  0.000000000E+00  0.000000000E+00  1.475766234E+03  1.475766234E+03  0.000000000E+00  0.00000E+00  9.000E+00
      21    -1     0     0   501   502  0.000000000E+00  0.000000000E+00 -4.140916157E+02  4.140916157E+02  0.000000000E+00  0.00000E+00  9.000E+00
      25     1     1     2     0     0 -2.382047399E+02 -2.850627236E+02 -9.842574872E+01  4.041223608E+02  1.250000000E+02  0.00000E+00  9.000E+00
      25     1     1     2     0     0  5.072236948E+02 -1.711580505E+01  6.203677990E+02  8.112028312E+02  1.250000000E+02  0.00000E+00  9.000E+00
      -1     1     1     2     0   502 -2.690189549E+02  3.021785286E+02  5.397325677E+02  6.745326574E+02  1.078959322E-05  0.00000E+00  9.000E+00
#rwgt            1           1   2.6521830019368781E-002           2      273735           0
</event>
<event>
      5   9999  3.19816E-02  1.41467E+02 -1.00000E+00  1.17411E-01
      21    -1     0     0   502   501  0.000000000E+00  0.000000000E+00  1.054188853E+03  1.054188853E+03  0.000000000E+00  0.00000E+00  9.000E+00
      21    -1     0     0   511   502  0.000000000E+00  0.000000000E+00 -3.303988001E+02  3.303988001E+02  0.000000000E+00  0.00000E+00  9.000E+00
      25     1     1     2     0     0 -3.573809964E+02 -1.634696656E+02  6.483052866E+02  7.683542496E+02  1.250000000E+02  0.00000E+00  9.000E+00
      25     1     1     2     0     0  2.902856457E+02  2.880131405E+02  1.539416001E+02  4.544670961E+02  1.250000000E+02  0.00000E+00  9.000E+00
      21     1     1     2   511   501  6.709535067E+01 -1.245434749E+02 -7.845683435E+01  1.617663070E+02  3.303624740E-06  0.00000E+00  9.000E+00
#rwgt            1           1   2.7820970047307804E-002           2      273772           0
</event>
<event>
      5   9999  3.19816E-02  1.28681E+02 -1.00000E+00  1.19095E-01
      21    -1     0     0   512   501  0.000000000E+00  0.000000000E+00  5.364093253E+02  5.364093253E+02  0.000000000E+00  0.00000E+00  9.000E+00
      21    -1     0     0   501   502  0.000000000E+00  0.000000000E+00 -8.900576503E+02  8.900576503E+02  0.000000000E+00  0.00000E+00  9.000E+00
      25     1     1     2     0     0 -4.254733104E+02 -2.160570876E+02 -4.959577113E+01  4.957750937E+02  1.250000000E+02  0.00000E+00  9.000E+00
      25     1     1     2     0     0  3.017455018E+02  1.806979189E+02 -5.432214221E+02  6.591028745E+02  1.250000000E+02  0.00000E+00  9.000E+00
      21     1     1     2   512   502  1.237278086E+02  3.535916876E+01  2.391688683E+02  2.715890075E+02  5.394796609E-06  0.00000E+00  9.000E+00
#rwgt            2          11   3.4756358093864827E-003           2      273838           0
</event>
<event>
      5   9999  3.19816E-02  1.15303E+02 -1.00000E+00  1.21109E-01
      -5    -1     0     0     0   501  0.000000000E+00  0.000000000E+00  1.554839072E+03  1.554839072E+03  0.000000000E+00  0.00000E+00  9.000E+00
      21    -1     0     0   501   502  0.000000000E+00  0.000000000E+00 -2.611169901E+02  2.611169901E+02  0.000000000E+00  0.00000E+00  9.000E+00
      25     1     1     2     0     0  2.312509335E+01  3.679124528E+01 -2.091604486E+02  2.475105228E+02  1.250000000E+02  0.00000E+00  9.000E+00
      25     1     1     2     0     0 -1.372120130E+02 -2.008955038E+01  2.592437124E+02  3.194730488E+02  1.250000000E+02  0.00000E+00  9.000E+00
      -5     1     1     2     0   502  1.140869196E+02 -1.670169490E+01  1.243638818E+03  1.248972491E+03  0.000000000E+00  0.00000E+00  9.000E+00
#rwgt            1           1   2.6381460346638640E-002           2      273858           0
</event>
<event>
      5   9999  3.19816E-02  2.10264E+02 -1.00000E+00  1.10863E-01
      21    -1     0     0   502   501  0.000000000E+00  0.000000000E+00  9.306563298E+02  9.306563298E+02  0.000000000E+00  0.00000E+00  9.000E+00
      21    -1     0     0   511   502  0.000000000E+00  0.000000000E+00 -6.136563271E+02  6.136563271E+02  0.000000000E+00  0.00000E+00  9.000E+00
      25     1     1     2     0     0 -1.153374459E+02 -5.304590513E+01 -1.738597024E+02  2.489353141E+02  1.250000000E+02  0.00000E+00  9.000E+00
      25     1     1     2     0     0  3.013024021E+02 -4.507576917E+01  8.319131559E+02  8.947175317E+02  1.250000000E+02  0.00000E+00  9.000E+00
      21     1     1     2   511   501 -1.859649562E+02  9.812167430E+01 -3.410534509E+02  4.006598111E+02  5.394796609E-06  0.00000E+00  9.000E+00
#rwgt            2          11   3.8935215209843104E-003           2      273931           0
</event>
<event>
      5   9999  3.19816E-02  1.03172E+01 -1.00000E+00  1.94203E-01
      21    -1     0     0   502   501  0.000000000E+00  0.000000000E+00  9.611183024E+02  9.611183024E+02  0.000000000E+00  0.00000E+00  9.000E+00
      21    -1     0     0   501   512  0.000000000E+00  0.000000000E+00 -4.077877767E+02  4.077877767E+02  0.000000000E+00  0.00000E+00  9.000E+00
      25     1     1     2     0     0  3.484156167E+02 -4.793913831E+02  1.663150208E+02  6.280885497E+02  1.250000000E+02  0.00000E+00  9.000E+00
      25     1     1     2     0     0 -3.525696926E+02  4.699474689E+02  4.019003791E+02  7.227066669E+02  1.250000000E+02  0.00000E+00  9.000E+00
      21     1     1     2   502   512  4.154075828E+00  9.443914239E+00 -1.488487422E+01  1.811086256E+01  2.384185791E-07  0.00000E+00  9.000E+00
#rwgt            1           1   3.3340649026499990E-002           2      273966           0
</event>
<event>
      5   9999  3.19816E-02  6.49428E+01 -1.00000E+00  1.32892E-01
      21    -1     0     0   502   511  0.000000000E+00  0.000000000E+00  7.752497596E+01  7.752497596E+01  0.000000000E+00  0.00000E+00  9.000E+00
      21    -1     0     0   501   502  0.000000000E+00  0.000000000E+00 -1.933419035E+03  1.933419035E+03  0.000000000E+00  0.00000E+00  9.000E+00
      25     1     1     2     0     0 -9.153672411E+01  1.859815322E+02 -1.349571596E+03  1.371107798E+03  1.250000000E+02  0.00000E+00  9.000E+00
      25     1     1     2     0     0  4.949081816E+01 -2.354760742E+02 -5.069278681E+02  5.748905861E+02  1.250000000E+02  0.00000E+00  9.000E+00
      21     1     1     2   501   511  4.204590594E+01  4.949454193E+01  6.054049197E-01  6.494562651E+01  2.272988860E-06  0.00000E+00  9.000E+00
#rwgt            1           1   2.9703289580317427E-002           2      274228           0
</event>
<event>
      5   9999  3.19816E-02  2.49068E+02 -1.00000E+00  1.08286E-01
       1    -1     0     0   502     0  0.000000000E+00  0.000000000E+00  1.178624102E+03  1.178624102E+03  0.000000000E+00  0.00000E+00  9.000E+00
      21    -1     0     0   501   502  0.000000000E+00  0.000000000E+00 -3.905604542E+02  3.905604542E+02  0.000000000E+00  0.00000E+00  9.000E+00
      25     1     1     2     0     0  9.994092410E+01  8.338386185E+01 -3.030489693E+02  3.527105534E+02  1.250000000E+02  0.00000E+00  9.000E+00
      25     1     1     2     0     0  1.228789054E+02  2.791033554E+01  8.551658166E+02  8.733909698E+02  1.250000000E+02  0.00000E+00  9.000E+00
       1     1     1     2   501     0 -2.228198295E+02 -1.112941974E+02  2.359467999E+02  3.430830325E+02  3.814697266E-06  0.00000E+00  9.000E+00
#rwgt            2          17   3.3854147493014635E-004           2      274332           0
</event>
<event>
      5   9999  3.19816E-02  1.92137E+02 -1.00000E+00  1.12286E-01
      21    -1     0     0   502   501  0.000000000E+00  0.000000000E+00  3.102729202E+02  3.102729202E+02  0.000000000E+00  0.00000E+00  9.000E+00
       1    -1     0     0   501     0  0.000000000E+00  0.000000000E+00 -7.461632233E+02  7.461632233E+02  0.000000000E+00  0.00000E+00  9.000E+00
      25     1     1     2     0     0  2.062140648E+00  9.843824886E+01  2.085090552E+02  2.622887099E+02  1.250000000E+02  0.00000E+00  9.000E+00
      25     1     1     2     0     0 -8.903584192E+01  7.288713038E+01 -6.197248240E+01  1.808466298E+02  1.250000000E+02  0.00000E+00  9.000E+00
       1     1     1     2   502     0  8.697370127E+01 -1.713253792E+02 -5.824268759E+02  6.133008039E+02  7.629394531E-06  0.00000E+00  9.000E+00
#rwgt            2          12   7.9043109529159218E-004           2      274366           0
</event>
<event>
      5   9999  3.19816E-02  2.13870E+01 -1.00000E+00  1.64002E-01
      21    -1     0     0   502   511  0.000000000E+00  0.000000000E+00  1.016055559E+02  1.016055559E+02  0.000000000E+00  0.00000E+00  9.000E+00
      21    -1     0     0   501   502  0.000000000E+00  0.000000000E+00 -1.716656643E+03  1.716656643E+03  0.000000000E+00  0.00000E+00  9.000E+00
      25     1     1     2     0     0  1.178550752E+01  3.799269711E+01 -7.839542727E+02  7.948532223E+02  1.250000000E+02  0.00000E+00  9.000E+00
      25     1     1     2     0     0 -2.381957525E+01 -5.567276014E+01 -9.207871674E+02  9.312039712E+02  1.250000000E+02  0.00000E+00  9.000E+00
      21     1     1     2   501   511  1.203406773E+01  1.768006303E+01  8.969035352E+01  9.220500490E+01  5.309833873E-06  0.00000E+00  9.000E+00
#rwgt            1           1   2.2433090013087569E-002           2      274385           0
</event>
<event>
      5   9999  3.19816E-02  3.21454E+02 -1.00000E+00  1.04626E-01
       2    -1     0     0   502     0  0.000000000E+00  0.000000000E+00  3.408311508E+03  3.408311508E+03  0.000000000E+00  0.00000E+00  9.000E+00
      21    -1     0     0   501   502  0.000000000E+00  0.000000000E+00 -2.766901241E+02  2.766901241E+02  0.000000000E+00  0.00000E+00  9.000E+00
      25     1     1     2     0     0  3.145793393E+02  5.277295056E+02  2.109441013E+02  6.614990595E+02  1.250000000E+02  0.00000E+00  9.000E+00
      25     1     1     2     0     0 -1.709574331E+02 -2.401441617E+02  5.946985097E+02  6.754161530E+02  1.250000000E+02  0.00000E+00  9.000E+00
       2     1     1     2   501     0 -1.436219063E+02 -2.875853440E+02  2.325978773E+03  2.348086420E+03  4.315837288E-05  0.00000E+00  9.000E+00
#rwgt            1           1   3.1173578906876383E-002           2      274500           0
</event>
<event>
      5   9999  3.19816E-02  4.48397E+01 -1.00000E+00  1.41830E-01
      21    -1     0     0   502   501  0.000000000E+00  0.000000000E+00  7.549857389E+01  7.549857389E+01  0.000000000E+00  0.00000E+00  9.000E+00
      21    -1     0     0   501   511  0.000000000E+00  0.000000000E+00 -1.780825240E+03  1.780825240E+03  0.000000000E+00  0.00000E+00  9.000E+00
      25     1     1     2     0     0 -1.145156397E+02  2.508610932E+02 -1.008177238E+03  1.052659234E+03  1.250000000E+02  0.00000E+00  9.000E+00
      25     1     1     2     0     0  1.363249852E+02 -2.116826745E+02 -3.287463583E+02  4.325427428E+02  1.250000000E+02  0.00000E+00  9.000E+00
      21     1     1     2   502   511 -2.180934550E+01 -3.917841873E+01 -3.684030704E+02  3.711218376E+02  5.394796609E-06  0.00000E+00  9.000E+00
#rwgt            1           1   3.2891350484413676E-002           2      274540           0
</event>
<event>
      5   9999  3.19816E-02  5.70494E+02 -1.00000E+00  9.72515E-02
       2    -1     0     0   502     0  0.000000000E+00  0.000000000E+00  1.734973767E+03  1.734973767E+03  0.000000000E+00  0.00000E+00  9.000E+00
      21    -1     0     0   501   502  0.000000000E+00  0.000000000E+00 -8.420603211E+02  8.420603211E+02  0.000000000E+00  0.00000E+00  9.000E+00
      25     1     1     2     0     0 -2.534895028E+02 -9.022991502E+01 -6.429396565E+02  7.080923439E+02  1.250000000E+02  0.00000E+00  9.000E+00
      25     1     1     2     0     0 -3.132595553E+02  2.497055921E+01  1.494514372E+02  3.697510107E+02  1.250000000E+02  0.00000E+00  9.000E+00
       2     1     1     2   501     0  5.667490581E+02  6.525935582E+01  1.386401665E+03  1.499190733E+03  0.000000000E+00  0.00000E+00  9.000E+00
#rwgt            2          18   2.5542034737538171E-003           2      274599           0
</event>
<event>
      5   9999  3.19816E-02  1.09979E+01 -1.00000E+00  1.91100E-01
      21    -1     0     0   502   511  0.000000000E+00  0.000000000E+00  1.295598003E+03  1.295598003E+03  0.000000000E+00  0.00000E+00  9.000E+00
      21    -1     0     0   501   502  0.000000000E+00  0.000000000E+00 -2.896337997E+02  2.896337997E+02  0.000000000E+00  0.00000E+00  9.000E+00
      25     1     1     2     0     0  1.333237134E+02 -7.554989202E+01 -1.751493229E+02  2.641690445E+02  1.250000000E+02  0.00000E+00  9.000E+00
      25     1     1     2     0     0 -1.439770544E+02  7.281873300E+01  7.894001846E+01  2.188343816E+02  1.250000000E+02  0.00000E+00  9.000E+00
      21     1     1     2   501   511  1.065334098E+01  2.731159029E+00  1.102173508E+03  1.102228377E+03  0.000000000E+00  0.00000E+00  9.000E+00
#rwgt            1           1   2.6908277758647677E-002           2      274618           0
</event>
<event>
      5   9999  3.19816E-02  7.61106E+01 -1.00000E+00  1.29406E-01
      21    -1     0     0   512   501  0.000000000E+00  0.000000000E+00  1.955149632E+02  1.955149632E+02  0.000000000E+00  0.00000E+00  9.000E+00
      21    -1     0     0   501   502  0.000000000E+00  0.000000000E+00 -1.537979692E+03  1.537979692E+03  0.000000000E+00  0.00000E+00  9.000E+00
      25     1     1     2     0     0  1.068862606E+02  2.594817254E+01 -1.448358119E+03  1.457897191E+03  1.250000000E+02  0.00000E+00  9.000E+00
      25     1     1     2     0     0 -5.017561739E+01 -7.670968715E+01  1.226533219E+02  1.976633655E+02  1.250000000E+02  0.00000E+00  9.000E+00
      21     1     1     2   512   502 -5.671064322E+01  5.076151461E+01 -1.675993242E+01  7.793409880E+01  7.907449699E-07  0.00000E+00  9.000E+00
#rwgt            1           1   2.6874701441316696E-002           2      274817           0
</event>
<event>
      5   9999  3.19816E-02  1.82843E+01 -1.00000E+00  1.69648E-01
      21    -1     0     0   511   501  0.000000000E+00  0.000000000E+00  1.952449598E+03  1.952449598E+03  0.000000000E+00  0.00000E+00  9.000E+00
      21    -1     0     0   501   502  0.000000000E+00  0.000000000E+00 -3.512673435E+02  3.512673435E+02  0.000000000E+00  0.00000E+00  9.000E+00
      25     1     1     2     0     0  4.881872610E+02 -1.067972835E+02 -9.274743710E+01  5.234114525E+02  1.250000000E+02  0.00000E+00  9.000E+00
      25     1     1     2     0     0 -4.818926455E+02  8.963064127E+01  1.450189405E+03  1.535880361E+03  1.250000000E+02  0.00000E+00  9.000E+00
      21     1     1     2   511   502 -6.294615539E+00  1.716664220E+01  2.437402871E+02  2.444251283E+02  3.814697266E-06  0.00000E+00  9.000E+00
#rwgt            1           1   2.4256191959965853E-002           2      274900           0
</event>
<event>
      5   9999  3.19816E-02  2.26360E+01 -1.00000E+00  1.62051E-01
      21    -1     0     0   502   501  0.000000000E+00  0.000000000E+00  2.251067926E+03  2.251067926E+03  0.000000000E+00  0.00000E+00  9.000E+00
      21    -1     0     0   501   512  0.000000000E+00  0.000000000E+00 -4.812149065E+02  4.812149065E+02  0.000000000E+00  0.00000E+00  9.000E+00
      25     1     1     2     0     0  4.260591574E+02 -5.868142786E+02  3.273005188E+02  8.053744674E+02  1.250000000E+02  0.00000E+00  9.000E+00
      25     1     1     2     0     0 -4.035882634E+02  5.840850510E+02  1.606804879E+03  1.761103561E+03  1.250000000E+02  0.00000E+00  9.000E+00
      21     1     1     2   502   512 -2.247089394E+01  2.729227617E+00 -1.642523776E+02  1.658048048E+02  5.722045898E-06  0.00000E+00  9.000E+00
#rwgt            1           1   2.7721914009062411E-002           2      275177           0
</event>
<event>
      5   9999  3.19816E-02  4.61102E+01 -1.00000E+00  1.41112E-01
      21    -1     0     0   502   501  0.000000000E+00  0.000000000E+00  6.499785802E+01  6.499785802E+01  0.000000000E+00  0.00000E+00  9.000E+00
      21    -1     0     0   511   502  0.000000000E+00  0.000000000E+00 -9.569666528E+02  9.569666528E+02  0.000000000E+00  0.00000E+00  9.000E+00
      25     1     1     2     0     0 -4.518167509E+01  2.713767220E+01 -3.127248815E+01  1.392149616E+02  1.250000000E+02  0.00000E+00  9.000E+00
      25     1     1     2     0     0 -1.970052651E-01 -3.531861344E+01 -4.194926577E+02  4.391429530E+02  1.250000000E+02  0.00000E+00  9.000E+00
      21     1     1     2   511   501  4.537868035E+01  8.180941239E+00 -4.412036489E+02  4.436065963E+02  7.629394531E-06  0.00000E+00  9.000E+00
#rwgt            1           1   3.1149942630687558E-002           2      275387           0
</event>
<event>
      5   9999  3.19816E-02  1.59383E+01 -1.00000E+00  1.74937E-01
      21    -1     0     0   502   501  0.000000000E+00  0.000000000E+00  9.045317451E+02  9.045317451E+02  0.000000000E+00  0.00000E+00  9.000E+00
      21    -1     0     0   501   512  0.000000000E+00  0.000000000E+00 -5.968491656E+01  5.968491656E+01  0.000000000E+00  0.00000E+00  9.000E+00
      25     1     1     2     0     0 -1.859875475E+02 -4.301990657E+01  4.493141104E+02  5.039347676E+02  1.250000000E+02  0.00000E+00  9.000E+00
      25     1     1     2     0     0  1.733484283E+02  3.331003425E+01  3.835747850E+02  4.403565052E+02  1.250000000E+02  0.00000E+00  9.000E+00
      21     1     1     2   502   512  1.263911926E+01  9.709872317E+00  1.195793311E+01  1.992538884E+01  1.685873940E-07  0.00000E+00  9.000E+00
#rwgt            1           1   2.9438874709807494E-002           2      275483           0
</event>
<event>
      5   9999  3.19816E-02  6.62255E+01 -1.00000E+00  1.32452E-01
      -1    -1     0     0     0   501  0.000000000E+00  0.000000000E+00  1.831685039E+03  1.831685039E+03  0.000000000E+00  0.00000E+00  9.000E+00
      21    -1     0     0   501   502  0.000000000E+00  0.000000000E+00 -9.043249951E+02  9.043249951E+02  0.000000000E+00  0.00000E+00  9.000E+00
      25     1     1     2     0     0 -3.465057516E+02  3.367916274E+02  6.296265839E+02  8.034609333E+02  1.250000000E+02  0.00000E+00  9.000E+00
      25     1     1     2     0     0  4.126752706E+02 -3.340697374E+02 -7.252201758E+02  9.074540053E+02  1.250000000E+02  0.00000E+00  9.000E+00
      -1     1     1     2     0   502 -6.616951902E+01 -2.721890038E+00  1.022953636E+03  1.025095095E+03  1.078959322E-05  0.00000E+00  9.000E+00
#rwgt            1           1   3.0391968266887191E-002           2      275617           0
</event>
<event>
      5   9999  3.19816E-02  2.36675E+01 -1.00000E+00  1.60553E-01
      21    -1     0     0   502   501  0.000000000E+00  0.000000000E+00  9.351085718E+02  9.351085718E+02  0.000000000E+00  0.00000E+00  9.000E+00
      21    -1     0     0   501   511  0.000000000E+00  0.000000000E+00 -3.607456454E+02  3.607456454E+02  0.000000000E+00  0.00000E+00  9.000E+00
      25     1     1     2     0     0  9.067748358E+01  4.956679083E+00  5.824362988E+02  6.025811289E+02  1.250000000E+02  0.00000E+00  9.000E+00
      25     1     1     2     0     0 -9.465275202E+01  1.837461587E+01  3.239704898E+02  3.603868037E+02  1.250000000E+02  0.00000E+00  9.000E+00
      21     1     1     2   502   511  3.975268440E+00 -2.333129496E+01 -3.320438622E+02  3.328862847E+02  7.629394531E-06  0.00000E+00  9.000E+00
#rwgt            1           1   2.2789954590614142E-002           2      275714           0
</event>
<event>
      5   9999  3.19816E-02  1.31276E+02 -1.00000E+00  1.18736E-01
      21    -1     0     0   512   501  0.000000000E+00  0.000000000E+00  1.100558951E+03  1.100558951E+03  0.000000000E+00  0.00000E+00  9.000E+00
      21    -1     0     0   501   502  0.000000000E+00  0.000000000E+00 -2.819162101E+02  2.819162101E+02  0.000000000E+00  0.00000E+00  9.000E+00
      25     1     1     2     0     0  2.876204851E+02 -1.801256097E+02 -4.871386441E+01  3.649230320E+02  1.250000000E+02  0.00000E+00  9.000E+00
      25     1     1     2     0     0 -3.645145084E+02  7.372721420E+01  5.643440467E+02  6.873250556E+02  1.250000000E+02  0.00000E+00  9.000E+00
      21     1     1     2   512   502  7.689402336E+01  1.063983955E+02  3.030125591E+02  3.302270739E+02  6.607249480E-06  0.00000E+00  9.000E+00
#rwgt            1           1   3.1859469291498604E-002           2      275803           0
</event>
<event>
      5   9999  3.19816E-02  6.79232E+01 -1.00000E+00  1.31887E-01
      21    -1     0     0   502   511  0.000000000E+00  0.000000000E+00  8.225466247E+02  8.225466247E+02  0.000000000E+00  0.00000E+00  9.000E+00
      21    -1     0     0   501   502  0.000000000E+00  0.000000000E+00 -7.939767699E+01  7.939767699E+01  0.000000000E+00  0.00000E+00  9.000E+00
      25     1     1     2     0     0  4.666370492E+01  1.416523566E+02  4.539437593E+02  4.938955640E+02  1.250000000E+02  0.00000E+00  9.000E+00
      25     1     1     2     0     0 -5.565478870E+01 -7.432685804E+01  5.652347735E+01  1.656557902E+02  1.250000000E+02  0.00000E+00  9.000E+00
      21     1     1     2   501   511  8.991083784E+00 -6.732549860E+01  2.326817111E+02  2.423929475E+02  4.672030912E-06  0.00000E+00  9.000E+00
#rwgt            1           1   2.6881096508686579E-002           2      275875           0
</event>
<event>
      5   9999  3.19816E-02  5.72753E+01 -1.00000E+00  1.35791E-01
      21    -1     0     0   502   501  0.000000000E+00  0.000000000E+00  1.222506973E+03  1.222506973E+03  0.000000000E+00  0.00000E+00  9.000E+00
      21    -1     0     0   501   512  0.000000000E+00  0.000000000E+00 -7.976946364E+01  7.976946364E+01  0.000000000E+00  0.00000E+00  9.000E+00
      25     1     1     2     0     0  7.527225928E+01  3.732724225E+01  4.089078445E+01  1.560650258E+02  1.250000000E+02  0.00000E+00  9.000E+00
      25     1     1     2     0     0 -1.312752759E+02 -2.532220358E+01  1.058955824E+03  1.074656619E+03  1.250000000E+02  0.00000E+00  9.000E+00
      21     1     1     2   502   512  5.600301661E+01 -1.200503867E+01  4.289090098E+01  7.155479166E+01  1.430511475E-06  0.00000E+00  9.000E+00
#rwgt            1           1   2.9964642545594604E-002           2      275981           0
</event>
<event>
      5   9999  3.19816E-02  5.01676E+01 -1.00000E+00  1.38993E-01
      21    -1     0     0   502   501  0.000000000E+00  0.000000000E+00  1.491064513E+03  1.491064513E+03  0.000000000E+00  0.00000E+00  9.000E+00
      21    -1     0     0   511   502  0.000000000E+00  0.000000000E+00 -9.861247629E+01  9.861247629E+01  0.000000000E+00  0.00000E+00  9.000E+00
      25     1     1     2     0     0  1.511742448E+01 -2.241907665E+02  1.979363474E+02  3.244901138E+02  1.250000000E+02  0.00000E+00  9.000E+00
      25     1     1     2     0     0  1.430517649E+01  2.648244180E+02  1.175539152E+03  1.211550208E+03  1.250000000E+02  0.00000E+00  9.000E+00
      21     1     1     2   511   501 -2.942260097E+01 -4.063365147E+01  1.897653770E+01  5.363666714E+01  5.840038640E-07  0.00000E+00  9.000E+00
#rwgt            1           1   3.6119195869510019E-002           2      276045           0
</event>
<event>
      5   9999  3.19816E-02  3.35461E+01 -1.00000E+00  1.49744E-01
      21    -1     0     0   502   501  0.000000000E+00  0.000000000E+00  8.974640776E+02  8.974640776E+02  0.000000000E+00  0.00000E+00  9.000E+00
       2    -1     0     0   501     0  0.000000000E+00  0.000000000E+00 -9.754687213E+02  9.754687213E+02  0.000000000E+00  0.00000E+00  9.000E+00
      25     1     1     2     0     0 -1.481936931E+01 -1.614769361E+02  8.489040063E+02  8.732453415E+02  1.250000000E+02  0.00000E+00  9.000E+00
      25     1     1     2     0     0 -1.833466854E+01  1.563631563E+02 -2.448299169E+02  3.167842877E+02  1.250000000E+02  0.00000E+00  9.000E+00
       2     1     1     2   502     0  3.315403785E+01  5.113779800E+00 -6.820787331E+02  6.829031697E+02  1.525878906E-05  0.00000E+00  9.000E+00
#rwgt            1           1   2.8838540609778803E-002           2      276097           0
</event>
<event>
      5   9999  3.19816E-02  3.34625E+01 -1.00000E+00  1.49816E-01
      21    -1     0     0   502   501  0.000000000E+00  0.000000000E+00  1.193533676E+02  1.193533676E+02  0.000000000E+00  0.00000E+00  9.000E+00
      21    -1     0     0   501   511  0.000000000E+00  0.000000000E+00 -4.442745632E+02  4.442745632E+02  0.000000000E+00  0.00000E+00  9.000E+00
      25     1     1     2     0     0  2.549741571E+01  3.654970441E+01 -3.352920751E+02  3.605991885E+02  1.250000000E+02  0.00000E+00  9.000E+00
      25     1     1     2     0     0 -4.780682734E+01 -6.149026776E+01  4.585633220E+01  1.542541700E+02  1.250000000E+02  0.00000E+00  9.000E+00
      21     1     1     2   502   511  2.230941163E+01  2.494056335E+01 -3.548545267E+01  4.877457226E+01  0.000000000E+00  0.00000E+00  9.000E+00
#rwgt            1           1   2.4715398127129178E-002           2      276210           0
</event>
<event>
      5   9999  3.19816E-02  3.63642E+01 -1.00000E+00  1.47454E-01
      21    -1     0     0   502   501  0.000000000E+00  0.000000000E+00  1.304737057E+02  1.304737057E+02  0.000000000E+00  0.00000E+00  9.000E+00
       2    -1     0     0   501     0  0.000000000E+00  0.000000000E+00 -1.106711755E+03  1.106711755E+03  0.000000000E+00  0.00000E+00  9.000E+00
      25     1     1     2     0     0 -2.295404481E+01  7.947576436E+01  7.363750314E+01  1.670052908E+02  1.250000000E+02  0.00000E+00  9.000E+00
      25     1     1     2     0     0 -1.249037897E+01 -7.134887848E+01 -5.394324834E+02  5.584434404E+02  1.250000000E+02  0.00000E+00  9.000E+00
       2     1     1     2   502     0  3.544442378E+01 -8.126885884E+00 -5.104430687E+02  5.117367290E+02  5.394796609E-06  0.00000E+00  9.000E+00
#rwgt            1           1   2.3141142446639354E-002           2      276300           0
</event>
<event>
      5   9999  3.19816E-02  2.49080E+02 -1.00000E+00  1.08285E-01
      21    -1     0     0   511   501  0.000000000E+00  0.000000000E+00  1.723686069E+03  1.723686069E+03  0.000000000E+00  0.00000E+00  9.000E+00
      21    -1     0     0   501   502  0.000000000E+00  0.000000000E+00 -1.187261986E+02  1.187261986E+02  0.000000000E+00  0.00000E+00  9.000E+00
      25     1     1     2     0     0  9.915022101E+01  2.754008757E+02  1.001172924E+03  1.050546826E+03  1.250000000E+02  0.00000E+00  9.000E+00
      25     1     1     2     0     0  6.534320373E+01 -8.836390804E+01  3.381052237E+01  1.698412963E+02  1.250000000E+02  0.00000E+00  9.000E+00
      21     1     1     2   511   502 -1.644934247E+02 -1.870369676E+02  5.699764241E+02  6.220241459E+02  7.629394531E-06  0.00000E+00  9.000E+00
#rwgt            2          11   2.5255812302496386E-003           2      276399           0
</event>
<event>
      5   9999  3.19816E-02  7.02736E+01 -1.00000E+00  1.31135E-01
      21    -1     0     0   502   501  0.000000000E+00  0.000000000E+00  8.954860093E+02  8.954860093E+02  0.000000000E+00  0.00000E+00  9.000E+00
      21    -1     0     0   512   502  0.000000000E+00  0.000000000E+00 -8.763251630E+02  8.763251630E+02  0.000000000E+00  0.00000E+00  9.000E+00
      25     1     1     2     0     0 -1.086015476E+02 -2.222666701E+02  7.184626376E+02  7.700716398E+02  1.250000000E+02  0.00000E+00  9.000E+00
      25     1     1     2     0     0  3.939516377E+01  2.100658651E+02  4.709924358E+01  2.520376665E+02  1.250000000E+02  0.00000E+00  9.000E+00
      21     1     1     2   512   501  6.920638388E+01  1.220080497E+01 -7.464010348E+02  7.497018661E+02  1.525878906E-05  0.00000E+00  9.000E+00
#rwgt            1           1   2.7774480407415633E-002           2      276449           0
</event>
<event>
      5   9999  3.19816E-02  3.60784E+01 -1.00000E+00  1.47675E-01
      21    -1     0     0   511   501  0.000000000E+00  0.000000000E+00  5.469943576E+01  5.469943576E+01  0.000000000E+00  0.00000E+00  9.000E+00
      21    -1     0     0   501   502  0.000000000E+00  0.000000000E+00 -1.087774345E+03  1.087774345E+03  0.000000000E+00  0.00000E+00  9.000E+00
      25     1     1     2     0     0  1.605354248E+02  3.561927136E+01 -7.030099024E+02  7.327266052E+02  1.250000000E+02  0.00000E+00  9.000E+00
      25     1     1     2     0     0 -1.283827911E+02 -5.198576466E+01 -3.229562428E+02  3.729750602E+02  1.250000000E+02  0.00000E+00  9.000E+00
      21     1     1     2   511   502 -3.215263364E+01  1.636649330E+01 -7.108764258E+00  3.677211555E+01  1.140303997E-06  0.00000E+00  9.000E+00
#rwgt            1           1   2.5700734759154249E-002           2      276609           0
</event>
<event>
      5   9999  3.19816E-02  1.84977E+02 -1.00000E+00  1.12897E-01
       2    -1     0     0   502     0  0.000000000E+00  0.000000000E+00  9.489637618E+02  9.489637618E+02  0.000000000E+00  0.00000E+00  9.000E+00
      21    -1     0     0   501   502  0.000000000E+00  0.000000000E+00 -1.126727209E+03  1.126727209E+03  0.000000000E+00  0.00000E+00  9.000E+00
      25     1     1     2     0     0  1.546881998E+02 -5.621527016E+02  8.351573369E+01  6.021162486E+02  1.250000000E+02  0.00000E+00  9.000E+00
      25     1     1     2     0     0 -2.456722385E+02  4.010985977E+02 -7.819426060E+02  9.210288665E+02  1.250000000E+02  0.00000E+00  9.000E+00
       2     1     1     2   501     0  9.098403864E+01  1.610541039E+02  5.206634254E+02  5.525458554E+02  1.078959322E-05  0.00000E+00  9.000E+00
#rwgt            2          18   1.2174547927541368E-003           2      276792           0
</event>
<event>
      5   9999  3.19816E-02  1.85567E+02 -1.00000E+00  1.12845E-01
      21    -1     0     0   502   501  0.000000000E+00  0.000000000E+00  1.047578651E+03  1.047578651E+03  0.000000000E+00  0.00000E+00  9.000E+00
      -5    -1     0     0     0   502  0.000000000E+00  0.000000000E+00 -5.706817686E+02  5.706817686E+02  0.000000000E+00  0.00000E+00  9.000E+00
      25     1     1     2     0     0 -1.884481083E+02 -4.501071343E+01  4.580026530E+02  5.127670855E+02  1.250000000E+02  0.00000E+00  9.000E+00
      25     1     1     2     0     0  2.878180341E+02  2.017296542E+02  4.803112929E+02  6.081595286E+02  1.250000000E+02  0.00000E+00  9.000E+00
      -5     1     1     2     0   501 -9.936992581E+01 -1.567189407E+02 -4.614170630E+02  4.973338060E+02  9.344061824E-06  0.00000E+00  9.000E+00
#rwgt            2           6   1.0951256939300848E-004           2      276811           0
</event>
<event>
      5   9999  3.19816E-02  5.25943E+01 -1.00000E+00  1.37834E-01
      21    -1     0     0   502   511  0.000000000E+00  0.000000000E+00  2.744217807E+02  2.744217807E+02  0.000000000E+00  0.00000E+00  9.000E+00
      21    -1     0     0   501   502  0.000000000E+00  0.000000000E+00 -2.396863419E+02  2.396863419E+02  0.000000000E+00  0.00000E+00  9.000E+00
      25     1     1     2     0     0  5.673503370E+01  3.259153939E+01 -1.042223177E+02  1.754091331E+02  1.250000000E+02  0.00000E+00  9.000E+00
      25     1     1     2     0     0 -1.085269902E+02 -4.174326468E+01 -1.941522944E+01  1.718212993E+02  1.250000000E+02  0.00000E+00  9.000E+00
      21     1     1     2   501   511  5.179195654E+01  9.151725292E+00  1.583729859E+02  1.668776902E+02  0.000000000E+00  0.00000E+00  9.000E+00
#rwgt            1           1   2.4166535143490309E-002           2      276830           0
</event>
<event>
      5   9999  3.19816E-02  1.54125E+02 -1.00000E+00  1.15929E-01
      21    -1     0     0   502   501  0.000000000E+00  0.000000000E+00  1.460938579E+02  1.460938579E+02  0.000000000E+00  0.00000E+00  9.000E+00
       2    -1     0     0   501     0  0.000000000E+00  0.000000000E+00 -2.776781984E+03  2.776781984E+03  0.000000000E+00  0.00000E+00  9.000E+00
      25     1     1     2     0     0  1.420137397E+02  1.636551654E+02 -1.167888816E+03  1.194378584E+03  1.250000000E+02  0.00000E+00  9.000E+00
      25     1     1     2     0     0 -2.796991100E+02 -2.329179918E+02 -1.602780530E+02  4.168889988E+02  1.250000000E+02  0.00000E+00  9.000E+00
       2     1     1     2   502     0  1.376853703E+02  6.926282639E+01 -1.302521257E+03  1.311608259E+03  1.525878906E-05  0.00000E+00  9.000E+00
#rwgt            1           1   2.8034518761347139E-002           2      276904           0
</event>
<event>
      5   9999  3.19816E-02  2.05425E+01 -1.00000E+00  1.65416E-01
      21    -1     0     0   502   511  0.000000000E+00  0.000000000E+00  1.152535955E+03  1.152535955E+03  0.000000000E+00  0.00000E+00  9.000E+00
      21    -1     0     0   501   502  0.000000000E+00  0.000000000E+00 -3.153397426E+01  3.153397426E+01  0.000000000E+00  0.00000E+00  9.000E+00
      25     1     1     2     0     0  4.668711106E+01  4.161287354E+01  7.948698102E+02  8.070652592E+02  1.250000000E+02  0.00000E+00  9.000E+00
      25     1     1     2     0     0 -3.628428835E+01 -5.932658491E+01  1.823382074E+02  2.317507608E+02  1.250000000E+02  0.00000E+00  9.000E+00
      21     1     1     2   501   511 -1.040282270E+01  1.771371136E+01  1.437939631E+02  1.452539091E+02  1.907348633E-06  0.00000E+00  9.000E+00
#rwgt            1           1   3.8703850225857928E-002           2      276962           0
</event>
<event>
      5   9999  3.19816E-02  4.14260E+01 -1.00000E+00  1.43903E-01
      21    -1     0     0   502   501  0.000000000E+00  0.000000000E+00  4.974885893E+02  4.974885893E+02  0.000000000E+00  0.00000E+00  9.000E+00
      21    -1     0     0   501   512  0.000000000E+00  0.000000000E+00 -1.866464825E+02  1.866464825E+02  0.000000000E+00  0.00000E+00  9.000E+00
      25     1     1     2     0     0 -8.825265254E+01 -9.566659168E+01  2.609421956E+02  3.172640177E+02  1.250000000E+02  0.00000E+00  9.000E+00
      25     1     1     2     0     0  7.784891755E+01  1.357649494E+02  1.554131582E+02  2.535169130E+02  1.250000000E+02  0.00000E+00  9.000E+00
      21     1     1     2   502   512  1.040373499E+01 -4.009835770E+01 -1.055132471E+02  1.133541411E+02  0.000000000E+00  0.00000E+00  9.000E+00
#rwgt            1           1   3.1457291219982399E-002           2      277109           0
</event>
<event>
      5   9999  3.19816E-02  3.58131E+01 -1.00000E+00  1.47882E-01
      21    -1     0     0   511   501  0.000000000E+00  0.000000000E+00  9.889750653E+01  9.889750653E+01  0.000000000E+00  0.00000E+00  9.000E+00
      21    -1     0     0   501   502  0.000000000E+00  0.000000000E+00 -9.291104520E+02  9.291104520E+02  0.000000000E+00  0.00000E+00  9.000E+00
      25     1     1     2     0     0  1.330906629E+02  1.739376759E+02 -3.463905894E+02  4.284610602E+02  1.250000000E+02  0.00000E+00  9.000E+00
      25     1     1     2     0     0 -1.008250233E+02 -1.894781622E+02 -5.014777994E+02  5.596183008E+02  1.250000000E+02  0.00000E+00  9.000E+00
      21     1     1     2   511   502 -3.226563961E+01  1.554048635E+01  1.765544343E+01  3.992859750E+01  1.390207266E-06  0.00000E+00  9.000E+00
#rwgt            1           1   2.8795410734114346E-002           2      277215           0
</event>
<event>
      5   9999  3.19816E-02  5.34685E+01 -1.00000E+00  1.37434E-01
      21    -1     0     0   502   512  0.000000000E+00  0.000000000E+00  2.423489228E+02  2.423489228E+02  0.000000000E+00  0.00000E+00  9.000E+00
      21    -1     0     0   501   502  0.000000000E+00  0.000000000E+00 -1.560130193E+03  1.560130193E+03  0.000000000E+00  0.00000E+00  9.000E+00
      25     1     1     2     0     0 -4.340663236E+02 -5.134802755E+01 -1.208072949E+03  1.290780943E+03  1.250000000E+02  0.00000E+00  9.000E+00
      25     1     1     2     0     0  4.266024225E+02 -1.596973025E+00 -1.110895512E+02  4.582118130E+02  1.250000000E+02  0.00000E+00  9.000E+00
      21     1     1     2   501   512  7.463901162E+00  5.294500057E+01  1.381229581E+00  5.348635996E+01  5.930587274E-07  0.00000E+00  9.000E+00
#rwgt            1           1   2.5128049945097264E-002           2      277281           0
</event>
<event>
      5   9999  3.19816E-02  1.07177E+02 -1.00000E+00  1.22489E-01
      21    -1     0     0   502   511  0.000000000E+00  0.000000000E+00  1.125045071E+03  1.125045071E+03  0.000000000E+00  0.00000E+00  9.000E+00
      21    -1     0     0   501   502  0.000000000E+00  0.000000000E+00 -3.454963349E+02  3.454963349E+02  0.000000000E+00  0.00000E+00  9.000E+00
      25     1     1     2     0     0  2.927980850E+01 -5.784886070E-01 -3.096138724E+02  3.351766576E+02  1.250000000E+02  0.00000E+00  9.000E+00
      25     1     1     2     0     0  3.063850051E+01  8.944193977E+01  9.323115068E+02  9.453932113E+02  1.250000000E+02  0.00000E+00  9.000E+00
      21     1     1     2   501   511 -5.991830902E+01 -8.886345116E+01  1.568511012E+02  1.899715365E+02  1.907348633E-06  0.00000E+00  9.000E+00
#rwgt            1           1   2.8844913674188861E-002           2      277437           0
</event>
<event>
      5   9999  3.19816E-02  1.19659E+01 -1.00000E+00  1.87158E-01
      21    -1     0     0   502   512  0.000000000E+00  0.000000000E+00  3.741372239E+02  3.741372239E+02  0.000000000E+00  0.00000E+00  9.000E+00
      21    -1     0     0   501   502  0.000000000E+00  0.000000000E+00 -7.723360526E+02  7.723360526E+02  0.000000000E+00  0.00000E+00  9.000E+00
      25     1     1     2     0     0 -2.536033813E+02 -6.740382144E+01 -3.324305676E+02  4.415801541E+02  1.250000000E+02  0.00000E+00  9.000E+00
      25     1     1     2     0     0  2.444401520E+02  7.509921507E+01 -3.326157533E+02  4.377774770E+02  1.250000000E+02  0.00000E+00  9.000E+00
      21     1     1     2   501   512  9.163229393E+00 -7.695393623E+00  2.668474923E+02  2.671156454E+02  7.629394531E-06  0.00000E+00  9.000E+00
#rwgt            1           1   2.6822831404943934E-002           2      277556           0
</event>
<event>
      5   9999  3.19816E-02  9.43933E+01 -1.00000E+00  1.24966E-01
      21    -1     0     0   511   501  0.000000000E+00  0.000000000E+00  1.207777847E+02  1.207777847E+02  0.000000000E+00  0.00000E+00  9.000E+00
      21    -1     0     0   501   502  0.000000000E+00  0.000000000E+00 -8.912054560E+02  8.912054560E+02  0.000000000E+00  0.00000E+00  9.000E+00
      25     1     1     2     0     0 -1.213985399E+02 -7.225920457E+01 -1.227444344E+02  2.250559804E+02  1.250000000E+02  0.00000E+00  9.000E+00
      25     1     1     2     0     0  2.152052084E+02  6.175169680E+01 -6.431984407E+02  6.924274604E+02  1.250000000E+02  0.00000E+00  9.000E+00
      21     1     1     2   511   502 -9.380666855E+01  1.050750777E+01 -4.484796287E+00  9.449979990E+01  2.239739207E-06  0.00000E+00  9.000E+00
#rwgt            1           1   2.8507902545537200E-002           2      277776           0
</event>
<event>
      5   9999  3.19816E-02  2.32196E+01 -1.00000E+00  1.61192E-01
      21    -1     0     0   502   501  0.000000000E+00  0.000000000E+00  7.313664055E+02  7.313664055E+02  0.000000000E+00  0.00000E+00  9.000E+00
       2    -1     0     0   501     0  0.000000000E+00  0.000000000E+00 -8.788192107E+02  8.788192107E+02  0.000000000E+00  0.00000E+00  9.000E+00
      25     1     1     2     0     0  7.841235636E+01 -1.012218318E+02  6.182273076E+02  6.436026419E+02  1.250000000E+02  0.00000E+00  9.000E+00
      25     1     1     2     0     0 -9.294589847E+01  1.193305755E+02  4.282437365E+00  1.962703889E+02  1.250000000E+02  0.00000E+00  9.000E+00
       2     1     1     2   502     0  1.453354211E+01 -1.810874368E+01 -7.699625502E+02  7.703125854E+02  1.078959322E-05  0.00000E+00  9.000E+00
#rwgt            1           1   2.8064770122926592E-002           2      277862           0
</event>
<event>
      5   9999  3.19816E-02  3.62467E+01 -1.00000E+00  1.47545E-01
      21    -1     0     0   502   501  0.000000000E+00  0.000000000E+00  4.044132013E+02  4.044132013E+02  0.000000000E+00  0.00000E+00  9.000E+00
      21    -1     0     0   501   511  0.000000000E+00  0.000000000E+00 -3.729582481E+02  3.729582481E+02  0.000000000E+00  0.00000E+00  9.000E+00
      25     1     1     2     0     0  2.116954010E+01 -1.493768753E+02  1.192570475E+02  2.293661782E+02  1.250000000E+02  0.00000E+00  9.000E+00
      25     1     1     2     0     0 -4.682191825E+01  1.237687158E+02  1.927508699E+02  2.651205101E+02  1.250000000E+02  0.00000E+00  9.000E+00
      21     1     1     2   502   511  2.565237815E+01  2.560815958E+01 -2.805529642E+02  2.828847611E+02  3.814697266E-06  0.00000E+00  9.000E+00
#rwgt            1           1   3.2581564083425427E-002           2      278067           0
</event>
<event>
      5   9999  3.19816E-02  4.50040E+01 -1.00000E+00  1.41735E-01
      21    -1     0     0   502   512  0.000000000E+00  0.000000000E+00  9.334565842E+02  9.334565842E+02  0.000000000E+00  0.00000E+00  9.000E+00
      21    -1     0     0   501   502  0.000000000E+00  0.000000000E+00 -1.646677911E+03  1.646677911E+03  0.000000000E+00  0.00000E+00  9.000E+00
      25     1     1     2     0     0 -5.716998383E+02 -8.652474380E+02  2.782131921E+02  1.080981690E+03  1.250000000E+02  0.00000E+00  9.000E+00
      25     1     1     2     0     0  6.161647791E+02  8.583028945E+02 -9.912516576E+02  1.454148460E+03  1.250000000E+02  0.00000E+00  9.000E+00
      21     1     1     2   501   512 -4.446494079E+01  6.944543518E+00 -1.828609726E-01  4.500434515E+01  1.422224408E-06  0.00000E+00  9.000E+00
#rwgt            1           1   5.3996280645507530E-002           2      278137           0
</event>
<event>
      5   9999  3.19816E-02  3.86149E+01 -1.00000E+00  1.45796E-01
      21    -1     0     0   502   501  0.000000000E+00  0.000000000E+00  1.991740629E+02  1.991740629E+02  0.000000000E+00  0.00000E+00  9.000E+00
       2    -1     0     0   501     0  0.000000000E+00  0.000000000E+00 -2.625152672E+03  2.625152672E+03  0.000000000E+00  0.00000E+00  9.000E+00
      25     1     1     2     0     0  1.836385529E+02  3.044838843E+02 -1.104736829E+02  3.927632729E+02  1.250000000E+02  0.00000E+00  9.000E+00
      25     1     1     2     0     0 -1.850335579E+02 -2.658942048E+02 -4.633818838E+02  5.790379227E+02  1.250000000E+02  0.00000E+00  9.000E+00
       2     1     1     2   502     0  1.395005009E+00 -3.858967948E+01 -1.852123042E+03  1.852525539E+03  2.157918644E-05  0.00000E+00  9.000E+00
#rwgt            1           1   2.8580722959655126E-002           2      278309           0
</event>
<event>
      5   9999  3.19816E-02  1.34333E+01 -1.00000E+00  1.82019E-01
      21    -1     0     0   502   501  0.000000000E+00  0.000000000E+00  7.864834035E+02  7.864834035E+02  0.000000000E+00  0.00000E+00  9.000E+00
      21    -1     0     0   501   511  0.000000000E+00  0.000000000E+00 -1.221893001E+03  1.221893001E+03  0.000000000E+00  0.00000E+00  9.000E+00
      25     1     1     2     0     0 -4.097538079E+02 -8.523692193E+02 -2.212126185E+02  9.792811096E+02  1.250000000E+02  0.00000E+00  9.000E+00
      25     1     1     2     0     0  4.106856308E+02  8.389682589E+02 -1.388899425E+02  9.525995186E+02  1.250000000E+02  0.00000E+00  9.000E+00
      21     1     1     2   502   511 -9.318229371E-01  1.340096039E+01 -7.530703599E+01  7.649577572E+01  0.000000000E+00  0.00000E+00  9.000E+00
#rwgt            1           1   2.0712646402606685E-002           2      278433           0
</event>
<event>
      5   9999  3.19816E-02  1.94661E+01 -1.00000E+00  1.67345E-01
      21    -1     0     0   502   501  0.000000000E+00  0.000000000E+00  8.697000020E+02  8.697000020E+02  0.000000000E+00  0.00000E+00  9.000E+00
      21    -1     0     0   501   512  0.000000000E+00  0.000000000E+00 -5.048188275E+01  5.048188275E+01  0.000000000E+00  0.00000E+00  9.000E+00
      25     1     1     2     0     0 -6.777376089E+01  1.236923666E+02  5.731224991E+02  6.033137519E+02  1.250000000E+02  0.00000E+00  9.000E+00
      25     1     1     2     0     0  6.376106970E+01 -1.046443359E+02  2.387884674E+02  2.960757390E+02  1.250000000E+02  0.00000E+00  9.000E+00
      21     1     1     2   502   512  4.012691188E+00 -1.904803066E+01  7.307152724E+00  2.079239388E+01  4.380028980E-07  0.00000E+00  9.000E+00
#rwgt            1           1   3.2108951439790354E-002           2      278739           0
</event>
<event>
      5   9999  3.92336E-02  1.45668E+02 -1.00000E+00  1.16900E-01
      21    -1     0     0   502   501  0.000000000E+00  0.000000000E+00  5.251883574E+02  5.251883574E+02  0.000000000E+00  0.00000E+00  9.000E+00
      21    -1     0     0   501   511  0.000000000E+00  0.000000000E+00 -9.102526052E+02  9.102526052E+02  0.000000000E+00  0.00000E+00  9.000E+00
      25     1     1     2     0     0  3.082453898E+01  8.290264112E+01  4.462878455E+02  4.718271306E+02  1.250000000E+02  0.00000E+00  9.000E+00
      25     1     1     2     0     0 -1.576896086E+02 -1.544870482E+02 -2.220469677E+02  3.371381268E+02  1.250000000E+02  0.00000E+00  9.000E+00
      21     1     1     2   502   511  1.268650696E+02  7.158440707E+01 -6.093051256E+02  6.264757053E+02  0.000000000E+00  0.00000E+00  9.000E+00
#rwgt            1           1   3.7422196692074382E-002           2      278831           0
</event>
<event>
      5   9999  3.19816E-02  4.78692E+01 -1.00000E+00  1.40163E-01
      21    -1     0     0   512   501  0.000000000E+00  0.000000000E+00  3.784937330E+02  3.784937330E+02  0.000000000E+00  0.00000E+00  9.000E+00
      21    -1     0     0   501   502  0.000000000E+00  0.000000000E+00 -2.664788937E+02  2.664788937E+02  0.000000000E+00  0.00000E+00  9.000E+00
      25     1     1     2     0     0  4.264636362E+01  1.585399094E+02  1.929163749E+02  2.824806948E+02  1.250000000E+02  0.00000E+00  9.000E+00
      25     1     1     2     0     0 -4.917614901E+01 -2.059616759E+02 -1.427167335E+02  2.843089368E+02  1.250000000E+02  0.00000E+00  9.000E+00
      21     1     1     2   512   502  6.529785391E+00  4.742176650E+01  6.181519788E+01  7.818299511E+01  6.743495762E-07  0.00000E+00  9.000E+00
#rwgt            1           1   3.1432325047302472E-002           2      278883           0
</event>
<event>
      5   9999  3.19816E-02  1.14260E+01 -1.00000E+00  1.89294E-01
      21    -1     0     0   502   501  0.000000000E+00  0.000000000E+00  5.751545024E+02  5.751545024E+02  0.000000000E+00  0.00000E+00  9.000E+00
       1    -1     0     0   501     0  0.000000000E+00  0.000000000E+00 -1.224168275E+03  1.224168275E+03  0.000000000E+00  0.00000E+00  9.000E+00
      25     1     1     2     0     0 -2.705213960E+01 -4.270550142E+02  2.926355084E+02  5.332619846E+02  1.250000000E+02  0.00000E+00  9.000E+00
      25     1     1     2     0     0  3.054214538E+01  4.379349694E+02 -1.590305244E+02  4.833586327E+02  1.250000000E+02  0.00000E+00  9.000E+00
       1     1     1     2   502     0 -3.490005780E+00 -1.087995518E+01 -7.826187561E+02  7.827021598E+02  1.078959322E-05  0.00000E+00  9.000E+00
#rwgt            1           1   2.5947017524244588E-002           2      278937           0
</event>
<event>
      5   9999  3.19816E-02  9.22668E+01 -1.00000E+00  1.25421E-01
      21    -1     0     0   502   501  0.000000000E+00  0.000000000E+00  2.032975582E+02  2.032975582E+02  0.000000000E+00  0.00000E+00  9.000E+00
       2    -1     0     0   501     0  0.000000000E+00  0.000000000E+00 -1.809972140E+03  1.809972140E+03  0.000000000E+00  0.00000E+00  9.000E+00
      25     1     1     2     0     0 -3.370730341E+02  3.044015045E+02 -1.941554402E+02  5.095094123E+02  1.250000000E+02  0.00000E+00  9.000E+00
      25     1     1     2     0     0  2.706544974E+02 -2.403566662E+02 -8.313220340E+02  9.152849328E+02  1.250000000E+02  0.00000E+00  9.000E+00
       2     1     1     2   502     0  6.641853677E+01 -6.404483830E+01 -5.811971075E+02  5.884753531E+02  7.629394531E-06  0.00000E+00  9.000E+00
#rwgt            1           1   2.9741832977004581E-002           2      279120           0
</event>
<event>
      5   9999  3.19816E-02  1.75058E+02 -1.00000E+00  1.13795E-01
      21    -1     0     0   502   501  0.000000000E+00  0.000000000E+00  1.573469875E+03  1.573469875E+03  0.000000000E+00  0.00000E+00  9.000E+00
      21    -1     0     0   501   511  0.000000000E+00  0.000000000E+00 -5.369750026E+01  5.369750026E+01  0.000000000E+00  0.00000E+00  9.000E+00
      25     1     1     2     0     0  1.054191079E+02  6.841542892E+01  6.093393429E+02  6.345969540E+02  1.250000000E+02  0.00000E+00  9.000E+00
      25     1     1     2     0     0  6.657903060E+01 -3.582794709E+01  7.168029587E+02  7.315380310E+02  1.250000000E+02  0.00000E+00  9.000E+00
      21     1     1     2   502   511 -1.719981385E+02 -3.258748183E+01  1.936300734E+02  2.610323906E+02  3.814697266E-06  0.00000E+00  9.000E+00
#rwgt            1           1   2.7274346587480271E-002           2      279264           0
</event>
<event>
      5   9999  3.19816E-02  1.16983E+02 -1.00000E+00  1.20840E-01
      21    -1     0     0   512   501  0.000000000E+00  0.000000000E+00  8.666020691E+02  8.666020691E+02  0.000000000E+00  0.00000E+00  9.000E+00
      21    -1     0     0   501   502  0.000000000E+00  0.000000000E+00 -1.024519302E+03  1.024519302E+03  0.000000000E+00  0.00000E+00  9.000E+00
      25     1     1     2     0     0 -4.175804476E+02  9.564898346E+01 -8.478658734E+02  9.581355319E+02  1.250000000E+02  0.00000E+00  9.000E+00
      25     1     1     2     0     0  3.781656106E+02 -2.057917556E+02  6.814495481E+02  8.156947727E+02  1.250000000E+02  0.00000E+00  9.000E+00
      21     1     1     2   512   502  3.941483698E+01  1.101427721E+02  8.499092789E+00  1.172910662E+02  2.098896129E-06  0.00000E+00  9.000E+00
#rwgt            1           1   3.3157922705964432E-002           2      279294           0
</event>
<event>
      5   9999  3.19816E-02  9.36013E+01 -1.00000E+00  1.25134E-01
      21    -1     0     0   502   501  0.000000000E+00  0.000000000E+00  3.006149222E+02  3.006149222E+02  0.000000000E+00  0.00000E+00  9.000E+00
      21    -1     0     0   501   511  0.000000000E+00  0.000000000E+00 -1.157884560E+03  1.157884560E+03  0.000000000E+00  0.00000E+00  9.000E+00
      25     1     1     2     0     0  1.500235412E+02  2.971409078E+02 -6.580165893E+02  7.479375735E+02  1.250000000E+02  0.00000E+00  9.000E+00
      25     1     1     2     0     0 -5.953484046E+01 -3.210781611E+02  1.263392284E+02  3.717824409E+02  1.250000000E+02  0.00000E+00  9.000E+00
      21     1     1     2   502   511 -9.048870075E+01  2.393725325E+01 -3.255922773E+02  3.387794682E+02  3.814697266E-06  0.00000E+00  9.000E+00
#rwgt            1           1   2.7564779539628031E-002           2      279379           0
</event>
<event>
      5   9999  3.19816E-02  6.90119E+01 -1.00000E+00  1.31534E-01
      21    -1     0     0   502   501  0.000000000E+00  0.000000000E+00  2.212693142E+02  2.212693142E+02  0.000000000E+00  0.00000E+00  9.000E+00
      -3    -1     0     0     0   502  0.000000000E+00  0.000000000E+00 -9.183210413E+02  9.183210413E+02  0.000000000E+00  0.00000E+00  9.000E+00
      25     1     1     2     0     0  1.058384790E+02 -9.802416375E+00  1.707688067E+02  2.368224152E+02  1.250000000E+02  0.00000E+00  9.000E+00
      25     1     1     2     0     0 -1.081122933E+02 -5.917200719E+01 -6.912281730E+02  7.131696724E+02  1.250000000E+02  0.00000E+00  9.000E+00
      -3     1     1     2     0   501  2.273814237E+00  6.897442357E+01 -1.765923607E+02  1.895982679E+02  2.697398305E-06  0.00000E+00  9.000E+00
#rwgt            1           1   2.9039439849761168E-002           2      279505           0
</event>
<event>
      5   9999  3.19816E-02  2.12425E+02 -1.00000E+00  1.10703E-01
      21    -1     0     0   502   511  0.000000000E+00  0.000000000E+00  1.891629225E+02  1.891629225E+02  0.000000000E+00  0.00000E+00  9.000E+00
      21    -1     0     0   501   502  0.000000000E+00  0.000000000E+00 -1.195905826E+03  1.195905826E+03  0.000000000E+00  0.00000E+00  9.000E+00
      25     1     1     2     0     0 -1.315499380E+02 -1.758405773E+02 -4.310475741E+02  4.996521850E+02  1.250000000E+02  0.00000E+00  9.000E+00
      25     1     1     2     0     0  1.985333840E+02 -2.574680220E+01 -6.243680845E+02  6.674870091E+02  1.250000000E+02  0.00000E+00  9.000E+00
      21     1     1     2   501   511 -6.698344596E+01  2.015873795E+02  4.867275511E+01  2.179295544E+02  4.473129043E-06  0.00000E+00  9.000E+00
#rwgt            1           1   3.1489776305328891E-002           2      279598           0
</event>
<event>
      5   9999  3.19816E-02  1.33899E+02 -1.00000E+00  1.18382E-01
      21    -1     0     0   502   501  0.000000000E+00  0.000000000E+00  2.211574683E+02  2.211574683E+02  0.000000000E+00  0.00000E+00  9.000E+00
      21    -1     0     0   512   502  0.000000000E+00  0.000000000E+00 -2.330768366E+02  2.330768366E+02  0.000000000E+00  0.00000E+00  9.000E+00
      25     1     1     2     0     0  1.155582239E+02  3.347889362E+01  1.792347389E+01  1.744155680E+02  1.250000000E+02  0.00000E+00  9.000E+00
      25     1     1     2     0     0 -2.683634501E+01  6.680795359E+01 -1.229560940E+01  1.447745630E+02  1.250000000E+02  0.00000E+00  9.000E+00
      21     1     1     2   512   501 -8.872187892E+01 -1.002868472E+02 -1.754723275E+01  1.350441739E+02  1.305872339E-06  0.00000E+00  9.000E+00
#rwgt            1           1   2.9882960994894979E-002           2      279634           0
</event>
<event>
      5   9999  3.19816E-02  1.58799E+02 -1.00000E+00  1.15421E-01
      21    -1     0     0   502   501  0.000000000E+00  0.000000000E+00  3.449532739E+02  3.449532739E+02  0.000000000E+00  0.00000E+00  9.000E+00
       1    -1     0     0   501     0  0.000000000E+00  0.000000000E+00 -1.067839148E+03  1.067839148E+03  0.000000000E+00  0.00000E+00  9.000E+00
      25     1     1     2     0     0  3.872370362E+02 -2.056854807E+02  6.049041640E-01  4.559434231E+02  1.250000000E+02  0.00000E+00  9.000E+00
      25     1     1     2     0     0 -2.458169901E+02  2.779169342E+02 -2.679733579E+02  4.744455032E+02  1.250000000E+02  0.00000E+00  9.000E+00
       1     1     1     2   502     0 -1.414200461E+02 -7.223145344E+01 -4.555174205E+02  4.824034957E+02  9.344061824E-06  0.00000E+00  9.000E+00
#rwgt            1           1   2.5366036851702866E-002           2      279670           0
</event>
<event>
      5   9999  3.19816E-02  9.78985E+01 -1.00000E+00  1.24244E-01
      21    -1     0     0   502   501  0.000000000E+00  0.000000000E+00  8.145869251E+02  8.145869251E+02  0.000000000E+00  0.00000E+00  9.000E+00
      21    -1     0     0   511   502  0.000000000E+00  0.000000000E+00 -1.042828985E+03  1.042828985E+03  0.000000000E+00  0.00000E+00  9.000E+00
      25     1     1     2     0     0  4.789171063E+02  2.484523135E+02  3.570184567E+02  6.589213346E+02  1.250000000E+02  0.00000E+00  9.000E+00
      25     1     1     2     0     0 -4.306794695E+02 -3.336418131E+02  4.492153689E+01  5.607536084E+02  1.250000000E+02  0.00000E+00  9.000E+00
      21     1     1     2   511   501 -4.823763687E+01  8.518949961E+01 -6.301820531E+02  6.377409666E+02  7.629394531E-06  0.00000E+00  9.000E+00
#rwgt            1           1   1.8951852570770842E-002           2      279765           0
</event>
<event>
      5   9999  3.19816E-02  1.70358E+02 -1.00000E+00  1.14244E-01
      21    -1     0     0   502   512  0.000000000E+00  0.000000000E+00  1.975298870E+03  1.975298870E+03  0.000000000E+00  0.00000E+00  9.000E+00
      21    -1     0     0   501   502  0.000000000E+00  0.000000000E+00 -8.834615520E+02  8.834615520E+02  0.000000000E+00  0.00000E+00  9.000E+00
      25     1     1     2     0     0 -3.827806400E+02  9.406369681E+01 -7.228195149E+02  8.327436872E+02  1.250000000E+02  0.00000E+00  9.000E+00
      25     1     1     2     0     0  5.451869429E+02 -1.455045794E+02  7.450802868E+02  9.429581216E+02  1.250000000E+02  0.00000E+00  9.000E+00
      21     1     1     2   501   512 -1.624063029E+02  5.144088258E+01  1.069576546E+03  1.083058614E+03  0.000000000E+00  0.00000E+00  9.000E+00
#rwgt            1           1   2.1678438896144195E-002           2      279850           0
</event>
<event>
      5   9999  3.19816E-02  2.89065E+01 -1.00000E+00  1.54168E-01
      21    -1     0     0   502   501  0.000000000E+00  0.000000000E+00  9.327120501E+01  9.327120501E+01  0.000000000E+00  0.00000E+00  9.000E+00
       2    -1     0     0   501     0  0.000000000E+00  0.000000000E+00 -8.307528370E+02  8.307528370E+02  0.000000000E+00  0.00000E+00  9.000E+00
      25     1     1     2     0     0 -1.025748852E+02 -1.616703493E+02 -2.050103523E+02  3.071044667E+02  1.250000000E+02  0.00000E+00  9.000E+00
      25     1     1     2     0     0  9.022012087E+01  1.878035709E+02 -3.164254783E+02  3.989485365E+02  1.250000000E+02  0.00000E+00  9.000E+00
       2     1     1     2   502     0  1.235476431E+01 -2.613322159E+01 -2.160458014E+02  2.179710388E+02  2.697398305E-06  0.00000E+00  9.000E+00
#rwgt            1           1   2.6475937838407557E-002           2      279932           0
</event>
<event>
      5   9999  3.19816E-02  8.38851E+01 -1.00000E+00  1.27361E-01
      21    -1     0     0   502   501  0.000000000E+00  0.000000000E+00  5.362189398E+02  5.362189398E+02  0.000000000E+00  0.00000E+00  9.000E+00
      21    -1     0     0   511   502  0.000000000E+00  0.000000000E+00 -9.565141742E+02  9.565141742E+02  0.000000000E+00  0.00000E+00  9.000E+00
      25     1     1     2     0     0  2.029556915E+02  4.869313695E+02  2.473088125E+02  5.958857442E+02  1.250000000E+02  0.00000E+00  9.000E+00
      25     1     1     2     0     0 -2.566299684E+02 -4.224660445E+02 -5.280981129E+02  7.340634280E+02  1.250000000E+02  0.00000E+00  9.000E+00
      21     1     1     2   511   501  5.367427688E+01 -6.446532504E+01 -1.395059339E+02  1.627839418E+02  2.697398305E-06  0.00000E+00  9.000E+00
#rwgt            1           1   3.0388708481334480E-002           2      280043           0
</event>
<event>
      5   9999  3.19816E-02  2.70256E+02 -1.00000E+00  1.07087E-01
      21    -1     0     0   502   501  0.000000000E+00  0.000000000E+00  3.028563235E+02  3.028563235E+02  0.000000000E+00  0.00000E+00  9.000E+00
      21    -1     0     0   512   502  0.000000000E+00  0.000000000E+00 -2.250855189E+03  2.250855189E+03  0.000000000E+00  0.00000E+00  9.000E+00
      25     1     1     2     0     0 -5.064353206E+01 -9.881940621E+01  2.423096597E+02  2.943960149E+02  1.250000000E+02  0.00000E+00  9.000E+00
      25     1     1     2     0     0 -1.146869802E+02 -1.149657716E+02 -4.073672190E+02  4.560079858E+02  1.250000000E+02  0.00000E+00  9.000E+00
      21     1     1     2   512   501  1.653305122E+02  2.137851778E+02 -1.782941306E+03  1.803307512E+03  3.737624730E-05  0.00000E+00  9.000E+00
#rwgt            2          11   1.3682347714116421E-003           2      280254           0
</event>
<event>
      5   9999  3.19816E-02  6.41070E+01 -1.00000E+00  1.33185E-01
      21    -1     0     0   502   501  0.000000000E+00  0.000000000E+00  7.835876571E+02  7.835876571E+02  0.000000000E+00  0.00000E+00  9.000E+00
      21    -1     0     0   511   502  0.000000000E+00  0.000000000E+00 -1.924513159E+02  1.924513159E+02  0.000000000E+00  0.00000E+00  9.000E+00
      25     1     1     2     0     0 -2.167531596E+02 -2.043417178E+02  2.036709451E+02  3.818956974E+02  1.250000000E+02  0.00000E+00  9.000E+00
      25     1     1     2     0     0  2.167801653E+02  2.684487281E+02  3.821253199E+02  5.298142314E+02  1.250000000E+02  0.00000E+00  9.000E+00
      21     1     1     2   511   501 -2.700576993E-02 -6.410701031E+01  5.340076200E+00  6.432904409E+01  1.379947293E-06  0.00000E+00  9.000E+00
#rwgt            1           1   2.5819482504308849E-002           2      280334           0
</event>
<event>
      5   9999  3.19816E-02  1.40576E+02 -1.00000E+00  1.17521E-01
      21    -1     0     0   502   501  0.000000000E+00  0.000000000E+00  1.975812063E+02  1.975812063E+02  0.000000000E+00  0.00000E+00  9.000E+00
      21    -1     0     0   512   502  0.000000000E+00  0.000000000E+00 -4.828123694E+02  4.828123694E+02  0.000000000E+00  0.00000E+00  9.000E+00
      25     1     1     2     0     0  1.133971081E+01  1.725181714E+02 -2.168476881E+01  2.144442531E+02  1.250000000E+02  0.00000E+00  9.000E+00
      25     1     1     2     0     0  1.289910894E+02 -1.642162967E+02 -1.580480374E+02  2.901893785E+02  1.250000000E+02  0.00000E+00  9.000E+00
      21     1     1     2   512   501 -1.403308002E+02 -8.301874666E+00 -1.054983568E+02  1.757599440E+02  1.907348633E-06  0.00000E+00  9.000E+00
#rwgt            1           1   3.0730829531237625E-002           2      280444           0
</event>
<event>
      5   9999  3.19816E-02  7.14076E+01 -1.00000E+00  1.30784E-01
      21    -1     0     0   502   501  0.000000000E+00  0.000000000E+00  6.225436694E+02  6.225436694E+02  0.000000000E+00  0.00000E+00  9.000E+00
      21    -1     0     0   511   502  0.000000000E+00  0.000000000E+00 -5.308260651E+02  5.308260651E+02  0.000000000E+00  0.00000E+00  9.000E+00
      25     1     1     2     0     0  7.249510796E+01  1.068681499E+02 -4.671246825E+02  5.005065546E+02  1.250000000E+02  0.00000E+00  9.000E+00
      25     1     1     2     0     0 -4.643233917E+00 -8.461578998E+01  5.614523633E+02  5.814079014E+02  1.250000000E+02  0.00000E+00  9.000E+00
      21     1     1     2   511   501 -6.785187404E+01 -2.225235991E+01 -2.610076434E+00  7.145527854E+01  2.889442359E-07  0.00000E+00  9.000E+00
#rwgt            1           1   3.2308877127398897E-002           2      280474           0
</event>
<event>
      5   9999  3.19816E-02  1.16265E+01 -1.00000E+00  1.88484E-01
      21    -1     0     0   502   501  0.000000000E+00  0.000000000E+00  2.713311964E+02  2.713311964E+02  0.000000000E+00  0.00000E+00  9.000E+00
      21    -1     0     0   512   502  0.000000000E+00  0.000000000E+00 -2.974954533E+02  2.974954533E+02  0.000000000E+00  0.00000E+00  9.000E+00
      25     1     1     2     0     0 -6.326374633E+01 -1.482820041E+02  1.808939442E+02  2.726489930E+02  1.250000000E+02  0.00000E+00  9.000E+00
      25     1     1     2     0     0  5.175628321E+01  1.466227554E+02 -1.897762556E+02  2.753488196E+02  1.250000000E+02  0.00000E+00  9.000E+00
      21     1     1     2   512   501  1.150746313E+01  1.659248697E+00 -1.728194549E+01  2.082883707E+01  0.000000000E+00  0.00000E+00  9.000E+00
#rwgt            1           1   2.9704817539155257E-002           2      280526           0
</event>
<event>
      5   9999  3.19816E-02  3.20974E+01 -1.00000E+00  1.51029E-01
      21    -1     0     0   502   511  0.000000000E+00  0.000000000E+00  9.182212558E+02  9.182212558E+02  0.000000000E+00  0.00000E+00  9.000E+00
      21    -1     0     0   501   502  0.000000000E+00  0.000000000E+00 -2.367137487E+02  2.367137487E+02  0.000000000E+00  0.00000E+00  9.000E+00
      25     1     1     2     0     0  2.124154358E+01  2.766339768E+02  6.504368723E+00  3.043761934E+02  1.250000000E+02  0.00000E+00  9.000E+00
      25     1     1     2     0     0 -2.614922940E+01 -2.449140376E+02  1.311592587E+02  3.057685712E+02  1.250000000E+02  0.00000E+00  9.000E+00
      21     1     1     2   501   511  4.907685817E+00 -3.171993919E+01  5.438438798E+02  5.447902399E+02  0.000000000E+00  0.00000E+00  9.000E+00
#rwgt            1           1   2.7270856753291335E-002           2      280698           0
</event>
<event>
      5   9999  3.19816E-02  3.33382E+01 -1.00000E+00  1.49924E-01
      21    -1     0     0   512   501  0.000000000E+00  0.000000000E+00  2.027529563E+02  2.027529563E+02  0.000000000E+00  0.00000E+00  9.000E+00
      21    -1     0     0   501   502  0.000000000E+00  0.000000000E+00 -1.970276665E+03  1.970276665E+03  0.000000000E+00  0.00000E+00  9.000E+00
      25     1     1     2     0     0  1.775773901E+01 -7.501633252E+00 -1.675208039E+03  1.679975770E+03  1.250000000E+02  0.00000E+00  9.000E+00
      25     1     1     2     0     0 -4.971015732E+01  1.701352656E+01 -2.753940152E+02  3.069648570E+02  1.250000000E+02  0.00000E+00  9.000E+00
      21     1     1     2   512   502  3.195241831E+01 -9.511893309E+00  1.830783459E+02  1.860889945E+02  3.814697266E-06  0.00000E+00  9.000E+00
#rwgt            1           1   9.1437728349157088E-002           2      280839           0
</event>
<event>
      5   9999  3.19816E-02  4.36868E+01 -1.00000E+00  1.42505E-01
      21    -1     0     0   511   501  0.000000000E+00  0.000000000E+00  2.680973053E+02  2.680973053E+02  0.000000000E+00  0.00000E+00  9.000E+00
      21    -1     0     0   501   502  0.000000000E+00  0.000000000E+00 -7.243531282E+02  7.243531282E+02  0.000000000E+00  0.00000E+00  9.000E+00
      25     1     1     2     0     0  1.678768293E+02  2.167012029E+02 -5.454998702E+02  6.231670319E+02  1.250000000E+02  0.00000E+00  9.000E+00
      25     1     1     2     0     0 -1.369573025E+02 -2.475640450E+02  9.853044778E+01  3.246205604E+02  1.250000000E+02  0.00000E+00  9.000E+00
      21     1     1     2   511   502 -3.091952680E+01  3.086284203E+01 -9.286400518E+00  4.466284127E+01  2.665600750E-07  0.00000E+00  9.000E+00
#rwgt            1           1   2.7066257027636449E-002           2      280985           0
</event>
<event>
      5   9999  3.19816E-02  8.38624E+01 -1.00000E+00  1.27366E-01
      21    -1     0     0   512   501  0.000000000E+00  0.000000000E+00  4.093772077E+02  4.093772077E+02  0.000000000E+00  0.00000E+00  9.000E+00
      21    -1     0     0   501   502  0.000000000E+00  0.000000000E+00 -3.557021878E+02  3.557021878E+02  0.000000000E+00  0.00000E+00  9.000E+00
      25     1     1     2     0     0 -8.038550687E+01  2.206357052E+02  1.940492707E+02  3.292750577E+02  1.250000000E+02  0.00000E+00  9.000E+00
      25     1     1     2     0     0  1.626885400E+02 -2.045385125E+02 -1.820512227E+02  3.421567065E+02  1.250000000E+02  0.00000E+00  9.000E+00
      21     1     1     2   512   502 -8.230303311E+01 -1.609719274E+01  4.167697181E+01  9.364763133E+01  0.000000000E+00  0.00000E+00  9.000E+00
#rwgt            1           1   3.1514144664303585E-002           2      281130           0
</event>
<event>
      5   9999  3.19816E-02  3.25099E+01 -1.00000E+00  1.50655E-01
      21    -1     0     0   502   501  0.000000000E+00  0.000000000E+00  7.935083184E+02  7.935083184E+02  0.000000000E+00  0.00000E+00  9.000E+00
      21    -1     0     0   511   502  0.000000000E+00  0.000000000E+00 -2.439279504E+02  2.439279504E+02  0.000000000E+00  0.00000E+00  9.000E+00
      25     1     1     2     0     0 -1.229662515E+01 -2.649696546E+02  6.228594887E+02  6.884323260E+02  1.250000000E+02  0.00000E+00  9.000E+00
      25     1     1     2     0     0 -1.350559136E+01  2.451924803E+02 -7.523556451E+00  2.756507887E+02  1.250000000E+02  0.00000E+00  9.000E+00
      21     1     1     2   511   501  2.580221651E+01  1.977717427E+01 -6.575556422E+01  7.335315416E+01  1.651812370E-06  0.00000E+00  9.000E+00
#rwgt            1           1   2.8111741023617430E-002           2      281202           0
</event>
<event>
      5   9999  3.19816E-02  1.14384E+02 -1.00000E+00  1.21258E-01
      21    -1     0     0   502   512  0.000000000E+00  0.000000000E+00  1.289783268E+03  1.289783268E+03  0.000000000E+00  0.00000E+00  9.000E+00
      21    -1     0     0   501   502  0.000000000E+00  0.000000000E+00 -3.442435911E+02  3.442435911E+02  0.000000000E+00  0.00000E+00  9.000E+00
      25     1     1     2     0     0  4.117404789E+02  1.235384907E+02 -4.179599140E+01  4.496263844E+02  1.250000000E+02  0.00000E+00  9.000E+00
      25     1     1     2     0     0 -4.237951115E+02 -9.791034294E+00  4.341887760E+02  6.195506872E+02  1.250000000E+02  0.00000E+00  9.000E+00
      21     1     1     2   501   512  1.205463262E+01 -1.137474564E+02  5.531468927E+02  5.648497880E+02  0.000000000E+00  0.00000E+00  9.000E+00
#rwgt            1           1   2.4396448426313444E-002           2      281357           0
</event>
<event>
      5   9999  3.19816E-02  4.21304E+01 -1.00000E+00  1.43456E-01
      21    -1     0     0   502   501  0.000000000E+00  0.000000000E+00  6.067822594E+02  6.067822594E+02  0.000000000E+00  0.00000E+00  9.000E+00
      21    -1     0     0   511   502  0.000000000E+00  0.000000000E+00 -2.570660861E+02  2.570660861E+02  0.000000000E+00  0.00000E+00  9.000E+00
      25     1     1     2     0     0 -2.482434177E+00  5.863817514E+01  1.272892161E+02  1.878087926E+02  1.250000000E+02  0.00000E+00  9.000E+00
      25     1     1     2     0     0  3.047031283E+01 -2.714777256E+01  4.375235146E+02  4.568558496E+02  1.250000000E+02  0.00000E+00  9.000E+00
      21     1     1     2   511   501 -2.798787865E+01 -3.149040258E+01 -2.150965573E+02  2.191837033E+02  3.814697266E-06  0.00000E+00  9.000E+00
#rwgt            2          11   1.5202098634434825E-002           2      281447           0
</event>
<event>
      5   9999  3.19816E-02  5.09947E+01 -1.00000E+00  1.38589E-01
      21    -1     0     0   512   501  0.000000000E+00  0.000000000E+00  2.659031265E+02  2.659031265E+02  0.000000000E+00  0.00000E+00  9.000E+00
      21    -1     0     0   501   502  0.000000000E+00  0.000000000E+00 -3.897537261E+02  3.897537261E+02  0.000000000E+00  0.00000E+00  9.000E+00
      25     1     1     2     0     0  1.102842655E+02 -1.569894312E+02 -2.526095187E+02  3.409470189E+02  1.250000000E+02  0.00000E+00  9.000E+00
      25     1     1     2     0     0 -6.834103172E+01  1.859932396E+02  1.190607966E+02  2.628011702E+02  1.250000000E+02  0.00000E+00  9.000E+00
      21     1     1     2   512   502 -4.194323380E+01 -2.900380837E+01  9.698122471E+00  5.190866345E+01  4.460403188E-07  0.00000E+00  9.000E+00
#rwgt            1           1   3.2077170264689057E-002           2      281497           0
</event>
<event>
      5   9999  3.55558E-02  3.83940E+01 -1.00000E+00  1.45953E-01
      21    -1     0     0   502   501  0.000000000E+00  0.000000000E+00  9.571794412E+01  9.571794412E+01  0.000000000E+00  0.00000E+00  9.000E+00
      21    -1     0     0   511   502  0.000000000E+00  0.000000000E+00 -1.640633358E+03  1.640633358E+03  0.000000000E+00  0.00000E+00  9.000E+00
      25     1     1     2     0     0  2.269067361E+02 -1.329180763E+01 -1.202607385E+03  1.230265362E+03  1.250000000E+02  0.00000E+00  9.000E+00
      25     1     1     2     0     0 -2.635048870E+02  2.489658665E+01 -1.898969917E+02  3.489133603E+02  1.250000000E+02  0.00000E+00  9.000E+00
      21     1     1     2   511   501  3.659815095E+01 -1.160477903E+01 -1.524110374E+02  1.571725799E+02  2.697398305E-06  0.00000E+00  9.000E+00
#rwgt            1           1   3.3235902624675046E-002           2      281610           0
</event>
<event>
      5   9999  3.19816E-02  6.27551E+00 -1.00000E+00  2.22486E-01
      21    -1     0     0   512   501  0.000000000E+00  0.000000000E+00  1.531077191E+03  1.531077191E+03  0.000000000E+00  0.00000E+00  9.000E+00
      21    -1     0     0   501   502  0.000000000E+00  0.000000000E+00 -1.466872990E+02  1.466872990E+02  0.000000000E+00  0.00000E+00  9.000E+00
      25     1     1     2     0     0 -1.467746978E+02  5.471326976E+01  1.145099151E+03  1.162503084E+03  1.250000000E+02  0.00000E+00  9.000E+00
      25     1     1     2     0     0  1.496508086E+02 -4.913563127E+01 -6.467673875E+01  2.112291535E+02  1.250000000E+02  0.00000E+00  9.000E+00
      21     1     1     2   512   502 -2.876110777E+00 -5.577638488E+00  3.039674796E+02  3.040322528E+02  3.814697266E-06  0.00000E+00  9.000E+00
#rwgt            1           1   2.6545731621186591E-002           2      281697           0
</event>
<event>
      5   9999  3.19816E-02  5.16015E+01 -1.00000E+00  1.38299E-01
      21    -1     0     0   502   501  0.000000000E+00  0.000000000E+00  4.034003809E+02  4.034003809E+02  0.000000000E+00  0.00000E+00  9.000E+00
       1    -1     0     0   501     0  0.000000000E+00  0.000000000E+00 -3.832179922E+02  3.832179922E+02  0.000000000E+00  0.00000E+00  9.000E+00
      25     1     1     2     0     0  1.408202525E+02 -6.628516930E+01  1.230951910E+02  2.345239715E+02  1.250000000E+02  0.00000E+00  9.000E+00
      25     1     1     2     0     0 -1.173612905E+02  2.032436439E+01  1.888039374E+02  2.558489380E+02  1.250000000E+02  0.00000E+00  9.000E+00
       1     1     1     2   502     0 -2.345896203E+01  4.596080491E+01 -2.917167396E+02  2.962454635E+02  0.000000000E+00  0.00000E+00  9.000E+00
#rwgt            1           1   3.1830035024950527E-002           2      282074           0
</event>
<event>
      5   9999  3.19816E-02  8.20624E+01 -1.00000E+00  1.27817E-01
      21    -1     0     0   502   501  0.000000000E+00  0.000000000E+00  4.083248848E+02  4.083248848E+02  0.000000000E+00  0.00000E+00  9.000E+00
      21    -1     0     0   511   502  0.000000000E+00  0.000000000E+00 -1.398762718E+02  1.398762718E+02  0.000000000E+00  0.00000E+00  9.000E+00
      25     1     1     2     0     0  8.031548366E+01 -4.225974994E+00  5.235771260E+00  1.487307940E+02  1.250000000E+02  0.00000E+00  9.000E+00
      25     1     1     2     0     0 -1.496295232E+02 -3.970360452E+01  2.446269457E+02  3.153295308E+02  1.250000000E+02  0.00000E+00  9.000E+00
      21     1     1     2   511   501  6.931403958E+01  4.392957951E+01  1.858589598E+01  8.414083175E+01  7.539457465E-07  0.00000E+00  9.000E+00
#rwgt            2          11   2.4591442000574688E-003           2      282267           0
</event>
<event>
      5   9999  3.19816E-02  2.91891E+01 -1.00000E+00  1.53871E-01
      21    -1     0     0   502   512  0.000000000E+00  0.000000000E+00  5.687337821E+02  5.687337821E+02  0.000000000E+00  0.00000E+00  9.000E+00
      21    -1     0     0   501   502  0.000000000E+00  0.000000000E+00 -1.489995387E+03  1.489995387E+03  0.000000000E+00  0.00000E+00  9.000E+00
      25     1     1     2     0     0  4.320330795E+02 -4.285831377E+02  9.446032869E+01  6.283978369E+02  1.250000000E+02  0.00000E+00  9.000E+00
      25     1     1     2     0     0 -4.562493952E+02  4.122867561E+02 -1.140744087E+03  1.301946985E+03  1.250000000E+02  0.00000E+00  9.000E+00
      21     1     1     2   501   512  2.421631565E+01  1.629638163E+01  1.250221529E+02  1.283843476E+02  2.336015456E-06  0.00000E+00  9.000E+00
#rwgt            1           1   3.1562063449336514E-002           2      282302           0
</event>
<event>
      5   9999  3.19816E-02  5.12522E+01 -1.00000E+00  1.38465E-01
      21    -1     0     0   502   501  0.000000000E+00  0.000000000E+00  7.098611100E+02  7.098611100E+02  0.000000000E+00  0.00000E+00  9.000E+00
       2    -1     0     0   501     0  0.000000000E+00  0.000000000E+00 -1.272171187E+03  1.272171187E+03  0.000000000E+00  0.00000E+00  9.000E+00
      25     1     1     2     0     0 -4.311043258E+02  5.685402342E+01  2.333966819E+02  5.090995294E+02  1.250000000E+02  0.00000E+00  9.000E+00
      25     1     1     2     0     0  4.035216625E+02 -1.365699474E+01  2.058101064E+02  4.701053557E+02  1.250000000E+02  0.00000E+00  9.000E+00
       2     1     1     2   502     0  2.758266333E+01 -4.319702868E+01 -1.001516865E+03  1.002827412E+03  1.078959322E-05  0.00000E+00  9.000E+00
#rwgt            1           1   2.6207205131936511E-002           2      282506           0
</event>
<event>
      5   9999  3.19816E-02  1.51437E+02 -1.00000E+00  1.16230E-01
      21    -1     0     0   511   501  0.000000000E+00  0.000000000E+00  9.586043544E+02  9.586043544E+02  0.000000000E+00  0.00000E+00  9.000E+00
      21    -1     0     0   501   502  0.000000000E+00  0.000000000E+00 -5.739400260E+02  5.739400260E+02  0.000000000E+00  0.00000E+00  9.000E+00
      25     1     1     2     0     0  1.116780018E+02 -2.226183244E+02 -3.170853274E+02  4.221362331E+02  1.250000000E+02  0.00000E+00  9.000E+00
      25     1     1     2     0     0  7.025044621E+00  3.166536888E+02 -4.946679214E+01  3.440797486E+02  1.250000000E+02  0.00000E+00  9.000E+00
      21     1     1     2   511   502 -1.187030464E+02 -9.403536435E+01  7.512164480E+02  7.663283987E+02  1.078959322E-05  0.00000E+00  9.000E+00
#rwgt            1           1   2.7508614806105017E-002           2      282648           0
</event>
<event>
      5   9999  3.19816E-02  1.62232E+02 -1.00000E+00  1.15060E-01
       2    -1     0     0   502     0  0.000000000E+00  0.000000000E+00  2.683236465E+03  2.683236465E+03  0.000000000E+00  0.00000E+00  9.000E+00
      21    -1     0     0   501   502  0.000000000E+00  0.000000000E+00 -6.824507646E+02  6.824507646E+02  0.000000000E+00  0.00000E+00  9.000E+00
      25     1     1     2     0     0  2.616936899E+02  1.785832091E+02  1.266621060E+03  1.311613304E+03  1.250000000E+02  0.00000E+00  9.000E+00
      25     1     1     2     0     0 -1.345688739E+02 -2.793721092E+02 -6.124264984E+02  6.977454932E+02  1.250000000E+02  0.00000E+00  9.000E+00
       2     1     1     2   501     0 -1.271248159E+02  1.007889002E+02  1.346591139E+03  1.356328432E+03  1.525878906E-05  0.00000E+00  9.000E+00
#rwgt            1           1   2.7902518713123124E-002           2      282706           0
</event>
<event>
      5   9999  3.19816E-02  5.42127E+01 -1.00000E+00  1.37100E-01
      21    -1     0     0   502   501  0.000000000E+00  0.000000000E+00  2.499632789E+02  2.499632789E+02  0.000000000E+00  0.00000E+00  9.000E+00
      21    -1     0     0   511   502  0.000000000E+00  0.000000000E+00 -1.794599815E+03  1.794599815E+03  0.000000000E+00  0.00000E+00  9.000E+00
      25     1     1     2     0     0  1.133049552E+02 -5.276320098E+01  1.467952931E+02  2.297734238E+02  1.250000000E+02  0.00000E+00  9.000E+00
      25     1     1     2     0     0 -7.864805041E+01  9.445145649E+01 -6.425368481E+01  1.867086754E+02  1.250000000E+02  0.00000E+00  9.000E+00
      21     1     1     2   511   501 -3.465690474E+01 -4.168825551E+01 -1.627178144E+03  1.628080995E+03  2.157918644E-05  0.00000E+00  9.000E+00
#rwgt            2          11   4.1960509380021107E-003           2      282855           0
</event>
<event>
      5   9999  3.19816E-02  1.18582E+02 -1.00000E+00  1.20588E-01
      21    -1     0     0   512   501  0.000000000E+00  0.000000000E+00  2.677997612E+02  2.677997612E+02  0.000000000E+00  0.00000E+00  9.000E+00
      21    -1     0     0   501   502  0.000000000E+00  0.000000000E+00 -8.318246704E+02  8.318246704E+02  0.000000000E+00  0.00000E+00  9.000E+00
      25     1     1     2     0     0  1.165398247E+02  6.397614821E+01 -1.820787354E+02  2.577831340E+02  1.250000000E+02  0.00000E+00  9.000E+00
      25     1     1     2     0     0  1.715363987E-02 -8.579554704E+01 -5.862939857E+02  6.055794860E+02  1.250000000E+02  0.00000E+00  9.000E+00
      21     1     1     2   512   502 -1.165569784E+02  2.181939883E+01  2.043478119E+02  2.362618116E+02  5.394796609E-06  0.00000E+00  9.000E+00
#rwgt            1           1   3.6101066175934247E-002           2      282905           0
</event>
<event>
      5   9999  3.19816E-02  5.81809E+01 -1.00000E+00  1.35422E-01
      21    -1     0     0   502   501  0.000000000E+00  0.000000000E+00  1.301197274E+02  1.301197274E+02  0.000000000E+00  0.00000E+00  9.000E+00
      21    -1     0     0   501   511  0.000000000E+00  0.000000000E+00 -2.089759223E+03  2.089759223E+03  0.000000000E+00  0.00000E+00  9.000E+00
      25     1     1     2     0     0  2.462836031E+02 -9.912594871E+01 -1.317280117E+03  1.349567884E+03  1.250000000E+02  0.00000E+00  9.000E+00
      25     1     1     2     0     0 -1.895122830E+02  8.639652903E+01 -1.835523329E+01  2.436004520E+02  1.250000000E+02  0.00000E+00  9.000E+00
      21     1     1     2   502   511 -5.677132018E+01  1.272941968E+01 -6.240041451E+02  6.267106142E+02  7.629394531E-06  0.00000E+00  9.000E+00
#rwgt            1           1   2.7064443054741229E-002           2      282933           0
</event>
<event>
      5   9999  3.19816E-02  2.35686E+02 -1.00000E+00  1.09112E-01
      21    -1     0     0   502   501  0.000000000E+00  0.000000000E+00  1.938404131E+02  1.938404131E+02  0.000000000E+00  0.00000E+00  9.000E+00
      21    -1     0     0   501   512  0.000000000E+00  0.000000000E+00 -1.913811576E+03  1.913811576E+03  0.000000000E+00  0.00000E+00  9.000E+00
      25     1     1     2     0     0  1.417129973E+01  5.124886468E+02 -6.510432665E+02  8.380499828E+02  1.250000000E+02  0.00000E+00  9.000E+00
      25     1     1     2     0     0 -2.075883253E+02 -3.778116468E+02 -6.772960678E+02  8.125204716E+02  1.250000000E+02  0.00000E+00  9.000E+00
      21     1     1     2   502   512  1.934170256E+02 -1.346770000E+02 -3.916318288E+02  4.570815348E+02  5.394796609E-06  0.00000E+00  9.000E+00
#rwgt            1           1   2.9891815778448429E-002           2      283046           0
</event>
<event>
      5   9999  3.19816E-02  2.53018E+01 -1.00000E+00  1.58361E-01
      21    -1     0     0   502   501  0.000000000E+00  0.000000000E+00  5.461484635E+02  5.461484635E+02  0.000000000E+00  0.00000E+00  9.000E+00
      21    -1     0     0   501   511  0.000000000E+00  0.000000000E+00 -7.342035851E+01  7.342035851E+01  0.000000000E+00  0.00000E+00  9.000E+00
      25     1     1     2     0     0  1.827480981E+01 -1.207809667E+01  3.712544001E+02  3.923451015E+02  1.250000000E+02  0.00000E+00  9.000E+00
      25     1     1     2     0     0 -1.288327999E+01  3.679883445E+01  1.331076823E+02  1.867157953E+02  1.250000000E+02  0.00000E+00  9.000E+00
      21     1     1     2   502   511 -5.391529820E+00 -2.472073778E+01 -3.163397747E+01  4.050792516E+01  7.539457465E-07  0.00000E+00  9.000E+00
#rwgt            1           1   2.9038168038161231E-002           2      283095           0
</event>
<event>
      5   9999  3.19816E-02  1.19156E+02 -1.00000E+00  1.20499E-01
      21    -1     0     0   502   501  0.000000000E+00  0.000000000E+00  3.199014234E+02  3.199014234E+02  0.000000000E+00  0.00000E+00  9.000E+00
       3    -1     0     0   501     0  0.000000000E+00  0.000000000E+00 -9.162730536E+02  9.162730536E+02  0.000000000E+00  0.00000E+00  9.000E+00
      25     1     1     2     0     0 -1.423819513E+02 -1.172833418E+02 -1.179571972E+02  2.521247760E+02  1.250000000E+02  0.00000E+00  9.000E+00
      25     1     1     2     0     0  1.505117465E+02  2.361613909E+02  1.521360089E+02  3.423395297E+02  1.250000000E+02  0.00000E+00  9.000E+00
       3     1     1     2   502     0 -8.129795172E+00 -1.188780491E+02 -6.305504419E+02  6.417101713E+02  7.629394531E-06  0.00000E+00  9.000E+00
#rwgt            1           1   2.8354836590370445E-002           2      283232           0
</event>
<event>
      5   9999  3.19816E-02  4.97002E+01 -1.00000E+00  1.39225E-01
      21    -1     0     0   511   501  0.000000000E+00  0.000000000E+00  3.119151488E+02  3.119151488E+02  0.000000000E+00  0.00000E+00  9.000E+00
      21    -1     0     0   501   502  0.000000000E+00  0.000000000E+00 -1.485557942E+03  1.485557942E+03  0.000000000E+00  0.00000E+00  9.000E+00
      25     1     1     2     0     0  4.939507352E+01 -3.816374710E+02 -1.298932553E+03  1.360491753E+03  1.250000000E+02  0.00000E+00  9.000E+00
      25     1     1     2     0     0 -6.760681645E+01  3.353941637E+02  8.770362490E+01  3.746689905E+02  1.250000000E+02  0.00000E+00  9.000E+00
      21     1     1     2   511   502  1.821174293E+01  4.624330733E+01  3.758613508E+01  6.231234712E+01  1.261592536E-06  0.00000E+00  9.000E+00
#rwgt            1           1   2.6331228525056483E-002           2      283265           0
</event>
<event>
      5   9999  3.19816E-02  4.33359E+01 -1.00000E+00  1.42715E-01
       2    -1     0     0   502     0  0.000000000E+00  0.000000000E+00  5.341797655E+02  5.341797655E+02  0.000000000E+00  0.00000E+00  9.000E+00
      21    -1     0     0   501   502  0.000000000E+00  0.000000000E+00 -2.245125385E+02  2.245125385E+02  0.000000000E+00  0.00000E+00  9.000E+00
      25     1     1     2     0     0  2.634402101E+02 -1.885835722E+01 -7.698254028E+00  2.923023179E+02  1.250000000E+02  0.00000E+00  9.000E+00
      25     1     1     2     0     0 -2.356037229E+02 -1.435509034E+01  1.793338910E+02  3.217154447E+02  1.250000000E+02  0.00000E+00  9.000E+00
       2     1     1     2   501     0 -2.783648718E+01  3.321344756E+01  1.380315900E+02  1.446745415E+02  2.697398305E-06  0.00000E+00  9.000E+00
#rwgt            1           1   2.8046293138869527E-002           2      283438           0
</event>
<event>
      5   9999  3.19816E-02  8.68361E+01 -1.00000E+00  1.26649E-01
      21    -1     0     0   511   501  0.000000000E+00  0.000000000E+00  1.424303660E+03  1.424303660E+03  0.000000000E+00  0.00000E+00  9.000E+00
      21    -1     0     0   501   502  0.000000000E+00  0.000000000E+00 -1.435150252E+02  1.435150252E+02  0.000000000E+00  0.00000E+00  9.000E+00
      25     1     1     2     0     0 -7.076136199E+01  2.657054770E+02  1.005789242E+03  1.050163592E+03  1.250000000E+02  0.00000E+00  9.000E+00
      25     1     1     2     0     0  6.090761328E+01 -1.794302427E+02 -2.365869369E+00  2.270144196E+02  1.250000000E+02  0.00000E+00  9.000E+00
      21     1     1     2   511   502  9.853748714E+00 -8.627523429E+01  2.773652619E+02  2.906406732E+02  0.000000000E+00  0.00000E+00  9.000E+00
#rwgt            1           1   2.4566936463396489E-002           2      283578           0
</event>
<event>
      5   9999  3.19816E-02  8.25848E+01 -1.00000E+00  1.27685E-01
      21    -1     0     0   502   501  0.000000000E+00  0.000000000E+00  1.016960622E+03  1.016960622E+03  0.000000000E+00  0.00000E+00  9.000E+00
      21    -1     0     0   501   512  0.000000000E+00  0.000000000E+00 -2.980207558E+02  2.980207558E+02  0.000000000E+00  0.00000E+00  9.000E+00
      25     1     1     2     0     0 -1.049965128E+02  1.846152548E+01 -2.654490731E+01  1.664173300E+02  1.250000000E+02  0.00000E+00  9.000E+00
      25     1     1     2     0     0  1.717324422E+02  3.018585930E+01  9.257484464E+02  9.502833282E+02  1.250000000E+02  0.00000E+00  9.000E+00
      21     1     1     2   502   512 -6.673592946E+01 -4.864738478E+01 -1.802636724E+02  1.982807200E+02  4.672030912E-06  0.00000E+00  9.000E+00
#rwgt            1           1   2.8685187073347197E-002           2      283690           0
</event>
<event>
      5   9999  3.19816E-02  5.34099E+01 -1.00000E+00  1.37460E-01
      21    -1     0     0   502   511  0.000000000E+00  0.000000000E+00  1.068910743E+03  1.068910743E+03  0.000000000E+00  0.00000E+00  9.000E+00
      21    -1     0     0   501   502  0.000000000E+00  0.000000000E+00 -4.462303297E+02  4.462303297E+02  0.000000000E+00  0.00000E+00  9.000E+00
      25     1     1     2     0     0 -3.344542304E+02 -2.365963463E+02  1.163971691E+02  4.438589464E+02  1.250000000E+02  0.00000E+00  9.000E+00
      25     1     1     2     0     0  2.930334350E+02  2.703148694E+02 -1.262746722E+02  4.364733846E+02  1.250000000E+02  0.00000E+00  9.000E+00
      21     1     1     2   501   511  4.142079545E+01 -3.371852310E+01  6.325579159E+02  6.348087413E+02  7.629394531E-06  0.00000E+00  9.000E+00
#rwgt            1           1   2.4475275278585298E-002           2      283748           0
</event>
<event>
      5   9999  3.19816E-02  1.78320E+01 -1.00000E+00  1.70588E-01
      21    -1     0     0   512   501  0.000000000E+00  0.000000000E+00  9.962935155E+02  9.962935155E+02  0.000000000E+00  0.00000E+00  9.000E+00
      21    -1     0     0   501   502  0.000000000E+00  0.000000000E+00 -1.382873790E+02  1.382873790E+02  0.000000000E+00  0.00000E+00  9.000E+00
      25     1     1     2     0     0 -4.113826686E+01  9.428418638E+00 -9.985426937E+01  1.654603493E+02  1.250000000E+02  0.00000E+00  9.000E+00
      25     1     1     2     0     0  2.355220244E+01 -6.476752236E+00  8.845591901E+02  8.936814955E+02  1.250000000E+02  0.00000E+00  9.000E+00
      21     1     1     2   512   502  1.758606442E+01 -2.951666403E+00  7.330121575E+01  7.543904975E+01  0.000000000E+00  0.00000E+00  9.000E+00
#rwgt            1           1   2.9153852969240730E-002           2      283897           0
</event>
<event>
      5   9999  3.19816E-02  6.83455E+01 -1.00000E+00  1.31749E-01
      21    -1     0     0   502   501  0.000000000E+00  0.000000000E+00  1.349228264E+02  1.349228264E+02  0.000000000E+00  0.00000E+00  9.000E+00
      21    -1     0     0   511   502  0.000000000E+00  0.000000000E+00 -8.709768035E+02  8.709768035E+02  0.000000000E+00  0.00000E+00  9.000E+00
      25     1     1     2     0     0 -6.119325137E+00  4.329364633E+01  4.883900851E+01  1.411454381E+02  1.250000000E+02  0.00000E+00  9.000E+00
      25     1     1     2     0     0  5.867386637E+01  3.998435525E-01 -8.632101181E+01  1.628468592E+02  1.250000000E+02  0.00000E+00  9.000E+00
      21     1     1     2   511   501 -5.255454123E+01 -4.369348988E+01 -6.985719738E+02  7.019073325E+02  7.629394531E-06  0.00000E+00  9.000E+00
#rwgt            1           1   4.1196660557039418E-002           2      284131           0
</event>
<event>
      5   9999  3.19816E-02  2.95691E+01 -1.00000E+00  1.53478E-01
      21    -1     0     0   502   501  0.000000000E+00  0.000000000E+00  3.177856591E+02  3.177856591E+02  0.000000000E+00  0.00000E+00  9.000E+00
      -3    -1     0     0     0   502  0.000000000E+00  0.000000000E+00 -5.275728238E+02  5.275728238E+02  0.000000000E+00  0.00000E+00  9.000E+00
      25     1     1     2     0     0 -8.888714593E+00 -1.530752528E+02  2.387595946E+02  3.100680349E+02  1.250000000E+02  0.00000E+00  9.000E+00
      25     1     1     2     0     0  3.486059302E+01  1.672100133E+02 -2.216572516E+02  3.064822779E+02  1.250000000E+02  0.00000E+00  9.000E+00
      -3     1     1     2     0   501 -2.597187842E+01 -1.413476049E+01 -2.268895078E+02  2.288081700E+02  2.697398305E-06  0.00000E+00  9.000E+00
#rwgt            1           1   2.7472499287681199E-002           2      284221           0
</event>
<event>
      5   9999  3.19816E-02  8.04518E+01 -1.00000E+00  1.28231E-01
      21    -1     0     0   502   501  0.000000000E+00  0.000000000E+00  1.280076153E+02  1.280076153E+02  0.000000000E+00  0.00000E+00  9.000E+00
      21    -1     0     0   501   511  0.000000000E+00  0.000000000E+00 -1.304986073E+03  1.304986073E+03  0.000000000E+00  0.00000E+00  9.000E+00
      25     1     1     2     0     0 -2.544762845E+02 -4.739807528E+01 -7.950690404E+02  8.454374820E+02  1.250000000E+02  0.00000E+00  9.000E+00
      25     1     1     2     0     0  1.740937861E+02  5.073616510E+01 -2.496231791E+01  2.216549619E+02  1.250000000E+02  0.00000E+00  9.000E+00
      21     1     1     2   502   511  8.038249840E+01 -3.338089817E+00 -3.569470992E+02  3.659012442E+02  0.000000000E+00  0.00000E+00  9.000E+00
#rwgt            1           1   2.9423431293694992E-002           2      284362           0
</event>
<event>
      5   9999  3.19816E-02  4.82051E+01 -1.00000E+00  1.39988E-01
      21    -1     0     0   512   501  0.000000000E+00  0.000000000E+00  9.166117617E+02  9.166117617E+02  0.000000000E+00  0.00000E+00  9.000E+00
      21    -1     0     0   501   502  0.000000000E+00  0.000000000E+00 -5.706758991E+02  5.706758991E+02  0.000000000E+00  0.00000E+00  9.000E+00
      25     1     1     2     0     0  2.886470986E+02 -1.009750092E+02  6.021928520E+02  6.868583049E+02  1.250000000E+02  0.00000E+00  9.000E+00
      25     1     1     2     0     0 -2.980781911E+02  5.370152193E+01 -4.746608716E+02  5.767689351E+02  1.250000000E+02  0.00000E+00  9.000E+00
      21     1     1     2   512   502  9.431092469E+00  4.727348727E+01  2.184038822E+02  2.236604209E+02  2.697398305E-06  0.00000E+00  9.000E+00
#rwgt            1           1   2.2092213755058571E-002           2      284406           0
</event>
<event>
      5   9999  3.19816E-02  8.39003E+01 -1.00000E+00  1.27357E-01
      21    -1     0     0   502   501  0.000000000E+00  0.000000000E+00  4.198651035E+02  4.198651035E+02  0.000000000E+00  0.00000E+00  9.000E+00
      21    -1     0     0   511   502  0.000000000E+00  0.000000000E+00 -5.364996570E+02  5.364996570E+02  0.000000000E+00  0.00000E+00  9.000E+00
      25     1     1     2     0     0 -7.060521520E+01  3.583112513E+02  3.185340037E+00  3.860145018E+02  1.250000000E+02  0.00000E+00  9.000E+00
      25     1     1     2     0     0  1.505555247E+02 -3.837515793E+02 -8.363499044E+00  4.308447385E+02  1.250000000E+02  0.00000E+00  9.000E+00
      21     1     1     2   511   501 -7.995030953E+01  2.544032798E+01 -1.114563945E+02  1.395055201E+02  2.336015456E-06  0.00000E+00  9.000E+00
#rwgt            1           1   2.9591327326162500E-002           2      284572           0
</event>
<event>
      5   9999  3.19816E-02  3.96875E+02 -1.00000E+00  1.01788E-01
      21    -1     0     0   502   501  0.000000000E+00  0.000000000E+00  1.452751844E+03  1.452751844E+03  0.000000000E+00  0.00000E+00  9.000E+00
      -1    -1     0     0     0   502  0.000000000E+00  0.000000000E+00 -1.157983149E+03  1.157983149E+03  0.000000000E+00  0.00000E+00  9.000E+00
      25     1     1     2     0     0  3.720561440E+02 -8.234394353E+02  1.063170855E+03  1.400869567E+03  1.250000000E+02  0.00000E+00  9.000E+00
      25     1     1     2     0     0 -2.697662169E+02  4.399734680E+02 -3.677475017E+02  6.459208073E+02  1.250000000E+02  0.00000E+00  9.000E+00
      -1     1     1     2     0   501 -1.022899271E+02  3.834659673E+02 -4.006546586E+02  5.639446185E+02  1.078959322E-05  0.00000E+00  9.000E+00
#rwgt            2          10   1.0613950305141644E-004           2      284796           0
</event>
<event>
      5   9999  3.19816E-02  5.49951E+01 -1.00000E+00  1.36756E-01
      21    -1     0     0   502   501  0.000000000E+00  0.000000000E+00  2.811165949E+02  2.811165949E+02  0.000000000E+00  0.00000E+00  9.000E+00
      21    -1     0     0   501   511  0.000000000E+00  0.000000000E+00 -7.272185365E+02  7.272185365E+02  0.000000000E+00  0.00000E+00  9.000E+00
      25     1     1     2     0     0  2.865657089E+02 -1.806033866E+02 -1.922275023E+02  4.090402198E+02  1.250000000E+02  0.00000E+00  9.000E+00
      25     1     1     2     0     0 -3.159938898E+02  2.270624025E+02 -7.937570485E+01  4.163351721E+02  1.250000000E+02  0.00000E+00  9.000E+00
      21     1     1     2   502   511  2.942818086E+01 -4.645901593E+01 -1.744987344E+02  1.829597396E+02  1.907348633E-06  0.00000E+00  9.000E+00
#rwgt            1           1   2.7096990578262752E-002           2      284860           0
</event>
<event>
      5   9999  3.19816E-02  5.89700E+01 -1.00000E+00  1.35106E-01
      21    -1     0     0   502   512  0.000000000E+00  0.000000000E+00  1.995403826E+02  1.995403826E+02  0.000000000E+00  0.00000E+00  9.000E+00
      21    -1     0     0   501   502  0.000000000E+00  0.000000000E+00 -9.674473615E+02  9.674473615E+02  0.000000000E+00  0.00000E+00  9.000E+00
      25     1     1     2     0     0 -1.332277119E+02 -2.970584569E+02 -5.663460847E+02  6.651061852E+02  1.250000000E+02  0.00000E+00  9.000E+00
      25     1     1     2     0     0  1.373866370E+02  2.382352900E+02 -2.744391087E+02  4.081335147E+02  1.250000000E+02  0.00000E+00  9.000E+00
      21     1     1     2   501   512 -4.158925077E+00  5.882316697E+01  7.287821458E+01  9.374804419E+01  9.536743164E-07  0.00000E+00  9.000E+00
#rwgt            1           1   3.2353425380053931E-002           2      285028           0
</event>
<event>
      5   9999  3.19816E-02  1.42697E+02 -1.00000E+00  1.17259E-01
      21    -1     0     0   502   511  0.000000000E+00  0.000000000E+00  2.682708290E+03  2.682708290E+03  0.000000000E+00  0.00000E+00  9.000E+00
      21    -1     0     0   501   502  0.000000000E+00  0.000000000E+00 -3.225018516E+02  3.225018516E+02  0.000000000E+00  0.00000E+00  9.000E+00
      25     1     1     2     0     0 -8.764869013E+01  1.452190924E+02 -1.980194444E+02  2.891497502E+02  1.250000000E+02  0.00000E+00  9.000E+00
      25     1     1     2     0     0  2.221074799E+02 -9.743545414E+01  1.655867659E+02  3.191698253E+02  1.250000000E+02  0.00000E+00  9.000E+00
      21     1     1     2   501   511 -1.344587897E+02 -4.778363826E+01  2.392639117E+03  2.396890566E+03  0.000000000E+00  0.00000E+00  9.000E+00
#rwgt            1           1   2.4326739482692910E-002           2      285145           0
</event>
<event>
      5   9999  3.35137E-02  4.16080E+01 -1.00000E+00  1.43787E-01
      21    -1     0     0   502   501  0.000000000E+00  0.000000000E+00  9.432227869E+02  9.432227869E+02  0.000000000E+00  0.00000E+00  9.000E+00
      21    -1     0     0   512   502  0.000000000E+00  0.000000000E+00 -1.458235581E+03  1.458235581E+03  0.000000000E+00  0.00000E+00  9.000E+00
      25     1     1     2     0     0  5.065849983E+02 -3.257311135E+02 -1.231476311E+03  1.376549317E+03  1.250000000E+02  0.00000E+00  9.000E+00
      25     1     1     2     0     0 -5.310380493E+02  3.593952412E+02  7.314177636E+02  9.806953115E+02  1.250000000E+02  0.00000E+00  9.000E+00
      21     1     1     2   512   501  2.445305101E+01 -3.366412768E+01 -1.495424646E+01  4.421373863E+01  1.238859277E-06  0.00000E+00  9.000E+00
#rwgt            1           1   7.9118221595052038E-002           2      285223           0
</event>
<event>
      5   9999  3.19816E-02  4.09484E+01 -1.00000E+00  1.44212E-01
      21    -1     0     0   502   501  0.000000000E+00  0.000000000E+00  1.217544389E+03  1.217544389E+03  0.000000000E+00  0.00000E+00  9.000E+00
      21    -1     0     0   511   502  0.000000000E+00  0.000000000E+00 -1.381888471E+03  1.381888471E+03  0.000000000E+00  0.00000E+00  9.000E+00
      25     1     1     2     0     0 -1.051910981E+03 -1.181578598E+02  5.940799063E+02  1.220259778E+03  1.250000000E+02  0.00000E+00  9.000E+00
      25     1     1     2     0     0  1.025204784E+03  1.491990181E+02 -5.754399528E+02  1.191663265E+03  1.250000000E+02  0.00000E+00  9.000E+00
      21     1     1     2   511   501  2.670619619E+01 -3.104115839E+01 -1.829840353E+02  1.875098174E+02  0.000000000E+00  0.00000E+00  9.000E+00
#rwgt            1           1   6.7103158565604323E-002           2      285392           0
</event>
<event>
      5   9999  3.19816E-02  1.40795E+01 -1.00000E+00  1.80015E-01
      21    -1     0     0   502   501  0.000000000E+00  0.000000000E+00  4.290146058E+02  4.290146058E+02  0.000000000E+00  0.00000E+00  9.000E+00
      21    -1     0     0   501   512  0.000000000E+00  0.000000000E+00 -4.219037490E+02  4.219037490E+02  0.000000000E+00  0.00000E+00  9.000E+00
      25     1     1     2     0     0  2.787669991E+01  1.689529128E+02  3.097352002E+02  3.753439641E+02  1.250000000E+02  0.00000E+00  9.000E+00
      25     1     1     2     0     0 -2.483515091E+01 -1.826999223E+02 -5.751777230E+01  2.300637748E+02  1.250000000E+02  0.00000E+00  9.000E+00
      21     1     1     2   502   512 -3.041548998E+00  1.374700949E+01 -2.451065711E+02  2.455106159E+02  2.697398305E-06  0.00000E+00  9.000E+00
#rwgt            1           1   2.6854932456278329E-002           2      285586           0
</event>
<event>
      5   9999  3.19816E-02  1.49321E+02 -1.00000E+00  1.16472E-01
       2    -1     0     0   502     0  0.000000000E+00  0.000000000E+00  1.337098041E+03  1.337098041E+03  0.000000000E+00  0.00000E+00  9.000E+00
      21    -1     0     0   501   502  0.000000000E+00  0.000000000E+00 -2.451465804E+02  2.451465804E+02  0.000000000E+00  0.00000E+00  9.000E+00
      25     1     1     2     0     0  3.602160634E+02  2.253982158E+02  9.946597456E+01  4.539586414E+02  1.250000000E+02  0.00000E+00  9.000E+00
      25     1     1     2     0     0 -2.119674749E+02 -2.432602485E+02  4.621680687E+02  5.773474540E+02  1.250000000E+02  0.00000E+00  9.000E+00
       2     1     1     2   501     0 -1.482485885E+02  1.786203266E+01  5.303174170E+02  5.509385256E+02  0.000000000E+00  0.00000E+00  9.000E+00
#rwgt            2          18   8.3439132035577313E-004           2      285846           0
</event>
<event>
      5   9999  3.19816E-02  9.02010E+01 -1.00000E+00  1.25876E-01
      21    -1     0     0   502   501  0.000000000E+00  0.000000000E+00  1.519813549E+03  1.519813549E+03  0.000000000E+00  0.00000E+00  9.000E+00
      21    -1     0     0   511   502  0.000000000E+00  0.000000000E+00 -6.195571173E+02  6.195571173E+02  0.000000000E+00  0.00000E+00  9.000E+00
      25     1     1     2     0     0 -6.585779241E+02 -4.606676478E+01  1.683899507E+02  6.926956073E+02  1.250000000E+02  0.00000E+00  9.000E+00
      25     1     1     2     0     0  6.271404002E+02 -3.847846558E+01  9.866543618E+02  1.176391731E+03  1.250000000E+02  0.00000E+00  9.000E+00
      21     1     1     2   511   501  3.143752389E+01  8.454523036E+01 -2.547878804E+02  2.702833289E+02  2.697398305E-06  0.00000E+00  9.000E+00
#rwgt            1           1   3.8382337231549671E-002           2      285865           0
</event>
<event>
      5   9999  3.19816E-02  2.65781E+01 -1.00000E+00  1.56785E-01
      21    -1     0     0   502   501  0.000000000E+00  0.000000000E+00  5.943824534E+02  5.943824534E+02  0.000000000E+00  0.00000E+00  9.000E+00
      -4    -1     0     0     0   502  0.000000000E+00  0.000000000E+00 -8.972758418E+02  8.972758418E+02  0.000000000E+00  0.00000E+00  9.000E+00
      25     1     1     2     0     0 -9.025149538E+01  2.149021627E+02 -8.559632293E+01  2.779928101E+02  1.250000000E+02  0.00000E+00  9.000E+00
      25     1     1     2     0     0  7.895841464E+01 -2.389616737E+02  4.582771537E+02  5.375686583E+02  1.250000000E+02  0.00000E+00  9.000E+00
      -4     1     1     2     0   501  1.129308074E+01  2.405951100E+01 -6.755742191E+02  6.760968269E+02  7.629394531E-06  0.00000E+00  9.000E+00
#rwgt            1           1   2.8583191663959000E-002           2      286008           0
</event>
<event>
      5   9999  3.19816E-02  9.11122E+02 -1.00000E+00  9.19722E-02
      21    -1     0     0   502   501  0.000000000E+00  0.000000000E+00  6.081200257E+02  6.081200257E+02  0.000000000E+00  0.00000E+00  9.000E+00
      21    -1     0     0   501   511  0.000000000E+00  0.000000000E+00 -1.698561492E+03  1.698561492E+03  0.000000000E+00  0.00000E+00  9.000E+00
      25     1     1     2     0     0 -6.449397181E+02  1.251905399E+02 -2.234759071E+01  6.691370010E+02  1.250000000E+02  0.00000E+00  9.000E+00
      25     1     1     2     0     0 -2.649620116E+02 -7.805335448E+01 -1.302156799E+02  3.299671454E+02  1.250000000E+02  0.00000E+00  9.000E+00
      21     1     1     2   502   511  9.099017297E+02 -4.713718537E+01 -9.378781953E+02  1.307577371E+03  1.525878906E-05  0.00000E+00  9.000E+00
#rwgt            2          11   1.0552083566708182E-002           2      286302           0
</event>
<event>
      5   9999  3.19816E-02  7.14206E+01 -1.00000E+00  1.30780E-01
      21    -1     0     0   502   501  0.000000000E+00  0.000000000E+00  5.490955807E+02  5.490955807E+02  0.000000000E+00  0.00000E+00  9.000E+00
      21    -1     0     0   501   512  0.000000000E+00  0.000000000E+00 -6.126311259E+02  6.126311259E+02  0.000000000E+00  0.00000E+00  9.000E+00
      25     1     1     2     0     0 -1.034938056E+02  3.997983573E+02  2.781368456E+02  5.133564056E+02  1.250000000E+02  0.00000E+00  9.000E+00
      25     1     1     2     0     0  6.109646890E+01 -4.572733227E+02 -3.134074775E+02  5.715600730E+02  1.250000000E+02  0.00000E+00  9.000E+00
      21     1     1     2   502   512  4.239733670E+01  5.747496535E+01 -2.826491323E+01  7.681022797E+01  1.118282261E-06  0.00000E+00  9.000E+00
#rwgt            1           1   2.8140098978840344E-002           2      286322           0
</event>
<event>
      5   9999  3.19816E-02  1.66506E+01 -1.00000E+00  1.73216E-01
      21    -1     0     0   511   501  0.000000000E+00  0.000000000E+00  3.985181656E+02  3.985181656E+02  0.000000000E+00  0.00000E+00  9.000E+00
      21    -1     0     0   501   502  0.000000000E+00  0.000000000E+00 -3.174996046E+02  3.174996046E+02  0.000000000E+00  0.00000E+00  9.000E+00
      25     1     1     2     0     0 -3.019334747E+01 -3.030362437E+02 -7.703864309E+01  3.380866098E+02  1.250000000E+02  0.00000E+00  9.000E+00
      25     1     1     2     0     0  3.536362975E+01  2.872087305E+02  1.216196162E+02  3.378694604E+02  1.250000000E+02  0.00000E+00  9.000E+00
      21     1     1     2   511   502 -5.170282282E+00  1.582751319E+01  3.643758785E+01  4.006169992E+01  4.768371582E-07  0.00000E+00  9.000E+00
#rwgt            1           1   2.7067386681323562E-002           2      286417           0
</event>
<event>
      5   9999  3.19816E-02  3.43652E+01 -1.00000E+00  1.49052E-01
      21    -1     0     0   502   501  0.000000000E+00  0.000000000E+00  3.083793421E+02  3.083793421E+02  0.000000000E+00  0.00000E+00  9.000E+00
      21    -1     0     0   512   502  0.000000000E+00  0.000000000E+00 -4.735871888E+02  4.735871888E+02  0.000000000E+00  0.00000E+00  9.000E+00
      25     1     1     2     0     0  1.093231795E+02 -1.769455205E+02 -3.405685661E+02  4.181784583E+02  1.250000000E+02  0.00000E+00  9.000E+00
      25     1     1     2     0     0 -1.085122326E+02  2.113011392E+02  1.874127955E+02  3.273707867E+02  1.250000000E+02  0.00000E+00  9.000E+00
      21     1     1     2   512   501 -8.109469462E-01 -3.435561869E+01 -1.205207607E+01  3.641728584E+01  1.192092896E-06  0.00000E+00  9.000E+00
#rwgt            1           1   3.1449122389054063E-002           2      286610           0
</event>
<event>
      5   9999  3.19816E-02  2.44668E+01 -1.00000E+00  1.59455E-01
      21    -1     0     0   502   501  0.000000000E+00  0.000000000E+00  4.523411073E+02  4.523411073E+02  0.000000000E+00  0.00000E+00  9.000E+00
      21    -1     0     0   511   502  0.000000000E+00  0.000000000E+00 -7.277944225E+02  7.277944225E+02  0.000000000E+00  0.00000E+00  9.000E+00
      25     1     1     2     0     0  2.387353673E+02 -2.531313818E+02  2.975736202E+02  4.745999699E+02  1.250000000E+02  0.00000E+00  9.000E+00
      25     1     1     2     0     0 -2.391521389E+02  2.775946149E+02 -5.387544283E+02  6.634258434E+02  1.250000000E+02  0.00000E+00  9.000E+00
      21     1     1     2   511   501  4.167715773E-01 -2.446323311E+01 -3.427250707E+01  4.210971638E+01  6.743495762E-07  0.00000E+00  9.000E+00
#rwgt            1           1   2.3976154666626476E-002           2      286708           0
</event>
<event>
      5   9999  3.19816E-02  4.77557E+01 -1.00000E+00  1.40223E-01
       2    -1     0     0   502     0  0.000000000E+00  0.000000000E+00  1.345463213E+03  1.345463213E+03  0.000000000E+00  0.00000E+00  9.000E+00
      21    -1     0     0   501   502  0.000000000E+00  0.000000000E+00 -6.144981764E+02  6.144981764E+02  0.000000000E+00  0.00000E+00  9.000E+00
      25     1     1     2     0     0  6.125173374E+02 -2.640438877E+02  2.783727186E+02  7.334937176E+02  1.250000000E+02  0.00000E+00  9.000E+00
      25     1     1     2     0     0 -6.034547145E+02  2.171559603E+02 -1.093560034E+02  6.624938030E+02  1.250000000E+02  0.00000E+00  9.000E+00
       2     1     1     2   501     0 -9.062622908E+00  4.688792745E+01  5.619483211E+02  5.639738686E+02  0.000000000E+00  0.00000E+00  9.000E+00
#rwgt            1           1   2.9042356496590385E-002           2      286915           0
</event>
<event>
      5   9999  3.19816E-02  2.59312E+01 -1.00000E+00  1.57570E-01
      21    -1     0     0   511   501  0.000000000E+00  0.000000000E+00  2.350558152E+02  2.350558152E+02  0.000000000E+00  0.00000E+00  9.000E+00
      21    -1     0     0   501   502  0.000000000E+00  0.000000000E+00 -1.018141061E+03  1.018141061E+03  0.000000000E+00  0.00000E+00  9.000E+00
      25     1     1     2     0     0  1.746889791E+02 -9.367155117E+01  5.823157263E+01  2.414674201E+02  1.250000000E+02  0.00000E+00  9.000E+00
      25     1     1     2     0     0 -1.727862029E+02  1.195328700E+02 -9.079185992E+02  9.402576039E+02  1.250000000E+02  0.00000E+00  9.000E+00
      21     1     1     2   511   502 -1.902776250E+00 -2.586131887E+01  6.660178106E+01  7.147185188E+01  1.348699152E-06  0.00000E+00  9.000E+00
#rwgt            1           1   2.7644475459463629E-002           2      286978           0
</event>
<event>
      5   9999  3.19816E-02  4.22800E+01 -1.00000E+00  1.43363E-01
      21    -1     0     0   502   501  0.000000000E+00  0.000000000E+00  7.615395051E+02  7.615395051E+02  0.000000000E+00  0.00000E+00  9.000E+00
      21    -1     0     0   512   502  0.000000000E+00  0.000000000E+00 -1.551959076E+02  1.551959076E+02  0.000000000E+00  0.00000E+00  9.000E+00
      25     1     1     2     0     0 -2.025456161E+02 -1.487821791E+02  2.878392221E+02  4.020413924E+02  1.250000000E+02  0.00000E+00  9.000E+00
      25     1     1     2     0     0  2.292945512E+02  1.815249610E+02  3.414188328E+02  4.666038171E+02  1.250000000E+02  0.00000E+00  9.000E+00
      21     1     1     2   512   501 -2.674893517E+01 -3.274278184E+01 -2.291445742E+01  4.809020331E+01  8.259061849E-07  0.00000E+00  9.000E+00
#rwgt            1           1   2.7869743830873175E-002           2      287178           0
</event>
<event>
      5   9999  3.19816E-02  8.76139E+01 -1.00000E+00  1.26467E-01
       1    -1     0     0   502     0  0.000000000E+00  0.000000000E+00  1.012400467E+03  1.012400467E+03  0.000000000E+00  0.00000E+00  9.000E+00
      21    -1     0     0   501   502  0.000000000E+00  0.000000000E+00 -3.802770644E+02  3.802770644E+02  0.000000000E+00  0.00000E+00  9.000E+00
      25     1     1     2     0     0 -1.534954551E+02 -3.095898030E+02  2.140268373E+02  4.252519111E+02  1.250000000E+02  0.00000E+00  9.000E+00
      25     1     1     2     0     0  1.541598193E+02  3.972011792E+02 -8.896473359E+01  4.528506934E+02  1.250000000E+02  0.00000E+00  9.000E+00
       1     1     1     2   501     0 -6.643642324E-01 -8.761137622E+01  5.070612989E+02  5.145749270E+02  7.629394531E-06  0.00000E+00  9.000E+00
#rwgt            1           1   2.8152968901110405E-002           2      287254           0
</event>
<event>
      5   9999  3.19816E-02  3.90697E+01 -1.00000E+00  1.45477E-01
      21    -1     0     0   502   511  0.000000000E+00  0.000000000E+00  1.155793548E+03  1.155793548E+03  0.000000000E+00  0.00000E+00  9.000E+00
      21    -1     0     0   501   502  0.000000000E+00  0.000000000E+00 -1.400704100E+02  1.400704100E+02  0.000000000E+00  0.00000E+00  9.000E+00
      25     1     1     2     0     0  6.804192591E+01  3.526956342E+02  3.959067696E+02  5.489909692E+02  1.250000000E+02  0.00000E+00  9.000E+00
      25     1     1     2     0     0 -2.903500121E+01 -3.549091993E+02  5.539345405E+02  6.702775889E+02  1.250000000E+02  0.00000E+00  9.000E+00
      21     1     1     2   501   511 -3.900692470E+01  2.213565090E+00  6.588182825E+01  7.659540024E+01  0.000000000E+00  0.00000E+00  9.000E+00
#rwgt            1           1   2.8925864496026188E-002           2      287378           0
</event>
<event>
      5   9999  3.19816E-02  3.05997E+01 -1.00000E+00  1.52445E-01
      21    -1     0     0   502   501  0.000000000E+00  0.000000000E+00  5.551241565E+02  5.551241565E+02  0.000000000E+00  0.00000E+00  9.000E+00
      21    -1     0     0   512   502  0.000000000E+00  0.000000000E+00 -4.683062229E+02  4.683062229E+02  0.000000000E+00  0.00000E+00  9.000E+00
      25     1     1     2     0     0 -2.085563444E+01 -4.388786616E+02 -1.422001890E+02  4.784300689E+02  1.250000000E+02  0.00000E+00  9.000E+00
      25     1     1     2     0     0  3.995872041E+01  4.149743544E+02  2.553696980E+02  5.046177730E+02  1.250000000E+02  0.00000E+00  9.000E+00
      21     1     1     2   512   501 -1.910308597E+01  2.390430723E+01 -2.635157547E+01  4.038253741E+01  4.768371582E-07  0.00000E+00  9.000E+00
#rwgt            1           1   2.3973516025724086E-002           2      287469           0
</event>
<event>
      5   9999  3.19816E-02  2.14644E+01 -1.00000E+00  1.63876E-01
      21    -1     0     0   502   501  0.000000000E+00  0.000000000E+00  4.485717005E+02  4.485717005E+02  0.000000000E+00  0.00000E+00  9.000E+00
      21    -1     0     0   501   511  0.000000000E+00  0.000000000E+00 -1.542617699E+02  1.542617699E+02  0.000000000E+00  0.00000E+00  9.000E+00
      25     1     1     2     0     0 -9.065098153E+01 -1.123369798E+02  2.656224167E+02  3.271352407E+02  1.250000000E+02  0.00000E+00  9.000E+00
      25     1     1     2     0     0  1.013280934E+02  1.309574489E+02  7.821455730E+01  2.217199876E+02  1.250000000E+02  0.00000E+00  9.000E+00
      21     1     1     2   502   511 -1.067711186E+01 -1.862046916E+01 -4.952704332E+01  5.397824200E+01  9.536743164E-07  0.00000E+00  9.000E+00
#rwgt            1           1   2.6673878655068040E-002           2      287623           0
</event>
<event>
      5   9999  3.19816E-02  1.11902E+02 -1.00000E+00  1.21670E-01
      21    -1     0     0   502   512  0.000000000E+00  0.000000000E+00  1.394720398E+02  1.394720398E+02  0.000000000E+00  0.00000E+00  9.000E+00
      21    -1     0     0   501   502  0.000000000E+00  0.000000000E+00 -1.065332389E+03  1.065332389E+03  0.000000000E+00  0.00000E+00  9.000E+00
      25     1     1     2     0     0 -1.181261033E+02  1.323985490E+02 -3.297847153E+02  3.947988228E+02  1.250000000E+02  0.00000E+00  9.000E+00
      25     1     1     2     0     0  6.557883112E+00 -1.410395511E+02 -6.563503544E+02  6.829025908E+02  1.250000000E+02  0.00000E+00  9.000E+00
      21     1     1     2   501   512  1.115682202E+02  8.641002133E+00  6.027472008E+01  1.271030155E+02  2.861022949E-06  0.00000E+00  9.000E+00
#rwgt            1           1   2.6902962984702815E-002           2      287778           0
</event>
<event>
      5   9999  3.19816E-02  7.04523E+01 -1.00000E+00  1.31079E-01
      21    -1     0     0   502   501  0.000000000E+00  0.000000000E+00  7.005681892E+02  7.005681892E+02  0.000000000E+00  0.00000E+00  9.000E+00
      21    -1     0     0   501   511  0.000000000E+00  0.000000000E+00 -5.506844356E+02  5.506844356E+02  0.000000000E+00  0.00000E+00  9.000E+00
      25     1     1     2     0     0  3.147903530E+02  3.594617526E+02 -2.144936172E+02  5.384591255E+02  1.250000000E+02  0.00000E+00  9.000E+00
      25     1     1     2     0     0 -2.542658254E+02 -3.234019575E+02  4.359911590E+02  6.123342443E+02  1.250000000E+02  0.00000E+00  9.000E+00
      21     1     1     2   502   511 -6.052452768E+01 -3.605979511E+01 -7.161378810E+01  1.004592550E+02  9.536743164E-07  0.00000E+00  9.000E+00
#rwgt            1           1   2.9822672466566669E-002           2      287880           0
</event>
<event>
      5   9999  3.19816E-02  4.22968E+02 -1.00000E+00  1.00961E-01
      21    -1     0     0   502   501  0.000000000E+00  0.000000000E+00  6.021711491E+02  6.021711491E+02  0.000000000E+00  0.00000E+00  9.000E+00
       2    -1     0     0   501     0  0.000000000E+00  0.000000000E+00 -7.826614378E+02  7.826614378E+02  0.000000000E+00  0.00000E+00  9.000E+00
      25     1     1     2     0     0  5.138998911E+01  3.706082286E+02  8.625561662E+01  4.038024536E+02  1.250000000E+02  0.00000E+00  9.000E+00
      25     1     1     2     0     0  1.224277971E+01  4.754606738E+01 -4.862794020E+02  5.044830730E+02  1.250000000E+02  0.00000E+00  9.000E+00
       2     1     1     2   502     0 -6.363276881E+01 -4.181542960E+02  2.195334967E+02  4.765470603E+02  6.607249480E-06  0.00000E+00  9.000E+00
#rwgt            1           1   2.8057040229379670E-002           2      288016           0
</event>
<event>
      5   9999  3.19816E-02  8.19220E+00 -1.00000E+00  2.06332E-01
       2    -1     0     0   502     0  0.000000000E+00  0.000000000E+00  1.394315243E+03  1.394315243E+03  0.000000000E+00  0.00000E+00  9.000E+00
      21    -1     0     0   501   502  0.000000000E+00  0.000000000E+00 -5.391751724E+01  5.391751724E+01  0.000000000E+00  0.00000E+00  9.000E+00
      25     1     1     2     0     0  8.948243426E+01  4.437427132E+01  1.909532556E+02  2.491271318E+02  1.250000000E+02  0.00000E+00  9.000E+00
      25     1     1     2     0     0 -8.904551938E+01 -5.255481328E+01  2.403416478E+02  2.899658955E+02  1.250000000E+02  0.00000E+00  9.000E+00
       2     1     1     2   501     0 -4.369148889E-01  8.180541959E+00  9.091028229E+02  9.091397334E+02  1.078959322E-05  0.00000E+00  9.000E+00
#rwgt            1           1   2.2518062115244288E-002           2      288053           0
</event>
<event>
      5   9999  3.19816E-02  5.96948E+01 -1.00000E+00  1.34822E-01
      21    -1     0     0   502   501  0.000000000E+00  0.000000000E+00  1.081636579E+03  1.081636579E+03  0.000000000E+00  0.00000E+00  9.000E+00
       2    -1     0     0   501     0  0.000000000E+00  0.000000000E+00 -1.187030521E+03  1.187030521E+03  0.000000000E+00  0.00000E+00  9.000E+00
      25     1     1     2     0     0 -4.908594504E+02 -5.362357812E+02  4.867532766E+02  8.837678232E+02  1.250000000E+02  0.00000E+00  9.000E+00
      25     1     1     2     0     0  4.941965915E+02  4.766343295E+02  8.686813363E+01  7.032649769E+02  1.250000000E+02  0.00000E+00  9.000E+00
       2     1     1     2   502     0 -3.337141176E+00  5.960145175E+01 -6.790153523E+02  6.816342994E+02  0.000000000E+00  0.00000E+00  9.000E+00
#rwgt            1           1   2.2962702384485882E-002           2      288182           0
</event>
<event>
      5   9999  3.19816E-02  1.50720E+02 -1.00000E+00  1.16311E-01
      -1    -1     0     0     0   501  0.000000000E+00  0.000000000E+00  7.316477974E+02  7.316477974E+02  0.000000000E+00  0.00000E+00  9.000E+00
      21    -1     0     0   501   502  0.000000000E+00  0.000000000E+00 -3.171266831E+02  3.171266831E+02  0.000000000E+00  0.00000E+00  9.000E+00
      25     1     1     2     0     0 -1.523775368E+02  1.251620629E+01 -1.642817322E+02  2.568833523E+02  1.250000000E+02  0.00000E+00  9.000E+00
      25     1     1     2     0     0  2.859576121E+02  5.728900385E+01  1.782925839E+02  3.639602058E+02  1.250000000E+02  0.00000E+00  9.000E+00
      -1     1     1     2     0   502 -1.335800753E+02 -6.980521014E+01  4.005102626E+02  4.279309224E+02  5.394796609E-06  0.00000E+00  9.000E+00
#rwgt            1           1   2.5184755995658691E-002           2      288308           0
</event>
<event>
      5   9999  3.19816E-02  3.43156E+01 -1.00000E+00  1.49093E-01
      21    -1     0     0   502   501  0.000000000E+00  0.000000000E+00  7.708177865E+02  7.708177865E+02  0.000000000E+00  0.00000E+00  9.000E+00
      21    -1     0     0   501   511  0.000000000E+00  0.000000000E+00 -5.270590233E+02  5.270590233E+02  0.000000000E+00  0.00000E+00  9.000E+00
      25     1     1     2     0     0  1.619419056E+02 -2.412163810E+02  2.023145091E+02  3.754553021E+02  1.250000000E+02  0.00000E+00  9.000E+00
      25     1     1     2     0     0 -1.961876801E+02  2.434038119E+02  4.222622321E+02  5.400605653E+02  1.250000000E+02  0.00000E+00  9.000E+00
      21     1     1     2   502   511  3.424577449E+01 -2.187430873E+00 -3.808179781E+02  3.823609425E+02  5.394796609E-06  0.00000E+00  9.000E+00
#rwgt            1           1   2.7447057004761143E-002           2      288337           0
</event>
<event>
      5   9999  3.19816E-02  4.76354E+01 -1.00000E+00  1.40287E-01
      21    -1     0     0   502   501  0.000000000E+00  0.000000000E+00  2.830637699E+02  2.830637699E+02  0.000000000E+00  0.00000E+00  9.000E+00
      21    -1     0     0   512   502  0.000000000E+00  0.000000000E+00 -5.515190465E+02  5.515190465E+02  0.000000000E+00  0.00000E+00  9.000E+00
      25     1     1     2     0     0 -2.219161890E+02 -1.808686696E+02  9.128919544E+01  3.254519746E+02  1.250000000E+02  0.00000E+00  9.000E+00
      25     1     1     2     0     0  1.841809038E+02  2.099405803E+02 -2.725060095E+02  4.097342770E+02  1.250000000E+02  0.00000E+00  9.000E+00
      21     1     1     2   512   501  3.773528521E+01 -2.907191072E+01 -8.723846256E+01  9.939656480E+01  9.536743164E-07  0.00000E+00  9.000E+00
#rwgt            1           1   2.8182389774108540E-002           2      288431           0
</event>
<event>
      5   9999  3.22679E-02  1.64151E+01 -1.00000E+00  1.73773E-01
      21    -1     0     0   502   511  0.000000000E+00  0.000000000E+00  1.113411997E+02  1.113411997E+02  0.000000000E+00  0.00000E+00  9.000E+00
      21    -1     0     0   501   502  0.000000000E+00  0.000000000E+00 -2.512029478E+03  2.512029478E+03  0.000000000E+00  0.00000E+00  9.000E+00
      25     1     1     2     0     0 -3.011546996E+02  2.086918183E+02 -2.059285346E+03  2.095358577E+03  1.250000000E+02  0.00000E+00  9.000E+00
      25     1     1     2     0     0  3.093871905E+02 -1.944903599E+02 -3.302083957E+02  5.081432065E+02  1.250000000E+02  0.00000E+00  9.000E+00
      21     1     1     2   501   511 -8.232490954E+00 -1.420145835E+01 -1.119453694E+01  1.986889488E+01  3.153981341E-07  0.00000E+00  9.000E+00
#rwgt            1           1   9.7505115003215223E-002           2      288540           0
</event>
<event>
      5   9999  3.19816E-02  7.43184E+01 -1.00000E+00  1.29917E-01
      -4    -1     0     0     0   501  0.000000000E+00  0.000000000E+00  1.565036093E+03  1.565036093E+03  0.000000000E+00  0.00000E+00  9.000E+00
      21    -1     0     0   501   502  0.000000000E+00  0.000000000E+00 -2.353336737E+02  2.353336737E+02  0.000000000E+00  0.00000E+00  9.000E+00
      25     1     1     2     0     0  3.862437831E+01 -4.517162346E+02  2.222680781E+02  5.201610305E+02  1.250000000E+02  0.00000E+00  9.000E+00
      25     1     1     2     0     0 -1.128047966E+01  3.826109444E+02  3.955290683E+02  5.644347862E+02  1.250000000E+02  0.00000E+00  9.000E+00
      -4     1     1     2     0   502 -2.734389865E+01  6.910529018E+01  7.119052725E+02  7.157739496E+02  1.321449896E-05  0.00000E+00  9.000E+00
#rwgt            1           1   2.9922112624030935E-002           2      288717           0
</event>
<event>
      5   9999  3.19816E-02  7.71737E+01 -1.00000E+00  1.29110E-01
      21    -1     0     0   502   511  0.000000000E+00  0.000000000E+00  5.536746915E+02  5.536746915E+02  0.000000000E+00  0.00000E+00  9.000E+00
      21    -1     0     0   501   502  0.000000000E+00  0.000000000E+00 -5.892738638E+02  5.892738638E+02  0.000000000E+00  0.00000E+00  9.000E+00
      25     1     1     2     0     0  3.463665103E+02 -3.035020795E+01 -6.895711473E+01  3.758603175E+02  1.250000000E+02  0.00000E+00  9.000E+00
      25     1     1     2     0     0 -3.284015755E+02 -4.470339664E+01 -2.754940507E+02  4.487404154E+02  1.250000000E+02  0.00000E+00  9.000E+00
      21     1     1     2   501   511 -1.796493477E+01  7.505360459E+01  3.088519931E+02  3.183478225E+02  5.394796609E-06  0.00000E+00  9.000E+00
#rwgt            1           1   2.6968971383306076E-002           2      288826           0
</event>
<event>
      5   9999  3.19816E-02  1.86897E+01 -1.00000E+00  1.68834E-01
      21    -1     0     0   512   501  0.000000000E+00  0.000000000E+00  2.929730410E+01  2.929730410E+01  0.000000000E+00  0.00000E+00  9.000E+00
      21    -1     0     0   501   502  0.000000000E+00  0.000000000E+00 -1.369261234E+03  1.369261234E+03  0.000000000E+00  0.00000E+00  9.000E+00
      25     1     1     2     0     0  6.521137766E+01  7.760527982E+01 -2.902765763E+02  3.319044952E+02  1.250000000E+02  0.00000E+00  9.000E+00
      25     1     1     2     0     0 -4.875079007E+01 -8.645695184E+01 -1.012821341E+03  1.025321176E+03  1.250000000E+02  0.00000E+00  9.000E+00
      21     1     1     2   512   502 -1.646058760E+01  8.851672021E+00 -3.686601274E+01  4.133286751E+01  6.743495762E-07  0.00000E+00  9.000E+00
#rwgt            1           1   2.1179201766894924E-002           2      288954           0
</event>
<event>
      5   9999  3.19816E-02  3.39500E+01 -1.00000E+00  1.49400E-01
      21    -1     0     0   502   511  0.000000000E+00  0.000000000E+00  1.289803717E+03  1.289803717E+03  0.000000000E+00  0.00000E+00  9.000E+00
      21    -1     0     0   501   502  0.000000000E+00  0.000000000E+00 -7.956176335E+01  7.956176335E+01  0.000000000E+00  0.00000E+00  9.000E+00
      25     1     1     2     0     0  1.789356127E+02 -7.463516608E+01  1.367381165E+02  2.681616565E+02  1.250000000E+02  0.00000E+00  9.000E+00
      25     1     1     2     0     0 -1.643879728E+02  4.395998243E+01  9.035101134E+02  9.278531191E+02  1.250000000E+02  0.00000E+00  9.000E+00
      21     1     1     2   501   511 -1.454763994E+01  3.067518365E+01  1.699937236E+02  1.733507046E+02  2.697398305E-06  0.00000E+00  9.000E+00
#rwgt            1           1   2.8897823886791213E-002           2      289149           0
</event>
<event>
      5   9999  3.19816E-02  4.45607E+01 -1.00000E+00  1.41991E-01
      21    -1     0     0   502   501  0.000000000E+00  0.000000000E+00  3.307549140E+02  3.307549140E+02  0.000000000E+00  0.00000E+00  9.000E+00
      21    -1     0     0   501   512  0.000000000E+00  0.000000000E+00 -5.780873318E+02  5.780873318E+02  0.000000000E+00  0.00000E+00  9.000E+00
      25     1     1     2     0     0  1.902247753E+02  7.008869022E+01  2.265127672E+02  3.286805795E+02  1.250000000E+02  0.00000E+00  9.000E+00
      25     1     1     2     0     0 -2.149580086E+02 -3.302227029E+01 -2.582954510E+02  3.600541012E+02  1.250000000E+02  0.00000E+00  9.000E+00
      21     1     1     2   502   512  2.473323324E+01 -3.706641994E+01 -2.155497342E+02  2.201075651E+02  2.697398305E-06  0.00000E+00  9.000E+00
#rwgt            1           1   2.6532894391914381E-002           2      289297           0
</event>
<event>
      5   9999  3.19816E-02  6.31249E+01 -1.00000E+00  1.33536E-01
      21    -1     0     0   502   501  0.000000000E+00  0.000000000E+00  5.761777530E+02  5.761777530E+02  0.000000000E+00  0.00000E+00  9.000E+00
      21    -1     0     0   501   511  0.000000000E+00  0.000000000E+00 -2.745662787E+03  2.745662787E+03  0.000000000E+00  0.00000E+00  9.000E+00
      25     1     1     2     0     0  1.147122346E+03 -3.557123653E+02 -1.185838889E+03  1.692412430E+03  1.250000000E+02  0.00000E+00  9.000E+00
      25     1     1     2     0     0 -1.185903261E+03  3.059048572E+02 -9.016898268E+02  1.525979643E+03  1.250000000E+02  0.00000E+00  9.000E+00
      21     1     1     2   502   511  3.878091540E+01  4.980750802E+01 -8.195631775E+01  1.034484668E+02  2.132480600E-06  0.00000E+00  9.000E+00
#rwgt            1           1   6.8016228487093419E-002           2      289420           0
</event>
<event>
      5   9999  3.19816E-02  2.88678E+02 -1.00000E+00  1.06138E-01
      21    -1     0     0   502   501  0.000000000E+00  0.000000000E+00  5.829394797E+02  5.829394797E+02  0.000000000E+00  0.00000E+00  9.000E+00
      21    -1     0     0   512   502  0.000000000E+00  0.000000000E+00 -7.949698291E+02  7.949698291E+02  0.000000000E+00  0.00000E+00  9.000E+00
      25     1     1     2     0     0  5.349050345E+02  2.444490713E+02 -2.055183334E+02  6.354065862E+02  1.250000000E+02  0.00000E+00  9.000E+00
      25     1     1     2     0     0 -3.537382955E+02 -1.969727690E+01  1.610091670E+02  4.087391788E+02  1.250000000E+02  0.00000E+00  9.000E+00
      21     1     1     2   512   501 -1.811667390E+02 -2.247517944E+02 -1.675211831E+02  3.337635438E+02  4.672030912E-06  0.00000E+00  9.000E+00
#rwgt            2          11   3.2126213546303990E-003           2      289791           0
</event>
<event>
      5   9999  3.19816E-02  1.84330E+01 -1.00000E+00  1.69347E-01
      21    -1     0     0   502   501  0.000000000E+00  0.000000000E+00  3.117517545E+02  3.117517545E+02  0.000000000E+00  0.00000E+00  9.000E+00
      21    -1     0     0   501   511  0.000000000E+00  0.000000000E+00 -5.592516569E+02  5.592516569E+02  0.000000000E+00  0.00000E+00  9.000E+00
      25     1     1     2     0     0  1.649027623E+02 -1.879564369E+02 -4.777390340E+01  2.835981118E+02  1.250000000E+02  0.00000E+00  9.000E+00
      25     1     1     2     0     0 -1.602817041E+02  1.701120303E+02  1.028203083E+02  2.842979834E+02  1.250000000E+02  0.00000E+00  9.000E+00
      21     1     1     2   502   511 -4.621058144E+00  1.784440663E+01 -3.025463074E+02  3.031073162E+02  3.814697266E-06  0.00000E+00  9.000E+00
#rwgt            1           1   2.6443329345469353E-002           2      289826           0
</event>
<event>
      5   9999  3.19816E-02  3.89825E+00 -1.00000E+00  2.66135E-01
      21    -1     0     0   512   501  0.000000000E+00  0.000000000E+00  6.817549896E+02  6.817549896E+02  0.000000000E+00  0.00000E+00  9.000E+00
      21    -1     0     0   501   502  0.000000000E+00  0.000000000E+00 -5.879810110E+01  5.879810110E+01  0.000000000E+00  0.00000E+00  9.000E+00
      25     1     1     2     0     0  3.745315761E+01  8.469082960E+01  1.310597114E+02  2.034131844E+02  1.250000000E+02  0.00000E+00  9.000E+00
      25     1     1     2     0     0 -4.073578587E+01 -8.258827831E+01  2.439734421E+02  2.891855259E+02  1.250000000E+02  0.00000E+00  9.000E+00
      21     1     1     2   512   502  3.282628258E+00 -2.102551284E+00  2.479237350E+02  2.479543804E+02  3.814697266E-06  0.00000E+00  9.000E+00
#rwgt            1           1   2.5015295693535194E-002           2      289997           0
</event>
<event>
      5   9999  3.19816E-02  8.15444E+01 -1.00000E+00  1.27949E-01
      21    -1     0     0   502   501  0.000000000E+00  0.000000000E+00  3.370462475E+02  3.370462475E+02  0.000000000E+00  0.00000E+00  9.000E+00
      21    -1     0     0   501   511  0.000000000E+00  0.000000000E+00 -3.063075963E+02  3.063075963E+02  0.000000000E+00  0.00000E+00  9.000E+00
      25     1     1     2     0     0 -1.382845510E+02  4.401344939E+01  1.659130266E+02  2.534007363E+02  1.250000000E+02  0.00000E+00  9.000E+00
      25     1     1     2     0     0  1.966961137E+02 -1.009131155E+02 -2.832004905E+01  2.555383399E+02  1.250000000E+02  0.00000E+00  9.000E+00
      21     1     1     2   502   511 -5.841156268E+01  5.689966609E+01 -1.068543264E+02  1.344147675E+02  1.907348633E-06  0.00000E+00  9.000E+00
#rwgt            1           1   2.7851323587041336E-002           2      290357           0
</event>
<event>
      5   9999  3.19816E-02  2.53541E+02 -1.00000E+00  1.08022E-01
      21    -1     0     0   502   501  0.000000000E+00  0.000000000E+00  7.076782444E+02  7.076782444E+02  0.000000000E+00  0.00000E+00  9.000E+00
       2    -1     0     0   501     0  0.000000000E+00  0.000000000E+00 -1.661460270E+03  1.661460270E+03  0.000000000E+00  0.00000E+00  9.000E+00
      25     1     1     2     0     0 -1.945681614E+02 -2.695412703E+02  1.941252681E+02  4.047454577E+02  1.250000000E+02  0.00000E+00  9.000E+00
      25     1     1     2     0     0  1.056585583E+02  3.210050591E+01  3.803150669E+02  4.152814991E+02  1.250000000E+02  0.00000E+00  9.000E+00
       2     1     1     2   502     0  8.890960307E+01  2.374407644E+02 -1.528222360E+03  1.549111557E+03  2.157918644E-05  0.00000E+00  9.000E+00
#rwgt            1           1   2.7859563315091141E-002           2      290413           0
</event>
<event>
      5   9999  3.19816E-02  4.40909E+01 -1.00000E+00  1.42265E-01
      21    -1     0     0   502   501  0.000000000E+00  0.000000000E+00  1.821063648E+03  1.821063648E+03  0.000000000E+00  0.00000E+00  9.000E+00
      21    -1     0     0   511   502  0.000000000E+00  0.000000000E+00 -1.313664654E+02  1.313664654E+02  0.000000000E+00  0.00000E+00  9.000E+00
      25     1     1     2     0     0  1.908891043E+02 -3.447766874E+02  4.171532503E+02  5.873256750E+02  1.250000000E+02  0.00000E+00  9.000E+00
      25     1     1     2     0     0 -1.994213432E+02  3.015191775E+02  1.263455999E+03  1.320086645E+03  1.250000000E+02  0.00000E+00  9.000E+00
      21     1     1     2   511   501  8.532238882E+00  4.325750989E+01  9.087933176E+00  4.501779417E+01  6.951036328E-07  0.00000E+00  9.000E+00
#rwgt            1           1   2.7655927736504510E-002           2      290475           0
</event>
<event>
      5   9999  3.19816E-02  4.32889E+01 -1.00000E+00  1.42744E-01
      21    -1     0     0   512   501  0.000000000E+00  0.000000000E+00  6.084691678E+02  6.084691678E+02  0.000000000E+00  0.00000E+00  9.000E+00
      21    -1     0     0   501   502  0.000000000E+00  0.000000000E+00 -2.182284436E+02  2.182284436E+02  0.000000000E+00  0.00000E+00  9.000E+00
      25     1     1     2     0     0  2.447083783E+02 -6.591013745E+01 -5.168754804E+01  2.872680617E+02  1.250000000E+02  0.00000E+00  9.000E+00
      25     1     1     2     0     0 -2.131975684E+02  9.559180087E+01  3.943151952E+02  4.750794342E+02  1.250000000E+02  0.00000E+00  9.000E+00
      21     1     1     2   512   502 -3.151080990E+01 -2.968166341E+01  4.761307697E+01  6.435011563E+01  1.168007728E-06  0.00000E+00  9.000E+00
#rwgt            1           1   3.2525041346586764E-002           2      290613           0
</event>
<event>
      5   9999  3.19816E-02  3.46855E+01 -1.00000E+00  1.48787E-01
      21    -1     0     0   502   501  0.000000000E+00  0.000000000E+00  6.692474506E+01  6.692474506E+01  0.000000000E+00  0.00000E+00  9.000E+00
       2    -1     0     0   501     0  0.000000000E+00  0.000000000E+00 -1.503410092E+03  1.503410092E+03  0.000000000E+00  0.00000E+00  9.000E+00
      25     1     1     2     0     0 -2.953678231E+01  5.688691783E+01 -2.957117318E+01  1.435548578E+02  1.250000000E+02  0.00000E+00  9.000E+00
      25     1     1     2     0     0  2.872677226E+01 -9.156298553E+01 -6.412261543E+02  6.603067384E+02  1.250000000E+02  0.00000E+00  9.000E+00
       2     1     1     2   502     0  8.100100576E-01  3.467606770E+01 -7.656880193E+02  7.664732407E+02  0.000000000E+00  0.00000E+00  9.000E+00
#rwgt            1           1   3.0541238354221990E-002           2      290713           0
</event>
<event>
      5   9999  3.19816E-02  3.54374E+02 -1.00000E+00  1.03294E-01
      21    -1     0     0   511   501  0.000000000E+00  0.000000000E+00  1.096763069E+03  1.096763069E+03  0.000000000E+00  0.00000E+00  9.000E+00
      21    -1     0     0   501   502  0.000000000E+00  0.000000000E+00 -4.728400476E+02  4.728400476E+02  0.000000000E+00  0.00000E+00  9.000E+00
      25     1     1     2     0     0  3.994364068E+02 -2.489410616E+02 -2.336138617E+02  5.401125176E+02  1.250000000E+02  0.00000E+00  9.000E+00
      25     1     1     2     0     0 -5.873829645E+01  1.514449960E+02  4.123438118E+02  4.604760509E+02  1.250000000E+02  0.00000E+00  9.000E+00
      21     1     1     2   511   502 -3.406981104E+02  9.749606558E+01  4.451930710E+02  5.690145479E+02  5.394796609E-06  0.00000E+00  9.000E+00
#rwgt            2          11   2.5442674036913028E-003           2      291044           0
</event>
<event>
      5   9999  3.19816E-02  1.50261E+02 -1.00000E+00  1.16364E-01
      21    -1     0     0   512   501  0.000000000E+00  0.000000000E+00  3.529291689E+02  3.529291689E+02  0.000000000E+00  0.00000E+00  9.000E+00
      21    -1     0     0   501   502  0.000000000E+00  0.000000000E+00 -1.289245406E+03  1.289245406E+03  0.000000000E+00  0.00000E+00  9.000E+00
      25     1     1     2     0     0 -1.400423726E+02 -1.781030943E+02 -1.160954308E+03  1.189442089E+03  1.250000000E+02  0.00000E+00  9.000E+00
      25     1     1     2     0     0  8.511247096E+00  1.054533548E+02  2.514727259E+02  3.000939574E+02  1.250000000E+02  0.00000E+00  9.000E+00
      21     1     1     2   512   502  1.315311255E+02  7.264973951E+01 -2.683465502E+01  1.526385283E+02  4.003728777E-06  0.00000E+00  9.000E+00
#rwgt            2          11   6.0081751044577317E-003           2      291109           0
</event>
<event>
      5   9999  3.19816E-02  2.83092E+01 -1.00000E+00  1.54811E-01
      21    -1     0     0   511   501  0.000000000E+00  0.000000000E+00  4.427508022E+02  4.427508022E+02  0.000000000E+00  0.00000E+00  9.000E+00
      21    -1     0     0   501   502  0.000000000E+00  0.000000000E+00 -7.531455033E+02  7.531455033E+02  0.000000000E+00  0.00000E+00  9.000E+00
      25     1     1     2     0     0  4.162120972E+02  3.361898426E+02 -7.434657916E+01  5.544443471E+02  1.250000000E+02  0.00000E+00  9.000E+00
      25     1     1     2     0     0 -4.438736817E+02 -3.301693495E+02 -2.323565479E+02  6.129031000E+02  1.250000000E+02  0.00000E+00  9.000E+00
      21     1     1     2   511   502  2.766158454E+01 -6.020493162E+00 -3.691574028E+00  2.854885840E+01  5.092623082E-07  0.00000E+00  9.000E+00
#rwgt            1           1   2.6294076860041309E-002           2      291129           0
</event>
<event>
      5   9999  3.19816E-02  5.48061E+01 -1.00000E+00  1.36839E-01
      21    -1     0     0   502   501  0.000000000E+00  0.000000000E+00  1.063704751E+02  1.063704751E+02  0.000000000E+00  0.00000E+00  9.000E+00
      21    -1     0     0   501   512  0.000000000E+00  0.000000000E+00 -9.465555652E+02  9.465555652E+02  0.000000000E+00  0.00000E+00  9.000E+00
      25     1     1     2     0     0 -8.069210172E+01 -9.382373757E+01  7.298794500E+00  1.760465320E+02  1.250000000E+02  0.00000E+00  9.000E+00
      25     1     1     2     0     0  9.043936593E+01  3.989135703E+01 -4.911734748E+02  5.163787192E+02  1.250000000E+02  0.00000E+00  9.000E+00
      21     1     1     2   502   512 -9.747264211E+00  5.393238054E+01 -3.563104098E+02  3.605007891E+02  6.607249480E-06  0.00000E+00  9.000E+00
#rwgt            1           1   2.8633012181489687E-002           2      291343           0
</event>
<event>
      5   9999  3.19816E-02  1.57516E+02 -1.00000E+00  1.15558E-01
       2    -1     0     0   502     0  0.000000000E+00  0.000000000E+00  1.314214574E+03  1.314214574E+03  0.000000000E+00  0.00000E+00  9.000E+00
      21    -1     0     0   501   502  0.000000000E+00  0.000000000E+00 -1.333176359E+03  1.333176359E+03  0.000000000E+00  0.00000E+00  9.000E+00
      25     1     1     2     0     0 -2.859420109E+02 -2.004802986E+02 -3.777650885E+02  5.294210478E+02  1.250000000E+02  0.00000E+00  9.000E+00
      25     1     1     2     0     0  3.260732736E+02  4.816192323E+01 -8.388980020E+02  9.099550584E+02  1.250000000E+02  0.00000E+00  9.000E+00
       2     1     1     2   501     0 -4.013126266E+01  1.523183754E+02  1.197701305E+03  1.208014827E+03  0.000000000E+00  0.00000E+00  9.000E+00
#rwgt            1           1   2.9249196756147417E-002           2      291427           0
</event>
<event>
      5   9999  3.19816E-02  3.91213E+01 -1.00000E+00  1.45441E-01
      21    -1     0     0   502   511  0.000000000E+00  0.000000000E+00  1.926372486E+02  1.926372486E+02  0.000000000E+00  0.00000E+00  9.000E+00
      21    -1     0     0   501   502  0.000000000E+00  0.000000000E+00 -3.472021771E+02  3.472021771E+02  0.000000000E+00  0.00000E+00  9.000E+00
      25     1     1     2     0     0  4.130902783E+01  1.525413047E+02  4.643010019E+01  2.067753361E+02  1.250000000E+02  0.00000E+00  9.000E+00
      25     1     1     2     0     0 -1.311350219E+01 -1.254214685E+02 -2.254136903E+02  2.869474525E+02  1.250000000E+02  0.00000E+00  9.000E+00
      21     1     1     2   501   511 -2.819552564E+01 -2.711983621E+01  2.441866166E+01  4.611663712E+01  0.000000000E+00  0.00000E+00  9.000E+00
#rwgt            1           1   2.4938537436021153E-002           2      291476           0
</event>
<event>
      5   9999  3.19816E-02  9.38082E+01 -1.00000E+00  1.25089E-01
      21    -1     0     0   502   501  0.000000000E+00  0.000000000E+00  8.174123799E+02  8.174123799E+02  0.000000000E+00  0.00000E+00  9.000E+00
      21    -1     0     0   501   512  0.000000000E+00  0.000000000E+00 -3.087583743E+02  3.087583743E+02  0.000000000E+00  0.00000E+00  9.000E+00
      25     1     1     2     0     0 -1.084921561E+02 -1.519498474E+02 -1.908231353E+02  2.947842822E+02  1.250000000E+02  0.00000E+00  9.000E+00
      25     1     1     2     0     0  1.789729771E+02  2.138565580E+02  6.642599263E+02  7.311854783E+02  1.250000000E+02  0.00000E+00  9.000E+00
      21     1     1     2   502   512 -7.048082101E+01 -6.190671062E+01  3.521721461E+01  1.002009938E+02  2.185142372E-06  0.00000E+00  9.000E+00
#rwgt            1           1   2.5263128838676971E-002           2      291651           0
</event>
<event>
      5   9999  3.19816E-02  1.81607E+01 -1.00000E+00  1.69902E-01
      21    -1     0     0   502   501  0.000000000E+00  0.000000000E+00  5.822508700E+02  5.822508700E+02  0.000000000E+00  0.00000E+00  9.000E+00
       2    -1     0     0   501     0  0.000000000E+00  0.000000000E+00 -5.821793699E+02  5.821793699E+02  0.000000000E+00  0.00000E+00  9.000E+00
      25     1     1     2     0     0 -5.222799119E+01  5.634647651E+01  4.691393867E+02  4.915480166E+02  1.250000000E+02  0.00000E+00  9.000E+00
      25     1     1     2     0     0  4.674817578E+01 -7.366066447E+01  4.465326636E+01  1.588401701E+02  1.250000000E+02  0.00000E+00  9.000E+00
       2     1     1     2   502     0  5.479815411E+00  1.731418797E+01 -5.137211530E+02  5.140420532E+02  0.000000000E+00  0.00000E+00  9.000E+00
#rwgt            1           1   3.0728716745129621E-002           2      291717           0
</event>
<event>
      5   9999  3.19816E-02  1.80257E+01 -1.00000E+00  1.70182E-01
      21    -1     0     0   511   501  0.000000000E+00  0.000000000E+00  1.605994705E+03  1.605994705E+03  0.000000000E+00  0.00000E+00  9.000E+00
      21    -1     0     0   501   502  0.000000000E+00  0.000000000E+00 -7.188333480E+01  7.188333480E+01  0.000000000E+00  0.00000E+00  9.000E+00
      25     1     1     2     0     0  2.575911296E+00  1.264058007E+02  3.885807378E+02  4.273231231E+02  1.250000000E+02  0.00000E+00  9.000E+00
      25     1     1     2     0     0  9.141584110E+00 -1.401034636E+02  1.160550454E+02  2.209215305E+02  1.250000000E+02  0.00000E+00  9.000E+00
      21     1     1     2   511   502 -1.171749541E+01  1.369766289E+01  1.029475587E+03  1.029633386E+03  0.000000000E+00  0.00000E+00  9.000E+00
#rwgt            1           1   2.4878855781669082E-002           2      291891           0
</event>
<event>
      5   9999  3.25556E-02  3.54701E+01 -1.00000E+00  1.48153E-01
      21    -1     0     0   512   501  0.000000000E+00  0.000000000E+00  4.355007094E+02  4.355007094E+02  0.000000000E+00  0.00000E+00  9.000E+00
      21    -1     0     0   501   502  0.000000000E+00  0.000000000E+00 -2.828365685E+02  2.828365685E+02  0.000000000E+00  0.00000E+00  9.000E+00
      25     1     1     2     0     0  1.064821506E+02  2.770671621E+02  6.627682566E+00  3.221390800E+02  1.250000000E+02  0.00000E+00  9.000E+00
      25     1     1     2     0     0 -1.413589232E+02 -2.706066297E+02  1.159451577E+02  3.496835323E+02  1.250000000E+02  0.00000E+00  9.000E+00
      21     1     1     2   512   502  3.487677259E+01 -6.460532402E+00  3.009130062E+01  4.651466563E+01  5.840038640E-07  0.00000E+00  9.000E+00
#rwgt            1           1   2.8528010992765113E-002           2      292101           0
</event>
<event>
      5   9999  3.19816E-02  1.18061E+01 -1.00000E+00  1.87775E-01
      21    -1     0     0   511   501  0.000000000E+00  0.000000000E+00  4.117798520E+02  4.117798520E+02  0.000000000E+00  0.00000E+00  9.000E+00
      21    -1     0     0   501   502  0.000000000E+00  0.000000000E+00 -7.565447699E+02  7.565447699E+02  0.000000000E+00  0.00000E+00  9.000E+00
      25     1     1     2     0     0 -4.992919918E+02  1.988850279E+02 -2.488589902E+02  6.053127658E+02  1.250000000E+02  0.00000E+00  9.000E+00
      25     1     1     2     0     0  4.877948445E+02 -2.015684120E+02 -9.751389034E+01  5.510967192E+02  1.250000000E+02  0.00000E+00  9.000E+00
      21     1     1     2   511   502  1.149714724E+01  2.683384089E+00  1.607962665E+00  1.191513696E+01  3.223614045E-07  0.00000E+00  9.000E+00
#rwgt            1           1   3.1767977257174118E-002           2      292235           0
</event>
<event>
      5   9999  3.19816E-02  6.30170E+01 -1.00000E+00  1.33575E-01
      21    -1     0     0   502   512  0.000000000E+00  0.000000000E+00  3.066022283E+02  3.066022283E+02  0.000000000E+00  0.00000E+00  9.000E+00
      21    -1     0     0   501   502  0.000000000E+00  0.000000000E+00 -7.688767692E+02  7.688767692E+02  0.000000000E+00  0.00000E+00  9.000E+00
      25     1     1     2     0     0 -1.260354628E+02  8.330204200E+00 -2.920961485E+02  3.419056744E+02  1.250000000E+02  0.00000E+00  9.000E+00
      25     1     1     2     0     0  1.839621595E+02 -3.314234566E+01 -4.197392743E+02  4.761791151E+02  1.250000000E+02  0.00000E+00  9.000E+00
      21     1     1     2   501   512 -5.792669675E+01  2.481214146E+01  2.495608819E+02  2.573942081E+02  4.672030912E-06  0.00000E+00  9.000E+00
#rwgt            1           1   3.1097145964696947E-002           2      292510           0
</event>
<event>
      5   9999  3.19816E-02  2.19312E+01 -1.00000E+00  1.63132E-01
      21    -1     0     0   502   501  0.000000000E+00  0.000000000E+00  3.348206468E+02  3.348206468E+02  0.000000000E+00  0.00000E+00  9.000E+00
      21    -1     0     0   511   502  0.000000000E+00  0.000000000E+00 -9.276570800E+02  9.276570800E+02  0.000000000E+00  0.00000E+00  9.000E+00
      25     1     1     2     0     0 -3.987144962E+02  6.984441853E+01  8.731042400E+01  4.325501155E+02  1.250000000E+02  0.00000E+00  9.000E+00
      25     1     1     2     0     0  4.202755731E+02 -7.385640937E+01 -5.997916653E+02  7.466333560E+02  1.250000000E+02  0.00000E+00  9.000E+00
      21     1     1     2   511   501 -2.156107686E+01  4.011990842E+00 -8.035519190E+01  8.329425533E+01  9.536743164E-07  0.00000E+00  9.000E+00
#rwgt            1           1   3.2160374935405633E-002           2      292559           0
</event>
<event>
      5   9999  3.19816E-02  5.12392E+02 -1.00000E+00  9.85509E-02
      21    -1     0     0   502   501  0.000000000E+00  0.000000000E+00  1.892257447E+03  1.892257447E+03  0.000000000E+00  0.00000E+00  9.000E+00
       2    -1     0     0   501     0  0.000000000E+00  0.000000000E+00 -1.659273953E+03  1.659273953E+03  0.000000000E+00  0.00000E+00  9.000E+00
      25     1     1     2     0     0  1.307551162E+03  1.077361723E+01  1.667557093E+02  1.324099158E+03  1.250000000E+02  0.00000E+00  9.000E+00
      25     1     1     2     0     0 -9.693735691E+02 -3.957166132E+02  8.062165143E+02  1.327360849E+03  1.250000000E+02  0.00000E+00  9.000E+00
       2     1     1     2   502     0 -3.381775932E+02  3.849429960E+02 -7.399887288E+02  9.000713936E+02  1.525878906E-05  0.00000E+00  9.000E+00
#rwgt            2          13   1.5845391182029154E-003           2      292752           0
</event>
<event>
      5   9999  3.19816E-02  1.18329E+01 -1.00000E+00  1.87671E-01
      21    -1     0     0   502   501  0.000000000E+00  0.000000000E+00  2.434519698E+02  2.434519698E+02  0.000000000E+00  0.00000E+00  9.000E+00
      21    -1     0     0   501   511  0.000000000E+00  0.000000000E+00 -7.613375258E+02  7.613375258E+02  0.000000000E+00  0.00000E+00  9.000E+00
      25     1     1     2     0     0  1.493557516E+02 -3.304242321E+02 -4.594899788E+02  5.985343384E+02  1.250000000E+02  0.00000E+00  9.000E+00
      25     1     1     2     0     0 -1.395478676E+02  3.370441162E+02 -4.476131230E+01  3.882021621E+02  1.250000000E+02  0.00000E+00  9.000E+00
      21     1     1     2   502   511 -9.807883913E+00 -6.619884120E+00 -1.363426484E+01  1.805299506E+01  1.685873940E-07  0.00000E+00  9.000E+00
#rwgt            1           1   2.9176072643168745E-002           2      292771           0
</event>
<event>
      5   9999  3.19816E-02  8.81721E+01 -1.00000E+00  1.26338E-01
      21    -1     0     0   502   501  0.000000000E+00  0.000000000E+00  1.366684395E+02  1.366684395E+02  0.000000000E+00  0.00000E+00  9.000E+00
      21    -1     0     0   512   502  0.000000000E+00  0.000000000E+00 -4.851230113E+02  4.851230113E+02  0.000000000E+00  0.00000E+00  9.000E+00
      25     1     1     2     0     0 -2.299234015E+01  1.782280891E+02 -9.839515843E+01  2.400010555E+02  1.250000000E+02  0.00000E+00  9.000E+00
      25     1     1     2     0     0  1.555249666E+01 -9.037039047E+01 -4.955539291E+01  1.627557206E+02  1.250000000E+02  0.00000E+00  9.000E+00
      21     1     1     2   512   501  7.439843494E+00 -8.785769858E+01 -2.005040205E+02  2.190346747E+02  3.814697266E-06  0.00000E+00  9.000E+00
#rwgt            1           1   2.4613119965293365E-002           2      293116           0
</event>
<event>
      5   9999  3.19816E-02  3.23654E+01 -1.00000E+00  1.50785E-01
      21    -1     0     0   502   501  0.000000000E+00  0.000000000E+00  9.146982681E+02  9.146982681E+02  0.000000000E+00  0.00000E+00  9.000E+00
      21    -1     0     0   511   502  0.000000000E+00  0.000000000E+00 -5.105286304E+02  5.105286304E+02  0.000000000E+00  0.00000E+00  9.000E+00
      25     1     1     2     0     0 -3.378275441E+02 -2.786357234E+02 -7.240582871E+01  4.611213722E+02  1.250000000E+02  0.00000E+00  9.000E+00
      25     1     1     2     0     0  3.499607129E+02  3.086407582E+02  6.375600856E+02  7.998996693E+02  1.250000000E+02  0.00000E+00  9.000E+00
      21     1     1     2   511   501 -1.213316883E+01 -3.000503480E+01 -1.609846191E+02  1.642058570E+02  3.814697266E-06  0.00000E+00  9.000E+00
#rwgt            1           1   3.2004303573688990E-002           2      293185           0
</event>
<event>
      5   9999  3.19816E-02  3.11756E+02 -1.00000E+00  1.05052E-01
      21    -1     0     0   502   501  0.000000000E+00  0.000000000E+00  6.778681784E+02  6.778681784E+02  0.000000000E+00  0.00000E+00  9.000E+00
      21    -1     0     0   501   512  0.000000000E+00  0.000000000E+00 -3.174830510E+02  3.174830510E+02  0.000000000E+00  0.00000E+00  9.000E+00
      25     1     1     2     0     0  1.785269819E+02  1.395883445E+01 -6.826901569E+01  2.288064484E+02  1.250000000E+02  0.00000E+00  9.000E+00
      25     1     1     2     0     0  7.348643798E+01 -1.974820769E+02  3.783639285E+02  4.507590151E+02  1.250000000E+02  0.00000E+00  9.000E+00
      21     1     1     2   502   512 -2.520134199E+02  1.835232424E+02  5.029021452E+01  3.157857659E+02  8.688386516E-06  0.00000E+00  9.000E+00
#rwgt            2          11   3.4815594880684736E-003           2      293584           0
</event>
<event>
      5   9999  3.19816E-02  9.50101E+01 -1.00000E+00  1.24836E-01
      21    -1     0     0   511   501  0.000000000E+00  0.000000000E+00  6.686200619E+02  6.686200619E+02  0.000000000E+00  0.00000E+00  9.000E+00
      21    -1     0     0   501   502  0.000000000E+00  0.000000000E+00 -7.044538547E+02  7.044538547E+02  0.000000000E+00  0.00000E+00  9.000E+00
      25     1     1     2     0     0  4.141785181E+02 -4.545599085E+01  2.424865983E+02  4.980309652E+02  1.250000000E+02  0.00000E+00  9.000E+00
      25     1     1     2     0     0 -3.972199767E+02  1.389404034E+02 -4.809936797E+02  6.512050872E+02  1.250000000E+02  0.00000E+00  9.000E+00
      21     1     1     2   511   502 -1.695854137E+01 -9.348441254E+01  2.026732887E+02  2.238378642E+02  2.697398305E-06  0.00000E+00  9.000E+00
#rwgt            1           1   2.9425492344303958E-002           2      293619           0
</event>
<event>
      5   9999  3.19816E-02  1.62219E+01 -1.00000E+00  1.74238E-01
      21    -1     0     0   502   501  0.000000000E+00  0.000000000E+00  2.980728624E+02  2.980728624E+02  0.000000000E+00  0.00000E+00  9.000E+00
      21    -1     0     0   512   502  0.000000000E+00  0.000000000E+00 -2.660890991E+02  2.660890991E+02  0.000000000E+00  0.00000E+00  9.000E+00
      25     1     1     2     0     0  1.875456356E+02  5.343985789E+01  1.190356147E+02  2.604297629E+02  1.250000000E+02  0.00000E+00  9.000E+00
      25     1     1     2     0     0 -1.819949091E+02 -3.819718251E+01 -9.251067972E+00  2.242582305E+02  1.250000000E+02  0.00000E+00  9.000E+00
      21     1     1     2   512   501 -5.550726420E+00 -1.524267537E+01 -7.780078336E+01  7.947396811E+01  9.536743164E-07  0.00000E+00  9.000E+00
#rwgt            1           1   2.5891049539334701E-002           2      293680           0
</event>
<event>
      5   9999  3.19816E-02  3.46341E+01 -1.00000E+00  1.48830E-01
      21    -1     0     0   502   501  0.000000000E+00  0.000000000E+00  3.036317645E+02  3.036317645E+02  0.000000000E+00  0.00000E+00  9.000E+00
      21    -1     0     0   501   511  0.000000000E+00  0.000000000E+00 -1.059886295E+03  1.059886295E+03  0.000000000E+00  0.00000E+00  9.000E+00
      25     1     1     2     0     0  2.257298795E+02  2.474457225E+01  2.190151199E+02  3.393506963E+02  1.250000000E+02  0.00000E+00  9.000E+00
      25     1     1     2     0     0 -2.332869155E+02 -5.854419931E+01 -9.185413569E+02  9.577021627E+02  1.250000000E+02  0.00000E+00  9.000E+00
      21     1     1     2   502   511  7.557036032E+00  3.379962706E+01 -5.672829309E+01  6.646520006E+01  1.348699152E-06  0.00000E+00  9.000E+00
#rwgt            1           1   2.5396886381180990E-002           2      293936           0
</event>
<event>
      5   9999  3.19816E-02  4.54489E+00 -1.00000E+00  2.51051E-01
      21    -1     0     0   512   501  0.000000000E+00  0.000000000E+00  4.516897981E+02  4.516897981E+02  0.000000000E+00  0.00000E+00  9.000E+00
      21    -1     0     0   501   502  0.000000000E+00  0.000000000E+00 -5.149421428E+02  5.149421428E+02  0.000000000E+00  0.00000E+00  9.000E+00
      25     1     1     2     0     0  5.730606529E+01 -4.472830083E+02 -1.431065790E+02  4.893368651E+02  1.250000000E+02  0.00000E+00  9.000E+00
      25     1     1     2     0     0 -5.300837470E+01  4.458045442E+02  7.900478090E+01  4.726714872E+02  1.250000000E+02  0.00000E+00  9.000E+00
      21     1     1     2   512   502 -4.297690588E+00  1.478464075E+00  8.494535055E-01  4.623588614E+00  9.424321831E-08  0.00000E+00  9.000E+00
#rwgt            1           1   2.8817872983825137E-002           2      294128           0
</event>
<event>
      5   9999  3.19816E-02  5.17602E+01 -1.00000E+00  1.38224E-01
      21    -1     0     0   511   501  0.000000000E+00  0.000000000E+00  3.307547961E+02  3.307547961E+02  0.000000000E+00  0.00000E+00  9.000E+00
      21    -1     0     0   501   502  0.000000000E+00  0.000000000E+00 -1.351506472E+03  1.351506472E+03  0.000000000E+00  0.00000E+00  9.000E+00
      25     1     1     2     0     0  1.763851080E+02  5.888011306E+02 -5.494462831E+02  8.338553206E+02  1.250000000E+02  0.00000E+00  9.000E+00
      25     1     1     2     0     0 -1.881210860E+02 -5.383889760E+02 -5.166308057E+02  7.796054270E+02  1.250000000E+02  0.00000E+00  9.000E+00
      21     1     1     2   511   502  1.173597798E+01 -5.041215458E+01  4.532541314E+01  6.880052024E+01  6.743495762E-07  0.00000E+00  9.000E+00
#rwgt            1           1   3.4522874596252341E-002           2      294583           0
</event>
<event>
      5   9999  3.19816E-02  5.28566E+01 -1.00000E+00  1.37713E-01
      21    -1     0     0   502   501  0.000000000E+00  0.000000000E+00  6.507675395E+02  6.507675395E+02  0.000000000E+00  0.00000E+00  9.000E+00
      21    -1     0     0   512   502  0.000000000E+00  0.000000000E+00 -2.712845982E+02  2.712845982E+02  0.000000000E+00  0.00000E+00  9.000E+00
      25     1     1     2     0     0 -1.242636838E+02 -6.660356137E+01  5.297806108E+02  5.622899546E+02  1.250000000E+02  0.00000E+00  9.000E+00
      25     1     1     2     0     0  7.567069615E+01  4.580590535E+01  4.325398720E+01  1.591230424E+02  1.250000000E+02  0.00000E+00  9.000E+00
      21     1     1     2   512   501  4.859298764E+01  2.079765602E+01 -1.935516567E+02  2.006391406E+02  2.697398305E-06  0.00000E+00  9.000E+00
#rwgt            1           1   2.4876781307967600E-002           2      294730           0
</event>
<event>
      5   9999  3.19816E-02  2.50209E+01 -1.00000E+00  1.58724E-01
      21    -1     0     0   502   501  0.000000000E+00  0.000000000E+00  1.483036446E+02  1.483036446E+02  0.000000000E+00  0.00000E+00  9.000E+00
      21    -1     0     0   511   502  0.000000000E+00  0.000000000E+00 -1.137219287E+03  1.137219287E+03  0.000000000E+00  0.00000E+00  9.000E+00
      25     1     1     2     0     0 -3.290342101E+01  2.752247121E+02 -4.939786810E+02  5.800613887E+02  1.250000000E+02  0.00000E+00  9.000E+00
      25     1     1     2     0     0  1.049058492E+01 -2.641021478E+02 -9.892547868E+01  3.086604075E+02  1.250000000E+02  0.00000E+00  9.000E+00
      21     1     1     2   511   501  2.241283609E+01 -1.112256437E+01 -3.960114831E+02  3.968011359E+02  7.629394531E-06  0.00000E+00  9.000E+00
#rwgt            1           1   3.3447043735707872E-002           2      294811           0
</event>
<event>
      5   9999  3.19816E-02  2.72270E+01 -1.00000E+00  1.56024E-01
      21    -1     0     0   502   501  0.000000000E+00  0.000000000E+00  4.050927953E+02  4.050927953E+02  0.000000000E+00  0.00000E+00  9.000E+00
      21    -1     0     0   501   512  0.000000000E+00  0.000000000E+00 -3.091223055E+02  3.091223055E+02  0.000000000E+00  0.00000E+00  9.000E+00
      25     1     1     2     0     0 -1.684343297E+02  1.147693428E+01 -2.010379272E+02  2.907629474E+02  1.250000000E+02  0.00000E+00  9.000E+00
      25     1     1     2     0     0  1.956532099E+02 -1.081085547E+01  3.145186296E+02  3.910805818E+02  1.250000000E+02  0.00000E+00  9.000E+00
      21     1     1     2   502   512 -2.721888014E+01 -6.660788135E-01 -1.751021260E+01  3.237157152E+01  7.907449699E-07  0.00000E+00  9.000E+00
#rwgt            1           1   2.7874734998000267E-002           2      294945           0
</event>
<event>
      5   9999  3.19816E-02  1.38476E+02 -1.00000E+00  1.17786E-01
      21    -1     0     0   502   501  0.000000000E+00  0.000000000E+00  3.939179389E+02  3.939179389E+02  0.000000000E+00  0.00000E+00  9.000E+00
       1    -1     0     0   501     0  0.000000000E+00  0.000000000E+00 -1.175496847E+03  1.175496847E+03  0.000000000E+00  0.00000E+00  9.000E+00
      25     1     1     2     0     0  1.334013181E+02  1.577962675E+01  7.911869627E+01  1.998241136E+02  1.250000000E+02  0.00000E+00  9.000E+00
      25     1     1     2     0     0 -1.356688903E+02  1.226782571E+02  2.008587447E+02  2.990405288E+02  1.250000000E+02  0.00000E+00  9.000E+00
       1     1     1     2   502     0  2.267572172E+00 -1.384578838E+02 -1.061556349E+03  1.070550143E+03  0.000000000E+00  0.00000E+00  9.000E+00
#rwgt            1           1   3.2126032626655469E-002           2      295044           0
</event>
<event>
      5   9999  3.19816E-02  4.42810E+01 -1.00000E+00  1.42154E-01
      21    -1     0     0   502   501  0.000000000E+00  0.000000000E+00  2.276707142E+02  2.276707142E+02  0.000000000E+00  0.00000E+00  9.000E+00
      21    -1     0     0   511   502  0.000000000E+00  0.000000000E+00 -7.909407665E+02  7.909407665E+02  0.000000000E+00  0.00000E+00  9.000E+00
      25     1     1     2     0     0 -1.997373655E+02 -1.270779428E+02 -1.188586793E+02  2.929098912E+02  1.250000000E+02  0.00000E+00  9.000E+00
      25     1     1     2     0     0  1.624465273E+02  1.031991103E+02  4.536533645E+01  2.339272202E+02  1.250000000E+02  0.00000E+00  9.000E+00
      21     1     1     2   511   501  3.729083818E+01  2.387883257E+01 -4.897767094E+02  4.917743693E+02  5.394796609E-06  0.00000E+00  9.000E+00
#rwgt            1           1   2.3913868211766103E-002           2      295104           0
</event>
<event>
      5   9999  3.19816E-02  4.07115E+02 -1.00000E+00  1.01456E-01
      21    -1     0     0   502   501  0.000000000E+00  0.000000000E+00  6.911539407E+02  6.911539407E+02  0.000000000E+00  0.00000E+00  9.000E+00
      21    -1     0     0   512   502  0.000000000E+00  0.000000000E+00 -8.678910525E+02  8.678910525E+02  0.000000000E+00  0.00000E+00  9.000E+00
      25     1     1     2     0     0  1.076160749E+02  1.811634439E+02  2.461470127E+02  3.472963646E+02  1.250000000E+02  0.00000E+00  9.000E+00
      25     1     1     2     0     0 -2.713638404E+02 -5.538956529E+02 -6.442656961E+00  6.293689189E+02  1.250000000E+02  0.00000E+00  9.000E+00
      21     1     1     2   512   501  1.637477655E+02  3.727322091E+02 -4.164414676E+02  5.823797097E+02  1.078959322E-05  0.00000E+00  9.000E+00
#rwgt            1           1   3.1680672588401730E-002           2      295197           0
</event>
<event>
      5   9999  3.19816E-02  5.68067E+01 -1.00000E+00  1.35985E-01
      21    -1     0     0   502   511  0.000000000E+00  0.000000000E+00  3.924431177E+02  3.924431177E+02  0.000000000E+00  0.00000E+00  9.000E+00
      21    -1     0     0   501   502  0.000000000E+00  0.000000000E+00 -4.898848674E+02  4.898848674E+02  0.000000000E+00  0.00000E+00  9.000E+00
      25     1     1     2     0     0 -5.320777763E+01  3.934508113E+02 -1.724028655E+02  4.505356330E+02  1.250000000E+02  0.00000E+00  9.000E+00
      25     1     1     2     0     0  2.220737282E+01 -3.458485359E+02  6.373631919E+01  3.738872766E+02  1.250000000E+02  0.00000E+00  9.000E+00
      21     1     1     2   501   511  3.100040481E+01 -4.760227539E+01  1.122479661E+01  5.790507560E+01  6.529361695E-07  0.00000E+00  9.000E+00
#rwgt            1           1   2.6866599655793015E-002           2      295270           0
</event>
<event>
      5   9999  3.19816E-02  5.26926E+01 -1.00000E+00  1.37788E-01
      21    -1     0     0   502   501  0.000000000E+00  0.000000000E+00  3.682136698E+02  3.682136698E+02  0.000000000E+00  0.00000E+00  9.000E+00
      21    -1     0     0   512   502  0.000000000E+00  0.000000000E+00 -6.725877381E+02  6.725877381E+02  0.000000000E+00  0.00000E+00  9.000E+00
      25     1     1     2     0     0 -4.535856189E+02 -3.113491778E+00 -1.800489433E+02  5.037779565E+02  1.250000000E+02  0.00000E+00  9.000E+00
      25     1     1     2     0     0  4.233322834E+02  4.625559236E+01 -5.101436815E+01  4.467407164E+02  1.250000000E+02  0.00000E+00  9.000E+00
      21     1     1     2   512   501  3.025333553E+01 -4.314210059E+01 -7.331075687E+01  9.028273493E+01  0.000000000E+00  0.00000E+00  9.000E+00
#rwgt            1           1   2.6150780669900172E-002           2      295368           0
</event>
<event>
      5   9999  3.19816E-02  2.08623E+01 -1.00000E+00  1.64871E-01
      21    -1     0     0   502   501  0.000000000E+00  0.000000000E+00  2.123518304E+02  2.123518304E+02  0.000000000E+00  0.00000E+00  9.000E+00
      21    -1     0     0   511   502  0.000000000E+00  0.000000000E+00 -1.872461650E+03  1.872461650E+03  0.000000000E+00  0.00000E+00  9.000E+00
      25     1     1     2     0     0  1.318551443E+02 -5.507825656E+01 -1.595319513E+03  1.606576715E+03  1.250000000E+02  0.00000E+00  9.000E+00
      25     1     1     2     0     0 -1.524917816E+02  5.201798178E+01  1.558209015E+02  2.566413202E+02  1.250000000E+02  0.00000E+00  9.000E+00
      21     1     1     2   511   501  2.063663734E+01  3.060274776E+00 -2.206112076E+02  2.215954445E+02  4.672030912E-06  0.00000E+00  9.000E+00
#rwgt            1           1   2.6369152726443253E-002           2      295480           0
</event>
<event>
      5   9999  3.19816E-02  1.85327E+02 -1.00000E+00  1.12866E-01
      21    -1     0     0   502   512  0.000000000E+00  0.000000000E+00  1.729149574E+03  1.729149574E+03  0.000000000E+00  0.00000E+00  9.000E+00
      21    -1     0     0   501   502  0.000000000E+00  0.000000000E+00 -1.220856429E+03  1.220856429E+03  0.000000000E+00  0.00000E+00  9.000E+00
      25     1     1     2     0     0  1.155425322E+03  1.676399165E+02 -2.533416623E+02  1.201215141E+03  1.250000000E+02  0.00000E+00  9.000E+00
      25     1     1     2     0     0 -1.325807457E+03 -2.405511906E+02  5.328641155E+02  1.454372529E+03  1.250000000E+02  0.00000E+00  9.000E+00
      21     1     1     2   501   512  1.703821349E+02  7.291127407E+01  2.287706917E+02  2.944183336E+02  6.031565972E-06  0.00000E+00  9.000E+00
#rwgt            2          11   2.1536116461631387E-002           2      295696           0
</event>
<event>
      5   9999  3.19816E-02  5.90291E+01 -1.00000E+00  1.35083E-01
      21    -1     0     0   502   511  0.000000000E+00  0.000000000E+00  3.077227631E+02  3.077227631E+02  0.000000000E+00  0.00000E+00  9.000E+00
      21    -1     0     0   501   502  0.000000000E+00  0.000000000E+00 -2.847261477E+02  2.847261477E+02  0.000000000E+00  0.00000E+00  9.000E+00
      25     1     1     2     0     0 -4.478005541E+01 -5.342894488E+01 -1.174119532E+02  1.851228572E+02  1.250000000E+02  0.00000E+00  9.000E+00
      25     1     1     2     0     0  9.834059200E+01  7.824223729E+01 -6.866004583E+01  1.900839857E+02  1.250000000E+02  0.00000E+00  9.000E+00
      21     1     1     2   501   511 -5.356053659E+01 -2.481329240E+01  2.090686144E+02  2.172420679E+02  2.697398305E-06  0.00000E+00  9.000E+00
#rwgt            1           1   2.0024302540579301E-002           2      295731           0
</event>
<event>
      5   9999  3.19816E-02  5.07841E+01 -1.00000E+00  1.38691E-01
      21    -1     0     0   502   501  0.000000000E+00  0.000000000E+00  1.017374379E+03  1.017374379E+03  0.000000000E+00  0.00000E+00  9.000E+00
       1    -1     0     0   501     0  0.000000000E+00  0.000000000E+00 -1.392382708E+02  1.392382708E+02  0.000000000E+00  0.00000E+00  9.000E+00
      25     1     1     2     0     0  1.502262914E+02  9.888417169E+01  4.831641387E+02  5.304890225E+02  1.250000000E+02  0.00000E+00  9.000E+00
      25     1     1     2     0     0 -2.002222174E+02 -1.077968999E+02  4.692067801E+02  5.361801101E+02  1.250000000E+02  0.00000E+00  9.000E+00
       1     1     1     2   502     0  4.999592603E+01  8.912728208E+00 -7.423481011E+01  8.994351770E+01  2.523185073E-06  0.00000E+00  9.000E+00
#rwgt            1           1   3.3494347477711676E-002           2      295803           0
</event>
<event>
      5   9999  3.19816E-02  1.63188E+01 -1.00000E+00  1.74004E-01
      21    -1     0     0   502   501  0.000000000E+00  0.000000000E+00  4.364326012E+02  4.364326012E+02  0.000000000E+00  0.00000E+00  9.000E+00
      21    -1     0     0   501   511  0.000000000E+00  0.000000000E+00 -2.339267260E+02  2.339267260E+02  0.000000000E+00  0.00000E+00  9.000E+00
      25     1     1     2     0     0  1.849674398E+02 -1.278692651E+02  2.984521640E+01  2.589966017E+02  1.250000000E+02  0.00000E+00  9.000E+00
      25     1     1     2     0     0 -1.876064385E+02  1.439733060E+02  2.293628848E+02  3.523589385E+02  1.250000000E+02  0.00000E+00  9.000E+00
      21     1     1     2   502   511  2.638998722E+00 -1.610404091E+01 -5.670222602E+01  5.900378702E+01  0.000000000E+00  0.00000E+00  9.000E+00
#rwgt            1           1   2.6307696600457058E-002           2      295868           0
</event>
<event>
      5   9999  3.19816E-02  6.43803E+01 -1.00000E+00  1.33088E-01
      21    -1     0     0   502   512  0.000000000E+00  0.000000000E+00  3.283346401E+02  3.283346401E+02  0.000000000E+00  0.00000E+00  9.000E+00
      21    -1     0     0   501   502  0.000000000E+00  0.000000000E+00 -3.236875868E+02  3.236875868E+02  0.000000000E+00  0.00000E+00  9.000E+00
      25     1     1     2     0     0  6.458243052E+00 -1.373251253E+02  1.204847212E+02  2.214530808E+02  1.250000000E+02  0.00000E+00  9.000E+00
      25     1     1     2     0     0 -3.729287561E+01  8.080918844E+01 -2.433710235E+02  2.877070361E+02  1.250000000E+02  0.00000E+00  9.000E+00
      21     1     1     2   501   512  3.083463255E+01  5.651593684E+01  1.275333556E+02  1.428621100E+02  1.907348633E-06  0.00000E+00  9.000E+00
#rwgt            1           1   2.6188998670514576E-002           2      295996           0
</event>
<event>
      5   9999  3.19816E-02  1.38000E+02 -1.00000E+00  1.17847E-01
      21    -1     0     0   502   501  0.000000000E+00  0.000000000E+00  8.009441640E+02  8.009441640E+02  0.000000000E+00  0.00000E+00  9.000E+00
      21    -1     0     0   511   502  0.000000000E+00  0.000000000E+00 -4.788005685E+02  4.788005685E+02  0.000000000E+00  0.00000E+00  9.000E+00
      25     1     1     2     0     0 -2.961048744E+02 -8.340884400E+01  1.670820394E+02  3.717210511E+02  1.250000000E+02  0.00000E+00  9.000E+00
      25     1     1     2     0     0  1.746386404E+02  1.489072382E+02  4.847001379E+02  5.506643660E+02  1.250000000E+02  0.00000E+00  9.000E+00
      21     1     1     2   511   501  1.214662340E+02 -6.549839422E+01 -3.296385819E+02  3.573593154E+02  0.000000000E+00  0.00000E+00  9.000E+00
#rwgt            1           1   2.8123595052551086E-002           2      296066           0
</event>
<event>
      5   9999  3.19816E-02  2.75113E+01 -1.00000E+00  1.55699E-01
      21    -1     0     0   502   501  0.000000000E+00  0.000000000E+00  1.174975566E+02  1.174975566E+02  0.000000000E+00  0.00000E+00  9.000E+00
      21    -1     0     0   512   502  0.000000000E+00  0.000000000E+00 -7.218612398E+02  7.218612398E+02  0.000000000E+00  0.00000E+00  9.000E+00
      25     1     1     2     0     0 -7.943410226E+01  2.172855776E+02 -3.307278574E+02  4.225265844E+02  1.250000000E+02  0.00000E+00  9.000E+00
      25     1     1     2     0     0  1.032005790E+02 -2.034281683E+02 -1.727230302E+02  3.122364878E+02  1.250000000E+02  0.00000E+00  9.000E+00
      21     1     1     2   512   501 -2.376647670E+01 -1.385740929E+01 -1.009127956E+02  1.045957242E+02  0.000000000E+00  0.00000E+00  9.000E+00
#rwgt            1           1   2.5491863914679499E-002           2      296170           0
</event>
<event>
      5   9999  3.19816E-02  6.73290E+01 -1.00000E+00  1.32082E-01
      21    -1     0     0   502   501  0.000000000E+00  0.000000000E+00  1.657850902E+03  1.657850902E+03  0.000000000E+00  0.00000E+00  9.000E+00
      21    -1     0     0   501   511  0.000000000E+00  0.000000000E+00 -3.039794161E+02  3.039794161E+02  0.000000000E+00  0.00000E+00  9.000E+00
      25     1     1     2     0     0 -3.954504544E+02 -2.301534163E+02  8.551848452E+02  9.779150149E+02  1.250000000E+02  0.00000E+00  9.000E+00
      25     1     1     2     0     0  4.536599276E+02  1.963177398E+02  6.453914860E+02  8.224981186E+02  1.250000000E+02  0.00000E+00  9.000E+00
      21     1     1     2   502   511 -5.820947325E+01  3.383567655E+01 -1.467048454E+02  1.614171845E+02  1.907348633E-06  0.00000E+00  9.000E+00
#rwgt            1           1   2.7968630271291751E-002           2      296314           0
</event>
<event>
      5   9999  3.19816E-02  7.45414E+01 -1.00000E+00  1.29853E-01
      21    -1     0     0   502   501  0.000000000E+00  0.000000000E+00  3.341789561E+01  3.341789561E+01  0.000000000E+00  0.00000E+00  9.000E+00
      21    -1     0     0   501   512  0.000000000E+00  0.000000000E+00 -1.743132218E+03  1.743132218E+03  0.000000000E+00  0.00000E+00  9.000E+00
      25     1     1     2     0     0  1.475688320E+02 -1.005791169E+02 -1.014136723E+03  1.037299866E+03  1.250000000E+02  0.00000E+00  9.000E+00
      25     1     1     2     0     0 -7.490354112E+01  8.396075561E+01 -3.900964614E+02  4.248060713E+02  1.250000000E+02  0.00000E+00  9.000E+00
      21     1     1     2   502   512 -7.266529092E+01  1.661836132E+01 -3.054811384E+02  3.144441769E+02  0.000000000E+00  0.00000E+00  9.000E+00
#rwgt            1           1   3.0540945479545716E-002           2      296394           0
</event>
<event>
      5   9999  3.19816E-02  7.40402E+01 -1.00000E+00  1.29998E-01
      21    -1     0     0   502   501  0.000000000E+00  0.000000000E+00  2.360862080E+02  2.360862080E+02  0.000000000E+00  0.00000E+00  9.000E+00
      21    -1     0     0   511   502  0.000000000E+00  0.000000000E+00 -7.667228233E+02  7.667228233E+02  0.000000000E+00  0.00000E+00  9.000E+00
      25     1     1     2     0     0 -7.775864167E+01  1.473590880E+02  1.327457231E+02  2.469970327E+02  1.250000000E+02  0.00000E+00  9.000E+00
      25     1     1     2     0     0  9.693421445E+01 -2.188730824E+02 -6.014141457E+02  6.592614373E+02  1.250000000E+02  0.00000E+00  9.000E+00
      21     1     1     2   511   501 -1.917557278E+01  7.151399439E+01 -6.196819273E+01  9.655056134E+01  0.000000000E+00  0.00000E+00  9.000E+00
#rwgt            1           1   2.8618721011416031E-002           2      296430           0
</event>
<event>
      5   9999  3.19816E-02  9.15502E+01 -1.00000E+00  1.25577E-01
      21    -1     0     0   502   501  0.000000000E+00  0.000000000E+00  1.325742313E+02  1.325742313E+02  0.000000000E+00  0.00000E+00  9.000E+00
      21    -1     0     0   512   502  0.000000000E+00  0.000000000E+00 -1.557554564E+03  1.557554564E+03  0.000000000E+00  0.00000E+00  9.000E+00
      25     1     1     2     0     0  2.221528289E+02  4.197426606E+01 -5.814396924E+02  6.362474631E+02  1.250000000E+02  0.00000E+00  9.000E+00
      25     1     1     2     0     0 -1.441918627E+02  6.020765074E+00  1.402767421E+01  1.914401173E+02  1.250000000E+02  0.00000E+00  9.000E+00
      21     1     1     2   512   501 -7.796096620E+01 -4.799503113E+01 -8.575683144E+02  8.624412148E+02  0.000000000E+00  0.00000E+00  9.000E+00
#rwgt            1           1   2.8839914492610749E-002           2      296530           0
</event>
<event>
      5   9999  3.19816E-02  2.53322E+01 -1.00000E+00  1.58323E-01
      21    -1     0     0   502   511  0.000000000E+00  0.000000000E+00  6.159306252E+02  6.159306252E+02  0.000000000E+00  0.00000E+00  9.000E+00
      21    -1     0     0   501   502  0.000000000E+00  0.000000000E+00 -7.841710717E+01  7.841710717E+01  0.000000000E+00  0.00000E+00  9.000E+00
      25     1     1     2     0     0  1.517805928E+02  4.009801495E+01  2.604764730E+02  3.288133089E+02  1.250000000E+02  0.00000E+00  9.000E+00
      25     1     1     2     0     0 -1.600140442E+02 -6.405483864E+01  2.425427430E+02  3.227375077E+02  1.250000000E+02  0.00000E+00  9.000E+00
      21     1     1     2   501   511  8.233451369E+00  2.395682369E+01  3.449430204E+01  4.279691573E+01  9.536743164E-07  0.00000E+00  9.000E+00
#rwgt            1           1   2.9255059806854913E-002           2      296664           0
</event>
<event>
      5   9999  3.19816E-02  1.36732E+02 -1.00000E+00  1.18010E-01
      21    -1     0     0   502   512  0.000000000E+00  0.000000000E+00  1.575453436E+03  1.575453436E+03  0.000000000E+00  0.00000E+00  9.000E+00
      21    -1     0     0   501   502  0.000000000E+00  0.000000000E+00 -1.972460397E+03  1.972460397E+03  0.000000000E+00  0.00000E+00  9.000E+00
      25     1     1     2     0     0 -4.013417281E+02  4.891796063E+02 -7.613561619E+02  9.978276781E+02  1.250000000E+02  0.00000E+00  9.000E+00
      25     1     1     2     0     0  2.684074180E+02 -5.211791910E+02 -1.007021365E+03  1.171916089E+03  1.250000000E+02  0.00000E+00  9.000E+00
      21     1     1     2   501   512  1.329343101E+02  3.199958464E+01  1.371370565E+03  1.378170066E+03  3.411968960E-05  0.00000E+00  9.000E+00
#rwgt            1           1   2.5860140193291147E-002           2      296783           0
</event>
<event>
      5   9999  3.19816E-02  2.47344E+02 -1.00000E+00  1.08389E-01
      21    -1     0     0   511   501  0.000000000E+00  0.000000000E+00  6.675645417E+02  6.675645417E+02  0.000000000E+00  0.00000E+00  9.000E+00
      21    -1     0     0   501   502  0.000000000E+00  0.000000000E+00 -1.346613508E+03  1.346613508E+03  0.000000000E+00  0.00000E+00  9.000E+00
      25     1     1     2     0     0 -1.528407106E+02 -6.911954941E+02 -8.479642497E+02  1.111656360E+03  1.250000000E+02  0.00000E+00  9.000E+00
      25     1     1     2     0     0  2.758702626E+02  4.766200158E+02 -5.694316730E+01  5.675725201E+02  1.250000000E+02  0.00000E+00  9.000E+00
      21     1     1     2   511   502 -1.230295520E+02  2.145754783E+02  2.258584507E+02  3.349491697E+02  3.814697266E-06  0.00000E+00  9.000E+00
#rwgt            1           1   2.8870439650059598E-002           2      296862           0
</event>
<event>
      5   9999  3.19816E-02  4.62112E+01 -1.00000E+00  1.41057E-01
      21    -1     0     0   502   501  0.000000000E+00  0.000000000E+00  2.384342744E+02  2.384342744E+02  0.000000000E+00  0.00000E+00  9.000E+00
      21    -1     0     0   512   502  0.000000000E+00  0.000000000E+00 -5.180365640E+02  5.180365640E+02  0.000000000E+00  0.00000E+00  9.000E+00
      25     1     1     2     0     0 -1.414990731E+02  2.493918835E+02 -2.107630537E+02  3.771794852E+02  1.250000000E+02  0.00000E+00  9.000E+00
      25     1     1     2     0     0  1.002775322E+02 -2.702786213E+02 -2.436985407E+01  3.151587003E+02  1.250000000E+02  0.00000E+00  9.000E+00
      21     1     1     2   512   501  4.122154090E+01  2.088673780E+01 -4.446938180E+01  6.413265290E+01  6.743495762E-07  0.00000E+00  9.000E+00
#rwgt            1           1   2.6681119161194793E-002           2      296934           0
</event>
<event>
      5   9999  3.19816E-02  2.30626E+02 -1.00000E+00  1.09441E-01
      21    -1     0     0   511   501  0.000000000E+00  0.000000000E+00  3.155835363E+02  3.155835363E+02  0.000000000E+00  0.00000E+00  9.000E+00
      21    -1     0     0   501   502  0.000000000E+00  0.000000000E+00 -2.389041893E+03  2.389041893E+03  0.000000000E+00  0.00000E+00  9.000E+00
      25     1     1     2     0     0 -2.370609414E+02 -5.648085582E+02 -5.876251952E+02  8.579830811E+02  1.250000000E+02  0.00000E+00  9.000E+00
      25     1     1     2     0     0  3.995917505E+02  7.284308223E+02 -1.311481807E+03  1.557528350E+03  1.250000000E+02  0.00000E+00  9.000E+00
      21     1     1     2   511   502 -1.625308091E+02 -1.636222642E+02 -1.743513542E+02  2.891139982E+02  5.394796609E-06  0.00000E+00  9.000E+00
#rwgt            1           1   2.8344597474551200E-002           2      297109           0
</event>
<event>
      5   9999  3.19816E-02  1.16979E+02 -1.00000E+00  1.20840E-01
      21    -1     0     0   502   512  0.000000000E+00  0.000000000E+00  1.158953781E+03  1.158953781E+03  0.000000000E+00  0.00000E+00  9.000E+00
      21    -1     0     0   501   502  0.000000000E+00  0.000000000E+00 -9.130319668E+02  9.130319668E+02  0.000000000E+00  0.00000E+00  9.000E+00
      25     1     1     2     0     0 -6.653107099E+02 -2.997287847E+02  7.643249656E+02  1.064092730E+03  1.250000000E+02  0.00000E+00  9.000E+00
      25     1     1     2     0     0  6.715704544E+02  1.829178141E+02 -5.389377147E+02  8.891257854E+02  1.250000000E+02  0.00000E+00  9.000E+00
      21     1     1     2   501   512 -6.259744546E+00  1.168109707E+02  2.053456357E+01  1.187672327E+02  1.526623782E-06  0.00000E+00  9.000E+00
#rwgt            1           1   3.7852273596843289E-002           2      297175           0
</event>
<event>
      5   9999  3.19816E-02  2.40418E+02 -1.00000E+00  1.08813E-01
      21    -1     0     0   502   501  0.000000000E+00  0.000000000E+00  3.686061235E+02  3.686061235E+02  0.000000000E+00  0.00000E+00  9.000E+00
      21    -1     0     0   501   511  0.000000000E+00  0.000000000E+00 -6.418634545E+02  6.418634545E+02  0.000000000E+00  0.00000E+00  9.000E+00
      25     1     1     2     0     0  2.828006397E+02  2.349167629E+02  4.706520201E+01  3.911549828E+02  1.250000000E+02  0.00000E+00  9.000E+00
      25     1     1     2     0     0 -2.397155689E+02  1.609057592E+00 -2.514824763E+02  3.692351269E+02  1.250000000E+02  0.00000E+00  9.000E+00
      21     1     1     2   502   511 -4.308507072E+01 -2.365258205E+02 -6.884005665E+01  2.500794684E+02  3.438521648E-06  0.00000E+00  9.000E+00
#rwgt            2          11   3.6797210774273193E-003           2      297346           0
</event>
<event>
      5   9999  3.19816E-02  1.15649E+02 -1.00000E+00  1.21053E-01
      21    -1     0     0   502   512  0.000000000E+00  0.000000000E+00  9.918888274E+02  9.918888274E+02  0.000000000E+00  0.00000E+00  9.000E+00
      21    -1     0     0   501   502  0.000000000E+00  0.000000000E+00 -6.798426362E+01  6.798426362E+01  0.000000000E+00  0.00000E+00  9.000E+00
      25     1     1     2     0     0  2.398794554E+01 -3.885014983E+01  6.258110621E+02  6.398040646E+02  1.250000000E+02  0.00000E+00  9.000E+00
      25     1     1     2     0     0  4.820687958E+01 -5.149714591E+01  6.037422273E+01  1.557109696E+02  1.250000000E+02  0.00000E+00  9.000E+00
      21     1     1     2   501   512 -7.219482512E+01  9.034729574E+01  2.377192790E+02  2.643580569E+02  6.031565972E-06  0.00000E+00  9.000E+00
#rwgt            1           1   2.7705106645978136E-002           2      297381           0
</event>
<event>
      5   9999  3.19816E-02  4.54279E+01 -1.00000E+00  1.41494E-01
      21    -1     0     0   502   501  0.000000000E+00  0.000000000E+00  5.808868010E+02  5.808868010E+02  0.000000000E+00  0.00000E+00  9.000E+00
       2    -1     0     0   501     0  0.000000000E+00  0.000000000E+00 -1.178607535E+03  1.178607535E+03  0.000000000E+00  0.00000E+00  9.000E+00
      25     1     1     2     0     0  2.127246293E+01 -1.846018889E+02  5.011678736E+02  5.489304260E+02  1.250000000E+02  0.00000E+00  9.000E+00
      25     1     1     2     0     0 -5.151796173E+01  1.507064420E+02 -1.299905882E+02  2.406015068E+02  1.250000000E+02  0.00000E+00  9.000E+00
       2     1     1     2   502     0  3.024549879E+01  3.389544689E+01 -9.688980190E+02  9.699624028E+02  0.000000000E+00  0.00000E+00  9.000E+00
#rwgt            1           1   2.8345520660710166E-002           2      297461           0
</event>
<event>
      5   9999  3.19816E-02  1.06617E+01 -1.00000E+00  1.92594E-01
      21    -1     0     0   511   501  0.000000000E+00  0.000000000E+00  6.114867586E+02  6.114867586E+02  0.000000000E+00  0.00000E+00  9.000E+00
      21    -1     0     0   501   502  0.000000000E+00  0.000000000E+00 -3.843839863E+02  3.843839863E+02  0.000000000E+00  0.00000E+00  9.000E+00
      25     1     1     2     0     0  5.520998544E+00  2.570351296E+02  4.970203991E+02  5.733688311E+02  1.250000000E+02  0.00000E+00  9.000E+00
      25     1     1     2     0     0 -1.257935070E+01 -2.650258611E+02 -2.816625200E+02  4.066395483E+02  1.250000000E+02  0.00000E+00  9.000E+00
      21     1     1     2   511   502  7.058352153E+00  7.990731489E+00  1.174489310E+01  1.586236549E+01  1.685873940E-07  0.00000E+00  9.000E+00
#rwgt            1           1   3.0402046435250490E-002           2      297546           0
</event>
<event>
      5   9999  3.19816E-02  7.63747E+01 -1.00000E+00  1.29332E-01
      21    -1     0     0   502   512  0.000000000E+00  0.000000000E+00  3.868398988E+02  3.868398988E+02  0.000000000E+00  0.00000E+00  9.000E+00
      21    -1     0     0   501   502  0.000000000E+00  0.000000000E+00 -2.210639800E+02  2.210639800E+02  0.000000000E+00  0.00000E+00  9.000E+00
      25     1     1     2     0     0  1.559558410E+01  2.390312689E+02 -9.046096921E+00  2.703442280E+02  1.250000000E+02  0.00000E+00  9.000E+00
      25     1     1     2     0     0 -3.918756319E+01 -1.663916207E+02  1.185685155E+02  2.427042015E+02  1.250000000E+02  0.00000E+00  9.000E+00
      21     1     1     2   501   512  2.359197908E+01 -7.263964819E+01  5.625350032E+01  9.485544931E+01  1.651812370E-06  0.00000E+00  9.000E+00
#rwgt            1           1   2.7330070249753431E-002           2      297821           0
</event>
<event>
      5   9999  3.19816E-02  2.45034E+01 -1.00000E+00  1.59406E-01
       2    -1     0     0   502     0  0.000000000E+00  0.000000000E+00  2.306480993E+03  2.306480993E+03  0.000000000E+00  0.00000E+00  9.000E+00
      21    -1     0     0   501   502  0.000000000E+00  0.000000000E+00 -2.507251465E+01  2.507251465E+01  0.000000000E+00  0.00000E+00  9.000E+00
      25     1     1     2     0     0 -6.323415057E+01  8.345471687E+01  3.294513835E+02  3.675955137E+02  1.250000000E+02  0.00000E+00  9.000E+00
      25     1     1     2     0     0  4.376225148E+01 -6.857977022E+01  9.444770882E+02  9.561800509E+02  1.250000000E+02  0.00000E+00  9.000E+00
       2     1     1     2   501     0  1.947189909E+01 -1.487494665E+01  1.007480006E+03  1.007777943E+03  1.078959322E-05  0.00000E+00  9.000E+00
#rwgt            1           1   3.6956213795056404E-002           2      297891           0
</event>
<event>
      5   9999  3.19816E-02  1.03200E+02 -1.00000E+00  1.23216E-01
      21    -1     0     0   502   501  0.000000000E+00  0.000000000E+00  4.415730977E+02  4.415730977E+02  0.000000000E+00  0.00000E+00  9.000E+00
      21    -1     0     0   501   511  0.000000000E+00  0.000000000E+00 -5.267197383E+02  5.267197383E+02  0.000000000E+00  0.00000E+00  9.000E+00
      25     1     1     2     0     0 -4.104768898E+01  2.593159734E+02 -1.263024367E+02  3.170283778E+02  1.250000000E+02  0.00000E+00  9.000E+00
      25     1     1     2     0     0  1.018374447E+00 -1.641958868E+02  3.048301211E+02  3.681137448E+02  1.250000000E+02  0.00000E+00  9.000E+00
      21     1     1     2   502   511  4.002931453E+01 -9.512008659E+01 -2.636743250E+02  2.831507135E+02  0.000000000E+00  0.00000E+00  9.000E+00
#rwgt            1           1   2.8143347011077124E-002           2      297999           0
</event>
<event>
      5   9999  3.19816E-02  5.06075E+01 -1.00000E+00  1.38777E-01
      21    -1     0     0   512   501  0.000000000E+00  0.000000000E+00  7.275212987E+01  7.275212987E+01  0.000000000E+00  0.00000E+00  9.000E+00
      21    -1     0     0   501   502  0.000000000E+00  0.000000000E+00 -7.649882795E+02  7.649882795E+02  0.000000000E+00  0.00000E+00  9.000E+00
      25     1     1     2     0     0  7.166702275E+01  9.806584057E+01 -1.630978694E+02  2.387027152E+02  1.250000000E+02  0.00000E+00  9.000E+00
      25     1     1     2     0     0 -5.811197631E+01 -1.468242537E+02 -5.035475253E+02  5.423278285E+02  1.250000000E+02  0.00000E+00  9.000E+00
      21     1     1     2   512   502 -1.355504645E+01  4.875841310E+01 -2.559075489E+01  5.670986571E+01  9.536743164E-07  0.00000E+00  9.000E+00
#rwgt            1           1   3.3068534700756741E-002           2      298109           0
</event>
<event>
      5   9999  3.19816E-02  6.86208E+02 -1.00000E+00  9.50970E-02
      21    -1     0     0   502   501  0.000000000E+00  0.000000000E+00  8.224992108E+02  8.224992108E+02  0.000000000E+00  0.00000E+00  9.000E+00
      21    -1     0     0   511   502  0.000000000E+00  0.000000000E+00 -7.649646188E+02  7.649646188E+02  0.000000000E+00  0.00000E+00  9.000E+00
      25     1     1     2     0     0 -4.417452193E+02  1.648243269E+02  2.143990077E+02  5.328206378E+02  1.250000000E+02  0.00000E+00  9.000E+00
      25     1     1     2     0     0 -2.390623004E+02 -7.890423686E+01  1.314940768E+02  3.103100938E+02  1.250000000E+02  0.00000E+00  9.000E+00
      21     1     1     2   511   501  6.808075197E+02 -8.592009004E+01 -2.883584924E+02  7.443330981E+02  1.144409180E-05  0.00000E+00  9.000E+00
#rwgt            2          11   4.8284069783062185E-003           2      298410           0
</event>
<event>
      5   9999  3.19816E-02  1.14940E+02 -1.00000E+00  1.21168E-01
      21    -1     0     0   502   501  0.000000000E+00  0.000000000E+00  5.499492571E+02  5.499492571E+02  0.000000000E+00  0.00000E+00  9.000E+00
      21    -1     0     0   501   512  0.000000000E+00  0.000000000E+00 -1.431958652E+02  1.431958652E+02  0.000000000E+00  0.00000E+00  9.000E+00
      25     1     1     2     0     0  1.318239269E+01 -1.720348015E+02  3.564914921E+02  4.153082378E+02  1.250000000E+02  0.00000E+00  9.000E+00
      25     1     1     2     0     0 -3.849458805E+01  5.991677473E+01 -1.667425077E+01  1.448270826E+02  1.250000000E+02  0.00000E+00  9.000E+00
      21     1     1     2   502   512  2.531219536E+01  1.121180268E+02  6.693615059E+01  1.330098020E+02  2.523185073E-06  0.00000E+00  9.000E+00
#rwgt            1           1   2.9919735842648332E-002           2      298445           0
</event>
<event>
      5   9999  3.19816E-02  2.05265E+02 -1.00000E+00  1.11239E-01
      21    -1     0     0   502   501  0.000000000E+00  0.000000000E+00  1.033551580E+03  1.033551580E+03  0.000000000E+00  0.00000E+00  9.000E+00
      21    -1     0     0   501   511  0.000000000E+00  0.000000000E+00 -1.353293685E+03  1.353293685E+03  0.000000000E+00  0.00000E+00  9.000E+00
      25     1     1     2     0     0  8.469656857E+02 -2.125635189E+02 -3.372292140E+02  9.443953966E+02  1.250000000E+02  0.00000E+00  9.000E+00
      25     1     1     2     0     0 -1.003057753E+03  3.458641947E+02  2.845708058E+02  1.105600489E+03  1.250000000E+02  0.00000E+00  9.000E+00
      21     1     1     2   502   511  1.560920675E+02 -1.333006758E+02 -2.670836970E+02  3.368493802E+02  5.394796609E-06  0.00000E+00  9.000E+00
#rwgt            1           1   3.5600738538835788E-002           2      298477           0
</event>
<event>
      5   9999  3.19816E-02  4.00827E+01 -1.00000E+00  1.44785E-01
      21    -1     0     0   512   501  0.000000000E+00  0.000000000E+00  2.880537368E+02  2.880537368E+02  0.000000000E+00  0.00000E+00  9.000E+00
      21    -1     0     0   501   502  0.000000000E+00  0.000000000E+00 -1.948621116E+03  1.948621116E+03  0.000000000E+00  0.00000E+00  9.000E+00
      25     1     1     2     0     0 -1.545365753E+02 -4.100397943E+02 -1.393249867E+03  1.465873247E+03  1.250000000E+02  0.00000E+00  9.000E+00
      25     1     1     2     0     0  1.946092324E+02  4.091414633E+02 -4.093218934E+02  6.232486685E+02  1.250000000E+02  0.00000E+00  9.000E+00
      21     1     1     2   512   502 -4.007265713E+01  8.983309781E-01  1.420043812E+02  1.475529367E+02  5.722045898E-06  0.00000E+00  9.000E+00
#rwgt            1           1   2.9371137535108945E-002           2      298553           0
</event>
<event>
      5   9999  3.19816E-02  1.11436E+01 -1.00000E+00  1.90474E-01
       1    -1     0     0   502     0  0.000000000E+00  0.000000000E+00  8.802597580E+02  8.802597580E+02  0.000000000E+00  0.00000E+00  9.000E+00
      21    -1     0     0   501   502  0.000000000E+00  0.000000000E+00 -6.068200415E+01  6.068200415E+01  0.000000000E+00  0.00000E+00  9.000E+00
      25     1     1     2     0     0  1.188397934E+02 -7.447486996E+01  2.770054883E+02  3.347035155E+02  1.250000000E+02  0.00000E+00  9.000E+00
      25     1     1     2     0     0 -1.127860748E+02  6.511903469E+01  2.249679415E+02  2.884384892E+02  1.250000000E+02  0.00000E+00  9.000E+00
       1     1     1     2   501     0 -6.053718586E+00  9.355835278E+00  3.176043241E+02  3.177997575E+02  3.814697266E-06  0.00000E+00  9.000E+00
#rwgt            1           1   2.7810432324330201E-002           2      298665           0
</event>
<event>
      5   9999  3.19816E-02  8.52954E+01 -1.00000E+00  1.27017E-01
      21    -1     0     0   502   501  0.000000000E+00  0.000000000E+00  3.614070542E+02  3.614070542E+02  0.000000000E+00  0.00000E+00  9.000E+00
      21    -1     0     0   511   502  0.000000000E+00  0.000000000E+00 -3.939932813E+02  3.939932813E+02  0.000000000E+00  0.00000E+00  9.000E+00
      25     1     1     2     0     0  4.103464958E+01  7.913696628E+01  3.139923451E+02  3.495178031E+02  1.250000000E+02  0.00000E+00  9.000E+00
      25     1     1     2     0     0  9.034549967E-01 -4.863844051E+00 -2.236758415E+02  2.562817889E+02  1.250000000E+02  0.00000E+00  9.000E+00
      21     1     1     2   511   501 -4.193810458E+01 -7.427312223E+01 -1.229027306E+02  1.496007437E+02  0.000000000E+00  0.00000E+00  9.000E+00
#rwgt            1           1   2.6246886809756873E-002           2      298947           0
</event>
<event>
      5   9999  3.19816E-02  6.09002E+02 -1.00000E+00  9.64782E-02
      21    -1     0     0   502   501  0.000000000E+00  0.000000000E+00  5.799797452E+02  5.799797452E+02  0.000000000E+00  0.00000E+00  9.000E+00
      21    -1     0     0   501   512  0.000000000E+00  0.000000000E+00 -1.616711096E+03  1.616711096E+03  0.000000000E+00  0.00000E+00  9.000E+00
      25     1     1     2     0     0 -4.982521684E+02 -2.398064352E+02 -5.971931925E+02  8.234239849E+02  1.250000000E+02  0.00000E+00  9.000E+00
      25     1     1     2     0     0 -4.438460608E+01 -3.665111461E+01  3.500355231E+02  3.761158929E+02  1.250000000E+02  0.00000E+00  9.000E+00
      21     1     1     2   502   512  5.426367745E+02  2.764575498E+02 -7.895736817E+02  9.971509639E+02  1.078959322E-05  0.00000E+00  9.000E+00
#rwgt            2          11   1.2955744214485363E-003           2      299063           0
</event>
<event>
      5   9999  3.19816E-02  4.83953E+02 -1.00000E+00  9.92561E-02
      21    -1     0     0   502   501  0.000000000E+00  0.000000000E+00  1.651289894E+03  1.651289894E+03  0.000000000E+00  0.00000E+00  9.000E+00
      21    -1     0     0   511   502  0.000000000E+00  0.000000000E+00 -4.136088259E+02  4.136088259E+02  0.000000000E+00  0.00000E+00  9.000E+00
      25     1     1     2     0     0  4.005471670E+02 -5.501043209E+02  7.613636588E+02  1.028762566E+03  1.250000000E+02  0.00000E+00  9.000E+00
      25     1     1     2     0     0 -4.126217064E+02  6.630218525E+01  2.247514263E+02  4.907044487E+02  1.250000000E+02  0.00000E+00  9.000E+00
      21     1     1     2   511   501  1.207453944E+01  4.838021356E+02  2.515659831E+02  5.454317050E+02  1.501847815E-05  0.00000E+00  9.000E+00
#rwgt            2          11   2.2133161769033530E-003           2      299098           0
</event>
<event>
      5   9999  3.19816E-02  1.43075E+02 -1.00000E+00  1.17213E-01
       2    -1     0     0   502     0  0.000000000E+00  0.000000000E+00  2.955886133E+03  2.955886133E+03  0.000000000E+00  0.00000E+00  9.000E+00
      21    -1     0     0   501   502  0.000000000E+00  0.000000000E+00 -3.121259285E+02  3.121259285E+02  0.000000000E+00  0.00000E+00  9.000E+00
      25     1     1     2     0     0 -2.072870325E+02 -7.155443739E+01  8.781035338E+01  2.672519588E+02  1.250000000E+02  0.00000E+00  9.000E+00
      25     1     1     2     0     0  1.847025082E+02 -6.972632545E+01 -1.586203840E+02  2.824220303E+02  1.250000000E+02  0.00000E+00  9.000E+00
       2     1     1     2   501     0  2.258452429E+01  1.412807628E+02  2.714570235E+03  2.718338072E+03  3.051757812E-05  0.00000E+00  9.000E+00
#rwgt            2          18   5.8611259898988070E-003           2      299223           0
</event>
<event>
      5   9999  3.19816E-02  8.88824E+01 -1.00000E+00  1.26175E-01
       2    -1     0     0   502     0  0.000000000E+00  0.000000000E+00  2.328266752E+03  2.328266752E+03  0.000000000E+00  0.00000E+00  9.000E+00
      21    -1     0     0   501   502  0.000000000E+00  0.000000000E+00 -2.527704443E+01  2.527704443E+01  0.000000000E+00  0.00000E+00  9.000E+00
      25     1     1     2     0     0 -4.621236651E+01 -1.423832593E+02  5.152458092E+02  5.509190678E+02  1.250000000E+02  0.00000E+00  9.000E+00
      25     1     1     2     0     0  4.160133580E+01  5.362053273E+01  1.086839921E+03  1.096107589E+03  1.250000000E+02  0.00000E+00  9.000E+00
       2     1     1     2   501     0  4.611030713E+00  8.876272652E+01  7.009039773E+02  7.065171397E+02  7.629394531E-06  0.00000E+00  9.000E+00
#rwgt            1           1   2.8619470694197055E-002           2      299242           0
</event>
<event>
      5   9999  3.19816E-02  9.32680E+01 -1.00000E+00  1.25205E-01
      21    -1     0     0   502   501  0.000000000E+00  0.000000000E+00  6.165761961E+02  6.165761961E+02  0.000000000E+00  0.00000E+00  9.000E+00
      21    -1     0     0   501   511  0.000000000E+00  0.000000000E+00 -1.138782348E+03  1.138782348E+03  0.000000000E+00  0.00000E+00  9.000E+00
      25     1     1     2     0     0  1.765128390E+02  3.440566633E+00  5.757474899E+02  6.150437318E+02  1.250000000E+02  0.00000E+00  9.000E+00
      25     1     1     2     0     0 -1.036397728E+02  5.476969749E+01 -3.866613044E+02  4.229336669E+02  1.250000000E+02  0.00000E+00  9.000E+00
      21     1     1     2   502   511 -7.287306619E+01 -5.821026413E+01 -7.112923370E+02  7.173811451E+02  1.525878906E-05  0.00000E+00  9.000E+00
#rwgt            1           1   2.9739689693280211E-002           2      299289           0
</event>
<event>
      5   9999  3.19816E-02  7.01148E+01 -1.00000E+00  1.31185E-01
      21    -1     0     0   502   501  0.000000000E+00  0.000000000E+00  2.500070519E+02  2.500070519E+02  0.000000000E+00  0.00000E+00  9.000E+00
      21    -1     0     0   501   512  0.000000000E+00  0.000000000E+00 -8.871813996E+02  8.871813996E+02  0.000000000E+00  0.00000E+00  9.000E+00
      25     1     1     2     0     0  8.343351159E+01 -3.740774509E+02 -1.469746874E+02  4.290939860E+02  1.250000000E+02  0.00000E+00  9.000E+00
      25     1     1     2     0     0 -2.712631794E+01  4.158577036E+02 -3.810098127E+02  5.783311717E+02  1.250000000E+02  0.00000E+00  9.000E+00
      21     1     1     2   502   512 -5.630719365E+01 -4.178025271E+01 -1.091898476E+02  1.297632937E+02  0.000000000E+00  0.00000E+00  9.000E+00
#rwgt            1           1   2.9127506254863548E-002           2      299382           0
</event>
<event>
      5   9999  3.19816E-02  2.13139E+01 -1.00000E+00  1.64121E-01
      21    -1     0     0   511   501  0.000000000E+00  0.000000000E+00  3.501693623E+02  3.501693623E+02  0.000000000E+00  0.00000E+00  9.000E+00
      21    -1     0     0   501   502  0.000000000E+00  0.000000000E+00 -2.787006673E+02  2.787006673E+02  0.000000000E+00  0.00000E+00  9.000E+00
      25     1     1     2     0     0 -6.215541116E+00 -1.622161479E+02 -1.924877426E+02  2.811214020E+02  1.250000000E+02  0.00000E+00  9.000E+00
      25     1     1     2     0     0  2.122608559E+01  1.470845600E+02  1.934965475E+02  2.741356022E+02  1.250000000E+02  0.00000E+00  9.000E+00
      21     1     1     2   511   502 -1.501054448E+01  1.513158782E+01  7.045989012E+01  7.361302542E+01  9.536743164E-07  0.00000E+00  9.000E+00
#rwgt            1           1   3.2713312176752996E-002           2      299471           0
</event>
<event>
      5   9999  3.19816E-02  9.29280E+01 -1.00000E+00  1.25278E-01
      21    -1     0     0   502   501  0.000000000E+00  0.000000000E+00  1.517872789E+03  1.517872789E+03  0.000000000E+00  0.00000E+00  9.000E+00
      21    -1     0     0   512   502  0.000000000E+00  0.000000000E+00 -6.435341396E+02  6.435341396E+02  0.000000000E+00  0.00000E+00  9.000E+00
      25     1     1     2     0     0  7.071756892E+02 -5.985975938E+02  7.705846714E+02  1.211545406E+03  1.250000000E+02  0.00000E+00  9.000E+00
      25     1     1     2     0     0 -6.611897377E+02  5.178454872E+02  1.125372254E+02  8.565193781E+02  1.250000000E+02  0.00000E+00  9.000E+00
      21     1     1     2   512   501 -4.598595142E+01  8.075210658E+01 -8.783247832E+00  9.334214422E+01  2.255545608E-06  0.00000E+00  9.000E+00
#rwgt            1           1   2.7161277759126745E-002           2      299643           0
</event>
<event>
      5   9999  3.19816E-02  9.77824E+01 -1.00000E+00  1.24268E-01
      21    -1     0     0   502   511  0.000000000E+00  0.000000000E+00  7.111309257E+02  7.111309257E+02  0.000000000E+00  0.00000E+00  9.000E+00
      21    -1     0     0   501   502  0.000000000E+00  0.000000000E+00 -9.372150299E+02  9.372150299E+02  0.000000000E+00  0.00000E+00  9.000E+00
      25     1     1     2     0     0  2.385817290E+02 -3.426277024E+02  3.514486846E+02  5.598715582E+02  1.250000000E+02  0.00000E+00  9.000E+00
      25     1     1     2     0     0 -2.722223744E+02  2.508143206E+02 -7.751206968E+02  8.680149418E+02  1.250000000E+02  0.00000E+00  9.000E+00
      21     1     1     2   501   511  3.364064548E+01  9.181338182E+01  1.975879081E+02  2.204594555E+02  0.000000000E+00  0.00000E+00  9.000E+00
#rwgt            2          11   3.4976967285019755E-003           2      299858           0
</event>
<event>
      5   9999  3.19816E-02  2.39673E+01 -1.00000E+00  1.60135E-01
      21    -1     0     0   512   501  0.000000000E+00  0.000000000E+00  9.241693840E+02  9.241693840E+02  0.000000000E+00  0.00000E+00  9.000E+00
      21    -1     0     0   501   502  0.000000000E+00  0.000000000E+00 -2.275329612E+02  2.275329612E+02  0.000000000E+00  0.00000E+00  9.000E+00
      25     1     1     2     0     0  1.789794158E+02 -4.066668272E+01 -7.465245405E+01  2.342763310E+02  1.250000000E+02  0.00000E+00  9.000E+00
      25     1     1     2     0     0 -1.794562095E+02  6.462927705E+01  1.056110613E+02  2.513168734E+02  1.250000000E+02  0.00000E+00  9.000E+00
      21     1     1     2   512   502  4.767937056E-01 -2.396259433E+01  6.656778155E+02  6.661091407E+02  7.629394531E-06  0.00000E+00  9.000E+00
#rwgt            1           1   2.5985375295107218E-002           2      299878           0
</event>
<event>
      5   9999  3.19816E-02  5.34820E+01 -1.00000E+00  1.37428E-01
      21    -1     0     0   502   501  0.000000000E+00  0.000000000E+00  2.799366019E+02  2.799366019E+02  0.000000000E+00  0.00000E+00  9.000E+00
      21    -1     0     0   501   511  0.000000000E+00  0.000000000E+00 -2.215631443E+03  2.215631443E+03  0.000000000E+00  0.00000E+00  9.000E+00
      25     1     1     2     0     0  1.224813608E+02  1.108687473E+02  1.931783556E+02  2.832603748E+02  1.250000000E+02  0.00000E+00  9.000E+00
      25     1     1     2     0     0 -1.759558569E+02 -1.099742645E+02 -3.136802641E+02  3.963270247E+02  1.250000000E+02  0.00000E+00  9.000E+00
      21     1     1     2   502   511  5.347449612E+01 -8.944827425E-01 -1.815192932E+03  1.815980645E+03  2.157918644E-05  0.00000E+00  9.000E+00
#rwgt            1           1   2.7346157650252292E-002           2      300011           0
</event>
<event>
      5   9999  3.19816E-02  1.49449E+01 -1.00000E+00  1.77534E-01
      21    -1     0     0   502   501  0.000000000E+00  0.000000000E+00  2.854890647E+03  2.854890647E+03  0.000000000E+00  0.00000E+00  9.000E+00
      21    -1     0     0   512   502  0.000000000E+00  0.000000000E+00 -9.685588602E+01  9.685588602E+01  0.000000000E+00  0.00000E+00  9.000E+00
      25     1     1     2     0     0 -9.354919712E+01 -3.610059899E+01  2.709614432E+03  2.714348923E+03  1.250000000E+02  0.00000E+00  9.000E+00
      25     1     1     2     0     0  9.558179874E+01  5.090665556E+01  9.344405922E+01  1.899583113E+02  1.250000000E+02  0.00000E+00  9.000E+00
      21     1     1     2   512   501 -2.032601620E+00 -1.480605657E+01 -4.502373025E+01  4.743929875E+01  3.126830351E-06  0.00000E+00  9.000E+00
#rwgt            1           1   4.1144984749713974E-002           2      300090           0
</event>
<event>
      5   9999  3.19816E-02  8.74799E+01 -1.00000E+00  1.26498E-01
      21    -1     0     0   502   501  0.000000000E+00  0.000000000E+00  2.891719559E+02  2.891719559E+02  0.000000000E+00  0.00000E+00  9.000E+00
      21    -1     0     0   501   511  0.000000000E+00  0.000000000E+00 -2.610635799E+02  2.610635799E+02  0.000000000E+00  0.00000E+00  9.000E+00
      25     1     1     2     0     0  9.342981481E+01  1.096506447E+02  1.310428736E+02  2.314079275E+02  1.250000000E+02  0.00000E+00  9.000E+00
      25     1     1     2     0     0 -3.106331941E+01 -1.709951653E+02 -6.782469280E+01  2.245650581E+02  1.250000000E+02  0.00000E+00  9.000E+00
      21     1     1     2   502   511 -6.236649540E+01  6.134452064E+01 -3.510980489E+01  9.426255015E+01  9.536743164E-07  0.00000E+00  9.000E+00
#rwgt            1           1   3.0493966559742985E-002           2      300322           0
</event>
<event>
      5   9999  3.19816E-02  2.16284E+01 -1.00000E+00  1.63612E-01
      21    -1     0     0   502   501  0.000000000E+00  0.000000000E+00  1.822608732E+02  1.822608732E+02  0.000000000E+00  0.00000E+00  9.000E+00
      21    -1     0     0   512   502  0.000000000E+00  0.000000000E+00 -5.556625776E+02  5.556625776E+02  0.000000000E+00  0.00000E+00  9.000E+00
      25     1     1     2     0     0 -5.223690957E+01 -2.117253163E+01 -4.818296743E+02  5.009608825E+02  1.250000000E+02  0.00000E+00  9.000E+00
      25     1     1     2     0     0  5.714542764E+01  1.085259671E-01  1.416175350E+02  1.973477588E+02  1.250000000E+02  0.00000E+00  9.000E+00
      21     1     1     2   512   501 -4.908518063E+00  2.106400567E+01 -3.318956518E+01  3.961480936E+01  4.768371582E-07  0.00000E+00  9.000E+00
#rwgt            1           1   2.2970624362816806E-002           2      300408           0
</event>
<event>
      5   9999  3.19816E-02  5.26164E+01 -1.00000E+00  1.37823E-01
      21    -1     0     0   502   511  0.000000000E+00  0.000000000E+00  1.531906840E+03  1.531906840E+03  0.000000000E+00  0.00000E+00  9.000E+00
      21    -1     0     0   501   502  0.000000000E+00  0.000000000E+00 -2.257848761E+02  2.257848761E+02  0.000000000E+00  0.00000E+00  9.000E+00
      25     1     1     2     0     0 -2.823307369E+02  2.597088290E+02  4.050112181E+02  5.716803369E+02  1.250000000E+02  0.00000E+00  9.000E+00
      25     1     1     2     0     0  3.243381357E+02 -2.913926862E+02  2.222219392E+02  5.050866402E+02  1.250000000E+02  0.00000E+00  9.000E+00
      21     1     1     2   501   511 -4.200739884E+01  3.168385725E+01  6.788888071E+02  6.809247394E+02  7.629394531E-06  0.00000E+00  9.000E+00
#rwgt            1           1   2.7281427787168844E-002           2      300562           0
</event>
<event>
      5   9999  3.19816E-02  2.18161E+01 -1.00000E+00  1.63314E-01
      21    -1     0     0   502   501  0.000000000E+00  0.000000000E+00  7.317219572E+01  7.317219572E+01  0.000000000E+00  0.00000E+00  9.000E+00
      21    -1     0     0   512   502  0.000000000E+00  0.000000000E+00 -1.555726716E+03  1.555726716E+03  0.000000000E+00  0.00000E+00  9.000E+00
      25     1     1     2     0     0 -1.071891710E+02  1.196350763E+02 -9.990732205E+01  2.267345207E+02  1.250000000E+02  0.00000E+00  9.000E+00
      25     1     1     2     0     0  1.066332047E+02 -9.782604120E+01 -9.547280653E+02  9.736895056E+02  1.250000000E+02  0.00000E+00  9.000E+00
      21     1     1     2   512   501  5.559663465E-01 -2.180903512E+01 -4.279191325E+02  4.284748850E+02  9.344061824E-06  0.00000E+00  9.000E+00
#rwgt            1           1   3.1128762455391243E-002           2      300681           0
</event>
<event>
      5   9999  3.19816E-02  3.54893E+02 -1.00000E+00  1.03274E-01
      21    -1     0     0   502   501  0.000000000E+00  0.000000000E+00  9.645547685E+02  9.645547685E+02  0.000000000E+00  0.00000E+00  9.000E+00
      21    -1     0     0   501   511  0.000000000E+00  0.000000000E+00 -1.796238015E+03  1.796238015E+03  0.000000000E+00  0.00000E+00  9.000E+00
      25     1     1     2     0     0  6.697951655E+02  2.168350952E+02  1.839750373E+02  7.383189260E+02  1.250000000E+02  0.00000E+00  9.000E+00
      25     1     1     2     0     0 -8.447842949E+02  9.191744932E+01  8.776098668E+01  8.633865375E+02  1.250000000E+02  0.00000E+00  9.000E+00
      21     1     1     2   502   511  1.749891294E+02 -3.087525445E+02 -1.103419270E+03  1.159087320E+03  0.000000000E+00  0.00000E+00  9.000E+00
#rwgt            1           1   3.4594795939472914E-002           2      300913           0
</event>
<event>
      5   9999  3.19816E-02  1.52923E+01 -1.00000E+00  1.76598E-01
      21    -1     0     0   502   501  0.000000000E+00  0.000000000E+00  1.162724793E+03  1.162724793E+03  0.000000000E+00  0.00000E+00  9.000E+00
      21    -1     0     0   501   512  0.000000000E+00  0.000000000E+00 -1.058264669E+02  1.058264669E+02  0.000000000E+00  0.00000E+00  9.000E+00
      25     1     1     2     0     0 -6.793140129E+01  2.793229120E+02  4.837458702E+02  5.764295545E+02  1.250000000E+02  0.00000E+00  9.000E+00
      25     1     1     2     0     0  6.247925621E+01 -2.936102469E+02  5.872864958E+02  6.712980431E+02  1.250000000E+02  0.00000E+00  9.000E+00
      21     1     1     2   502   512  5.452145078E+00  1.428733492E+01 -1.413403984E+01  2.082366220E+01  5.840038640E-07  0.00000E+00  9.000E+00
#rwgt            1           1   2.6424090065273954E-002           2      300970           0
</event>
<event>
      5   9999  3.19816E-02  2.35668E+02 -1.00000E+00  1.09114E-01
      21    -1     0     0   502   501  0.000000000E+00  0.000000000E+00  1.032776426E+03  1.032776426E+03  0.000000000E+00  0.00000E+00  9.000E+00
      21    -1     0     0   501   511  0.000000000E+00  0.000000000E+00 -3.152524245E+02  3.152524245E+02  0.000000000E+00  0.00000E+00  9.000E+00
      25     1     1     2     0     0  1.716983535E+02  5.469041863E+01 -1.531005201E+02  2.674624006E+02  1.250000000E+02  0.00000E+00  9.000E+00
      25     1     1     2     0     0 -2.693745791E+02  1.597829551E+02  7.349798698E+02  8.086492847E+02  1.250000000E+02  0.00000E+00  9.000E+00
      21     1     1     2   502   511  9.767622560E+01 -2.144733737E+02  1.356446515E+02  2.719171648E+02  6.325959759E-06  0.00000E+00  9.000E+00
#rwgt            1           1   2.9667414808976441E-002           2      301162           0
</event>
<event>
      5   9999  3.19816E-02  1.46873E+02 -1.00000E+00  1.16757E-01
       2    -1     0     0   502     0  0.000000000E+00  0.000000000E+00  2.683262385E+02  2.683262385E+02  0.000000000E+00  0.00000E+00  9.000E+00
      21    -1     0     0   501   502  0.000000000E+00  0.000000000E+00 -1.865689143E+03  1.865689143E+03  0.000000000E+00  0.00000E+00  9.000E+00
      25     1     1     2     0     0 -1.021787147E+02 -9.671534475E+00 -1.673370989E+03  1.681169086E+03  1.250000000E+02  0.00000E+00  9.000E+00
      25     1     1     2     0     0  2.274182719E+02 -6.705312021E+01 -3.284232976E+01  2.700348310E+02  1.250000000E+02  0.00000E+00  9.000E+00
       2     1     1     2   501     0 -1.252395572E+02  7.672465468E+01  1.088504136E+02  1.828114653E+02  2.697398305E-06  0.00000E+00  9.000E+00
#rwgt            2          18   3.9197262884940753E-004           2      301374           0
</event>
<event>
      5   9999  3.19816E-02  1.89801E+01 -1.00000E+00  1.68267E-01
      21    -1     0     0   511   501  0.000000000E+00  0.000000000E+00  1.376034676E+03  1.376034676E+03  0.000000000E+00  0.00000E+00  9.000E+00
      21    -1     0     0   501   502  0.000000000E+00  0.000000000E+00 -4.497475912E+02  4.497475912E+02  0.000000000E+00  0.00000E+00  9.000E+00
      25     1     1     2     0     0  1.666264689E+02 -1.393045528E+02 -3.984315811E+02  4.706834003E+02  1.250000000E+02  0.00000E+00  9.000E+00
      25     1     1     2     0     0 -1.516899751E+02  1.510154506E+02  1.016081219E+03  1.045878367E+03  1.250000000E+02  0.00000E+00  9.000E+00
      21     1     1     2   511   502 -1.493649383E+01 -1.171089779E+01  3.086374474E+02  3.092205005E+02  3.814697266E-06  0.00000E+00  9.000E+00
#rwgt            1           1   2.6085445328157351E-002           2      301393           0
</event>
<event>
      5   9999  3.19816E-02  2.76524E+01 -1.00000E+00  1.55539E-01
      21    -1     0     0   512   501  0.000000000E+00  0.000000000E+00  4.266637483E+02  4.266637483E+02  0.000000000E+00  0.00000E+00  9.000E+00
      21    -1     0     0   501   502  0.000000000E+00  0.000000000E+00 -1.572522154E+03  1.572522154E+03  0.000000000E+00  0.00000E+00  9.000E+00
      25     1     1     2     0     0 -7.009738601E+02  9.245976140E+01 -2.722020574E+02  7.678750681E+02  1.250000000E+02  0.00000E+00  9.000E+00
      25     1     1     2     0     0  6.770206655E+02 -7.864305453E+01 -9.351395025E+02  1.163895442E+03  1.250000000E+02  0.00000E+00  9.000E+00
      21     1     1     2   512   502  2.395319467E+01 -1.381670687E+01  6.148315380E+01  6.741539235E+01  1.168007728E-06  0.00000E+00  9.000E+00
#rwgt            1           1   2.8127354028224524E-002           2      301587           0
</event>
<event>
      5   9999  3.19816E-02  1.22491E+02 -1.00000E+00  1.19991E-01
      21    -1     0     0   502   501  0.000000000E+00  0.000000000E+00  3.039021520E+03  3.039021520E+03  0.000000000E+00  0.00000E+00  9.000E+00
      21    -1     0     0   501   511  0.000000000E+00  0.000000000E+00 -3.930317630E+02  3.930317630E+02  0.000000000E+00  0.00000E+00  9.000E+00
      25     1     1     2     0     0 -1.146720857E+02  2.660697098E+02  3.141233884E+02  4.452429459E+02  1.250000000E+02  0.00000E+00  9.000E+00
      25     1     1     2     0     0  4.164749904E+01 -3.644131588E+02  2.633185683E+03  2.661545286E+03  1.250000000E+02  0.00000E+00  9.000E+00
      21     1     1     2   502   511  7.302458667E+01  9.834344893E+01 -3.013193148E+02  3.252650515E+02  5.394796609E-06  0.00000E+00  9.000E+00
#rwgt            1           1   4.2093622220774146E-002           2      301853           0
</event>
<event>
      5   9999  3.19816E-02  6.63963E+01 -1.00000E+00  1.32394E-01
      21    -1     0     0   502   512  0.000000000E+00  0.000000000E+00  6.801809076E+02  6.801809076E+02  0.000000000E+00  0.00000E+00  9.000E+00
      21    -1     0     0   501   502  0.000000000E+00  0.000000000E+00 -4.500732156E+02  4.500732156E+02  0.000000000E+00  0.00000E+00  9.000E+00
      25     1     1     2     0     0 -1.839839935E+02  1.897933291E+02  3.563287539E+02  4.609412094E+02  1.250000000E+02  0.00000E+00  9.000E+00
      25     1     1     2     0     0  2.173406234E+02 -2.472024248E+02 -3.129866692E+02  4.710962115E+02  1.250000000E+02  0.00000E+00  9.000E+00
      21     1     1     2   501   512 -3.335662991E+01  5.740909579E+01  1.867656073E+02  1.982167024E+02  0.000000000E+00  0.00000E+00  9.000E+00
#rwgt            1           1   2.5377052352454549E-002           2      301917           0
</event>
<event>
      5   9999  3.19816E-02  1.25934E+02 -1.00000E+00  1.19485E-01
      21    -1     0     0   502   501  0.000000000E+00  0.000000000E+00  2.814455135E+02  2.814455135E+02  0.000000000E+00  0.00000E+00  9.000E+00
      21    -1     0     0   501   511  0.000000000E+00  0.000000000E+00 -5.130899211E+02  5.130899211E+02  0.000000000E+00  0.00000E+00  9.000E+00
      25     1     1     2     0     0  2.776421896E+01 -4.777984905E+00  2.185276176E+02  2.533239046E+02  1.250000000E+02  0.00000E+00  9.000E+00
      25     1     1     2     0     0  8.250892522E+00 -1.158965181E+02 -2.155776911E+02  2.749523977E+02  1.250000000E+02  0.00000E+00  9.000E+00
      21     1     1     2   502   511 -3.601511148E+01  1.206745030E+02 -2.345943341E+02  2.662591323E+02  3.814697266E-06  0.00000E+00  9.000E+00
#rwgt            1           1   3.2890616566897922E-002           2      302016           0
</event>
<event>
      5   9999  3.19816E-02  4.86446E+01 -1.00000E+00  1.39760E-01
      21    -1     0     0   502   501  0.000000000E+00  0.000000000E+00  1.006018872E+02  1.006018872E+02  0.000000000E+00  0.00000E+00  9.000E+00
      21    -1     0     0   512   502  0.000000000E+00  0.000000000E+00 -9.569112674E+02  9.569112674E+02  0.000000000E+00  0.00000E+00  9.000E+00
      25     1     1     2     0     0  9.813336358E+01 -3.785423351E+01 -4.424771775E+00  1.634248410E+02  1.250000000E+02  0.00000E+00  9.000E+00
      25     1     1     2     0     0 -1.458273858E+02  4.742380827E+01 -4.820453446E+02  5.210636797E+02  1.250000000E+02  0.00000E+00  9.000E+00
      21     1     1     2   512   501  4.769402224E+01 -9.569574762E+00 -3.698392638E+02  3.730246340E+02  0.000000000E+00  0.00000E+00  9.000E+00
#rwgt            1           1   2.9714764708583665E-002           2      302079           0
</event>
<event>
      5   9999  3.19816E-02  1.17284E+01 -1.00000E+00  1.88080E-01
      21    -1     0     0   511   501  0.000000000E+00  0.000000000E+00  1.499398567E+02  1.499398567E+02  0.000000000E+00  0.00000E+00  9.000E+00
      21    -1     0     0   501   502  0.000000000E+00  0.000000000E+00 -1.292332694E+03  1.292332694E+03  0.000000000E+00  0.00000E+00  9.000E+00
      25     1     1     2     0     0 -1.541319056E+01 -1.708785679E+01 -6.983161893E+01  1.450207444E+02  1.250000000E+02  0.00000E+00  9.000E+00
      25     1     1     2     0     0  1.600439690E+01  5.374403186E+00 -1.181233280E+03  1.187948689E+03  1.250000000E+02  0.00000E+00  9.000E+00
      21     1     1     2   511   502 -5.912063333E-01  1.171345361E+01  1.086720618E+02  1.093031177E+02  4.264961200E-06  0.00000E+00  9.000E+00
#rwgt            1           1   2.8338152466557742E-002           2      302153           0
</event>
<event>
      5   9999  3.19816E-02  4.46609E+01 -1.00000E+00  1.41933E-01
      21    -1     0     0   512   501  0.000000000E+00  0.000000000E+00  9.376213344E+02  9.376213344E+02  0.000000000E+00  0.00000E+00  9.000E+00
      21    -1     0     0   501   502  0.000000000E+00  0.000000000E+00 -1.482119338E+02  1.482119338E+02  0.000000000E+00  0.00000E+00  9.000E+00
      25     1     1     2     0     0  3.618633724E+01  3.756973794E+01  5.572669787E+02  5.734914313E+02  1.250000000E+02  0.00000E+00  9.000E+00
      25     1     1     2     0     0 -2.103258549E+01 -7.958113877E+01 -9.819115083E+01  1.790028754E+02  1.250000000E+02  0.00000E+00  9.000E+00
      21     1     1     2   512   502 -1.515375175E+01  4.201140083E+01  3.303335727E+02  3.333389615E+02  0.000000000E+00  0.00000E+00  9.000E+00
#rwgt            1           1   2.3274571122182151E-002           2      302355           0
</event>
<event>
      5   9999  3.19816E-02  4.99731E+01 -1.00000E+00  1.39089E-01
      21    -1     0     0   511   501  0.000000000E+00  0.000000000E+00  8.979321770E+02  8.979321770E+02  0.000000000E+00  0.00000E+00  9.000E+00
      21    -1     0     0   501   502  0.000000000E+00  0.000000000E+00 -4.455506873E+02  4.455506873E+02  0.000000000E+00  0.00000E+00  9.000E+00
      25     1     1     2     0     0 -2.009041009E+02 -1.547355474E+00  7.134028728E+02  7.516205898E+02  1.250000000E+02  0.00000E+00  9.000E+00
      25     1     1     2     0     0  1.509727200E+02  3.588295195E+00 -3.993019708E+02  4.448288457E+02  1.250000000E+02  0.00000E+00  9.000E+00
      21     1     1     2   511   502  4.993138084E+01 -2.040939722E+00  1.382805877E+02  1.470334287E+02  2.697398305E-06  0.00000E+00  9.000E+00
#rwgt            1           1   3.4965570299862463E-002           2      302491           0
</event>
<event>
      5   9999  3.19816E-02  2.70581E+02 -1.00000E+00  1.07069E-01
       2    -1     0     0   502     0  0.000000000E+00  0.000000000E+00  1.830772858E+03  1.830772858E+03  0.000000000E+00  0.00000E+00  9.000E+00
      21    -1     0     0   501   502  0.000000000E+00  0.000000000E+00 -1.130485327E+03  1.130485327E+03  0.000000000E+00  0.00000E+00  9.000E+00
      25     1     1     2     0     0  4.734670088E+02 -3.000502357E+01  2.445355861E+02  5.481732963E+02  1.250000000E+02  0.00000E+00  9.000E+00
      25     1     1     2     0     0 -3.766897147E+02  2.826874894E+02 -9.038450573E+02  1.026824350E+03  1.250000000E+02  0.00000E+00  9.000E+00
       2     1     1     2   501     0 -9.677729408E+01 -2.526824658E+02  1.359597002E+03  1.386260538E+03  2.642899792E-05  0.00000E+00  9.000E+00
#rwgt            2          18   3.4715644326130551E-003           2      302641           0
</event>
<event>
      5   9999  3.19816E-02  1.67232E+02 -1.00000E+00  1.14552E-01
      21    -1     0     0   511   501  0.000000000E+00  0.000000000E+00  6.348134199E+02  6.348134199E+02  0.000000000E+00  0.00000E+00  9.000E+00
      21    -1     0     0   501   502  0.000000000E+00  0.000000000E+00 -3.635023980E+02  3.635023980E+02  0.000000000E+00  0.00000E+00  9.000E+00
      25     1     1     2     0     0  1.849745339E+02 -2.313026545E+02 -4.985848332E+01  3.253111811E+02  1.250000000E+02  0.00000E+00  9.000E+00
      25     1     1     2     0     0 -3.498538728E+02  2.033476625E+02  2.445221909E+02  4.890440737E+02  1.250000000E+02  0.00000E+00  9.000E+00
      21     1     1     2   511   502  1.648793390E+02  2.795499206E+01  7.664731423E+01  1.839605631E+02  2.523185073E-06  0.00000E+00  9.000E+00
#rwgt            1           1   3.0831361394481709E-002           2      302660           0
</event>
<event>
      5   9999  3.19816E-02  7.67398E+01 -1.00000E+00  1.29230E-01
      21    -1     0     0   502   512  0.000000000E+00  0.000000000E+00  1.334118112E+03  1.334118112E+03  0.000000000E+00  0.00000E+00  9.000E+00
      21    -1     0     0   501   502  0.000000000E+00  0.000000000E+00 -3.459306359E+02  3.459306359E+02  0.000000000E+00  0.00000E+00  9.000E+00
      25     1     1     2     0     0  2.201175692E+02  2.957230719E+02 -5.290446577E+01  3.928457229E+02  1.250000000E+02  0.00000E+00  9.000E+00
      25     1     1     2     0     0 -1.433781255E+02 -2.959436531E+02  1.333569025E+02  3.762299777E+02  1.250000000E+02  0.00000E+00  9.000E+00
      21     1     1     2   501   512 -7.673944375E+01  2.205812322E-01  9.077350398E+02  9.109730476E+02  1.078959322E-05  0.00000E+00  9.000E+00
#rwgt            2          11   1.7392047388580299E-003           2      302702           0
</event>
<event>
      5   9999  3.19816E-02  3.78745E+01 -1.00000E+00  1.46326E-01
      21    -1     0     0   502   511  0.000000000E+00  0.000000000E+00  1.942457972E+02  1.942457972E+02  0.000000000E+00  0.00000E+00  9.000E+00
      21    -1     0     0   501   502  0.000000000E+00  0.000000000E+00 -1.074515666E+03  1.074515666E+03  0.000000000E+00  0.00000E+00  9.000E+00
      25     1     1     2     0     0  3.985240406E+02  4.810874912E+01 -3.697606308E+02  5.598962286E+02  1.250000000E+02  0.00000E+00  9.000E+00
      25     1     1     2     0     0 -3.742692124E+02 -1.901957371E+01 -5.340400490E+02  6.642762689E+02  1.250000000E+02  0.00000E+00  9.000E+00
      21     1     1     2   501   511 -2.425482820E+01 -2.908917541E+01  2.353081077E+01  4.458896582E+01  1.066240300E-06  0.00000E+00  9.000E+00
#rwgt            1           1   2.7865999826316424E-002           2      302737           0
</event>
<event>
      5   9999  3.19816E-02  1.48830E+02 -1.00000E+00  1.16529E-01
      21    -1     0     0   502   501  0.000000000E+00  0.000000000E+00  3.157702021E+03  3.157702021E+03  0.000000000E+00  0.00000E+00  9.000E+00
      21    -1     0     0   501   512  0.000000000E+00  0.000000000E+00 -2.385621231E+02  2.385621231E+02  0.000000000E+00  0.00000E+00  9.000E+00
      25     1     1     2     0     0  1.289231266E+01 -1.110110930E+02  2.644384886E+03  2.649695473E+03  1.250000000E+02  0.00000E+00  9.000E+00
      25     1     1     2     0     0 -9.442086057E+01  2.355243792E+02  4.406948510E+02  5.236639989E+02  1.250000000E+02  0.00000E+00  9.000E+00
      21     1     1     2   502   512  8.152854791E+01 -1.245132862E+02 -1.659398392E+02  2.229046720E+02  9.910874219E-06  0.00000E+00  9.000E+00
#rwgt            1           1   4.3491449712029298E-002           2      302849           0
</event>
<event>
      5   9999  3.19816E-02  5.10485E+01 -1.00000E+00  1.38563E-01
       1    -1     0     0   502     0  0.000000000E+00  0.000000000E+00  5.588532257E+02  5.588532257E+02  0.000000000E+00  0.00000E+00  9.000E+00
      21    -1     0     0   501   502  0.000000000E+00  0.000000000E+00 -2.308406021E+02  2.308406021E+02  0.000000000E+00  0.00000E+00  9.000E+00
      25     1     1     2     0     0  9.159040679E+01 -5.423034421E+01  3.940233016E+02  4.268595729E+02  1.250000000E+02  0.00000E+00  9.000E+00
      25     1     1     2     0     0 -1.288313934E+02  1.931531912E+01 -1.693727040E+02  2.475534737E+02  1.250000000E+02  0.00000E+00  9.000E+00
       1     1     1     2   501     0  3.724098658E+01  3.491502509E+01  1.033620261E+02  1.152807811E+02  1.907348633E-06  0.00000E+00  9.000E+00
#rwgt            2          17   4.4138735006100860E-005           2      303123           0
</event>
<event>
      5   9999  3.19816E-02  4.89006E+01 -1.00000E+00  1.39629E-01
      21    -1     0     0   502   501  0.000000000E+00  0.000000000E+00  7.825393256E+02  7.825393256E+02  0.000000000E+00  0.00000E+00  9.000E+00
      21    -1     0     0   501   511  0.000000000E+00  0.000000000E+00 -2.728268151E+02  2.728268151E+02  0.000000000E+00  0.00000E+00  9.000E+00
      25     1     1     2     0     0  2.488342134E+02  4.279887483E+01  5.962895757E+02  6.594971324E+02  1.250000000E+02  0.00000E+00  9.000E+00
      25     1     1     2     0     0 -2.948565675E+02 -2.626971112E+01 -1.125801344E+02  3.404846249E+02  1.250000000E+02  0.00000E+00  9.000E+00
      21     1     1     2   502   511  4.602235403E+01 -1.652916371E+01  2.600306918E+01  5.538438345E+01  8.920806376E-07  0.00000E+00  9.000E+00
#rwgt            1           1   2.8961525400238858E-002           2      303157           0
</event>
<event>
      5   9999  3.19816E-02  2.53520E+01 -1.00000E+00  1.58297E-01
      21    -1     0     0   502   512  0.000000000E+00  0.000000000E+00  9.801323826E+02  9.801323826E+02  0.000000000E+00  0.00000E+00  9.000E+00
      21    -1     0     0   501   502  0.000000000E+00  0.000000000E+00 -1.575779349E+02  1.575779349E+02  0.000000000E+00  0.00000E+00  9.000E+00
      25     1     1     2     0     0  2.871532126E+02 -4.725036868E+00  7.815347202E+01  3.228192353E+02  1.250000000E+02  0.00000E+00  9.000E+00
      25     1     1     2     0     0 -2.783373937E+02 -1.904479407E+01  6.749207162E+02  7.409300791E+02  1.250000000E+02  0.00000E+00  9.000E+00
      21     1     1     2   501   512 -8.815818890E+00  2.376983094E+01  6.948025947E+01  7.396100312E+01  9.536743164E-07  0.00000E+00  9.000E+00
#rwgt            1           1   2.7219638682176986E-002           2      303250           0
</event>
<event>
      5   9999  3.19816E-02  1.69563E+01 -1.00000E+00  1.72511E-01
      21    -1     0     0   502   511  0.000000000E+00  0.000000000E+00  5.287162935E+02  5.287162935E+02  0.000000000E+00  0.00000E+00  9.000E+00
      21    -1     0     0   501   502  0.000000000E+00  0.000000000E+00 -9.132738389E+02  9.132738389E+02  0.000000000E+00  0.00000E+00  9.000E+00
      25     1     1     2     0     0 -2.057872119E+02 -5.260409206E+02 -4.269157142E+02  7.189919706E+02  1.250000000E+02  0.00000E+00  9.000E+00
      25     1     1     2     0     0  2.224965866E+02  5.289238831E+02 -8.598929583E+01  5.935354784E+02  1.250000000E+02  0.00000E+00  9.000E+00
      21     1     1     2   501   511 -1.670937478E+01 -2.882962418E+00  1.283474647E+02  1.294626834E+02  1.907348633E-06  0.00000E+00  9.000E+00
#rwgt            1           1   2.7154930266398689E-002           2      303383           0
</event>
<event>
      5   9999  3.19816E-02  1.90284E+01 -1.00000E+00  1.68173E-01
      21    -1     0     0   502   512  0.000000000E+00  0.000000000E+00  1.506364784E+03  1.506364784E+03  0.000000000E+00  0.00000E+00  9.000E+00
      21    -1     0     0   501   502  0.000000000E+00  0.000000000E+00 -2.858831189E+02  2.858831189E+02  0.000000000E+00  0.00000E+00  9.000E+00
      25     1     1     2     0     0  1.211642624E+02 -2.821924560E+01 -2.521635459E+02  3.077150600E+02  1.250000000E+02  0.00000E+00  9.000E+00
      25     1     1     2     0     0 -1.048026015E+02  3.793404755E+01  1.269657124E+03  1.280654829E+03  1.250000000E+02  0.00000E+00  9.000E+00
      21     1     1     2   501   512 -1.636166089E+01 -9.714801945E+00  2.029880868E+02  2.038780143E+02  2.697398305E-06  0.00000E+00  9.000E+00
#rwgt            1           1   2.6723307771805056E-002           2      303570           0
</event>
<event>
      5   9999  3.19816E-02  9.56028E+01 -1.00000E+00  1.24713E-01
      21    -1     0     0   502   501  0.000000000E+00  0.000000000E+00  1.987271080E+02  1.987271080E+02  0.000000000E+00  0.00000E+00  9.000E+00
      21    -1     0     0   501   511  0.000000000E+00  0.000000000E+00 -1.553295707E+03  1.553295707E+03  0.000000000E+00  0.00000E+00  9.000E+00
      25     1     1     2     0     0 -2.229547685E+02 -2.850820772E+02 -8.874715862E+02  9.665461375E+02  1.250000000E+02  0.00000E+00  9.000E+00
      25     1     1     2     0     0  3.052027903E+02  3.338176358E+02 -2.156001065E+02  5.164216912E+02  1.250000000E+02  0.00000E+00  9.000E+00
      21     1     1     2   502   511 -8.224802179E+01 -4.873555854E+01 -2.514969063E+02  2.690549863E+02  3.814697266E-06  0.00000E+00  9.000E+00
#rwgt            1           1   2.9393221956881120E-002           2      303734           0
</event>
<event>
      5   9999  3.19816E-02  1.41919E+01 -1.00000E+00  1.79680E-01
      21    -1     0     0   502   512  0.000000000E+00  0.000000000E+00  2.568911861E+02  2.568911861E+02  0.000000000E+00  0.00000E+00  9.000E+00
      21    -1     0     0   501   502  0.000000000E+00  0.000000000E+00 -1.240885962E+03  1.240885962E+03  0.000000000E+00  0.00000E+00  9.000E+00
      25     1     1     2     0     0 -3.354922533E+02 -2.130103356E+02 -9.542223279E+02  1.041198207E+03  1.250000000E+02  0.00000E+00  9.000E+00
      25     1     1     2     0     0  3.480650318E+02  2.195932063E+02 -4.876847493E+01  4.328669620E+02  1.250000000E+02  0.00000E+00  9.000E+00
      21     1     1     2   501   512 -1.257277856E+01 -6.582870709E+00  1.899602655E+01  2.371197951E+01  5.840038640E-07  0.00000E+00  9.000E+00
#rwgt            1           1   2.8931935863346751E-002           2      303838           0
</event>
<event>
      5   9999  3.19816E-02  3.98553E+01 -1.00000E+00  1.44938E-01
      21    -1     0     0   502   501  0.000000000E+00  0.000000000E+00  2.072143920E+01  2.072143920E+01  0.000000000E+00  0.00000E+00  9.000E+00
      21    -1     0     0   511   502  0.000000000E+00  0.000000000E+00 -2.119008777E+03  2.119008777E+03  0.000000000E+00  0.00000E+00  9.000E+00
      25     1     1     2     0     0  3.557185685E+01  3.926299626E+00 -1.066556810E+03  1.074452978E+03  1.250000000E+02  0.00000E+00  9.000E+00
      25     1     1     2     0     0 -3.783888067E+01 -4.371711443E+01 -2.755926571E+02  3.080897266E+02  1.250000000E+02  0.00000E+00  9.000E+00
      21     1     1     2   511   501  2.267023823E+00  3.979081480E+01 -7.561378702E+02  7.571875112E+02  1.078959322E-05  0.00000E+00  9.000E+00
#rwgt            1           1   3.1924564240477619E-002           2      304049           0
</event>
<event>
      5   9999  3.19816E-02  1.60493E+01 -1.00000E+00  1.74661E-01
      21    -1     0     0   512   501  0.000000000E+00  0.000000000E+00  2.427866879E+02  2.427866879E+02  0.000000000E+00  0.00000E+00  9.000E+00
      21    -1     0     0   501   502  0.000000000E+00  0.000000000E+00 -1.106526622E+03  1.106526622E+03  0.000000000E+00  0.00000E+00  9.000E+00
      25     1     1     2     0     0  2.540734058E+01  2.741094478E+02 -4.425733755E+01  3.055572520E+02  1.250000000E+02  0.00000E+00  9.000E+00
      25     1     1     2     0     0 -4.105079726E+01 -2.705229819E+02 -9.065833025E+02  9.551890578E+02  1.250000000E+02  0.00000E+00  9.000E+00
      21     1     1     2   512   502  1.564345668E+01 -3.586465896E+00  8.710070616E+01  8.856699999E+01  2.336015456E-06  0.00000E+00  9.000E+00
#rwgt            1           1   2.8217775409462256E-002           2      304119           0
</event>
<event>
      5   9999  3.19816E-02  1.32260E+02 -1.00000E+00  1.18602E-01
      21    -1     0     0   502   501  0.000000000E+00  0.000000000E+00  2.611138675E+02  2.611138675E+02  0.000000000E+00  0.00000E+00  9.000E+00
      21    -1     0     0   501   511  0.000000000E+00  0.000000000E+00 -9.120844626E+02  9.120844626E+02  0.000000000E+00  0.00000E+00  9.000E+00
      25     1     1     2     0     0  2.731473790E+02  3.227789884E+02 -2.190500891E+02  4.923451103E+02  1.250000000E+02  0.00000E+00  9.000E+00
      25     1     1     2     0     0 -2.994480793E+02 -1.931604741E+02 -2.388549608E+02  4.468297363E+02  1.250000000E+02  0.00000E+00  9.000E+00
      21     1     1     2   502   511  2.630070029E+01 -1.296185144E+02 -1.930655451E+02  2.340234835E+02  0.000000000E+00  0.00000E+00  9.000E+00
#rwgt            1           1   2.6473633002071038E-002           2      304318           0
</event>
<event>
      5   9999  3.19816E-02  3.46155E+02 -1.00000E+00  1.03611E-01
      21    -1     0     0   502   512  0.000000000E+00  0.000000000E+00  4.630390697E+02  4.630390697E+02  0.000000000E+00  0.00000E+00  9.000E+00
      21    -1     0     0   501   502  0.000000000E+00  0.000000000E+00 -7.694482530E+02  7.694482530E+02  0.000000000E+00  0.00000E+00  9.000E+00
      25     1     1     2     0     0  1.647489018E+01  3.276053137E+01  2.213535855E+02  2.568405813E+02  1.250000000E+02  0.00000E+00  9.000E+00
      25     1     1     2     0     0 -1.625670182E+01 -3.789156209E+02 -4.828558200E+02  6.265908322E+02  1.250000000E+02  0.00000E+00  9.000E+00
      21     1     1     2   501   512 -2.181883650E-01  3.461550896E+02 -4.490694887E+01  3.490559091E+02  3.405298437E-06  0.00000E+00  9.000E+00
#rwgt            1           1   2.8258454537344466E-002           2      304398           0
</event>
<event>
      5   9999  3.19816E-02  1.61661E+02 -1.00000E+00  1.15119E-01
      21    -1     0     0   502   501  0.000000000E+00  0.000000000E+00  4.138013885E+02  4.138013885E+02  0.000000000E+00  0.00000E+00  9.000E+00
      21    -1     0     0   501   511  0.000000000E+00  0.000000000E+00 -5.735583406E+02  5.735583406E+02  0.000000000E+00  0.00000E+00  9.000E+00
      25     1     1     2     0     0 -1.275788844E+02 -4.576820513E+01 -2.131705174E+02  2.818470682E+02  1.250000000E+02  0.00000E+00  9.000E+00
      25     1     1     2     0     0  2.471490159E+02 -6.303137722E+01  2.984129128E+02  4.119840496E+02  1.250000000E+02  0.00000E+00  9.000E+00
      21     1     1     2   502   511 -1.195701316E+02  1.087995824E+02 -2.449993474E+02  2.935286114E+02  3.814697266E-06  0.00000E+00  9.000E+00
#rwgt            1           1   2.8977547326797502E-002           2      304461           0
</event>
<event>
      5   9999  3.19816E-02  1.58667E+02 -1.00000E+00  1.15435E-01
      21    -1     0     0   502   501  0.000000000E+00  0.000000000E+00  3.550010402E+02  3.550010402E+02  0.000000000E+00  0.00000E+00  9.000E+00
       2    -1     0     0   501     0  0.000000000E+00  0.000000000E+00 -7.967195179E+02  7.967195179E+02  0.000000000E+00  0.00000E+00  9.000E+00
      25     1     1     2     0     0  2.663538801E+02 -3.553717133E+02 -4.181396084E+01  4.632567877E+02  1.250000000E+02  0.00000E+00  9.000E+00
      25     1     1     2     0     0 -1.076937935E+02  3.539198048E+02 -2.185161347E+02  4.474723260E+02  1.250000000E+02  0.00000E+00  9.000E+00
       2     1     1     2   502     0 -1.586600866E+02  1.451908453E+00 -1.813883821E+02  2.409914444E+02  4.672030912E-06  0.00000E+00  9.000E+00
#rwgt            1           1   2.9872224139973595E-002           2      304516           0
</event>
<event>
      5   9999  3.19816E-02  6.06533E+01 -1.00000E+00  1.34453E-01
      21    -1     0     0   511   501  0.000000000E+00  0.000000000E+00  9.047453019E+01  9.047453019E+01  0.000000000E+00  0.00000E+00  9.000E+00
      21    -1     0     0   501   502  0.000000000E+00  0.000000000E+00 -4.467070157E+02  4.467070157E+02  0.000000000E+00  0.00000E+00  9.000E+00
      25     1     1     2     0     0  3.317495115E+01 -1.240032839E+02 -1.355520094E+02  2.246702896E+02  1.250000000E+02  0.00000E+00  9.000E+00
      25     1     1     2     0     0  2.146509207E+01  9.767298866E+01 -1.695717871E+02  2.331959559E+02  1.250000000E+02  0.00000E+00  9.000E+00
      21     1     1     2   511   502 -5.464004322E+01  2.633029522E+01 -5.110868905E+01  7.931530033E+01  9.536743164E-07  0.00000E+00  9.000E+00
#rwgt            1           1   2.9186716081494615E-002           2      304565           0
</event>
<event>
      5   9999  3.19816E-02  1.79966E+02 -1.00000E+00  1.13343E-01
      21    -1     0     0   502   512  0.000000000E+00  0.000000000E+00  2.862694024E+02  2.862694024E+02  0.000000000E+00  0.00000E+00  9.000E+00
      21    -1     0     0   501   502  0.000000000E+00  0.000000000E+00 -8.516216325E+02  8.516216325E+02  0.000000000E+00  0.00000E+00  9.000E+00
      25     1     1     2     0     0 -1.615515304E+02 -5.632570216E+01 -1.666773738E+02  2.695882576E+02  1.250000000E+02  0.00000E+00  9.000E+00
      25     1     1     2     0     0  2.797728677E+02 -7.936263983E+01 -5.490639334E+02  6.337724269E+02  1.250000000E+02  0.00000E+00  9.000E+00
      21     1     1     2   501   512 -1.182213373E+02  1.356883420E+02  1.503890771E+02  2.345303504E+02  1.907348633E-06  0.00000E+00  9.000E+00
#rwgt            1           1   1.5380587846586278E-002           2      304629           0
</event>
<event>
      5   9999  3.19816E-02  6.24770E+01 -1.00000E+00  1.33771E-01
      21    -1     0     0   502   501  0.000000000E+00  0.000000000E+00  9.740064242E+01  9.740064242E+01  0.000000000E+00  0.00000E+00  9.000E+00
       2    -1     0     0   501     0  0.000000000E+00  0.000000000E+00 -1.529009430E+03  1.529009430E+03  0.000000000E+00  0.00000E+00  9.000E+00
      25     1     1     2     0     0 -4.680859399E+01  2.416616174E+02 -2.681356751E+02  3.848546765E+02  1.250000000E+02  0.00000E+00  9.000E+00
      25     1     1     2     0     0 -9.909626733E+00 -2.678612469E+02 -5.462460780E+02  6.211743926E+02  1.250000000E+02  0.00000E+00  9.000E+00
       2     1     1     2   502     0  5.671822072E+01  2.619962951E+01 -6.172270349E+02  6.203810037E+02  7.629394531E-06  0.00000E+00  9.000E+00
#rwgt            1           1   2.8002707827736343E-002           2      304707           0
</event>
<event>
      5   9999  3.19816E-02  5.86032E+01 -1.00000E+00  1.35252E-01
      21    -1     0     0   502   501  0.000000000E+00  0.000000000E+00  1.945107557E+03  1.945107557E+03  0.000000000E+00  0.00000E+00  9.000E+00
      21    -1     0     0   501   511  0.000000000E+00  0.000000000E+00 -1.379082415E+02  1.379082415E+02  0.000000000E+00  0.00000E+00  9.000E+00
      25     1     1     2     0     0  9.769677622E+01  3.018011176E+02  1.523004729E+03  1.560704001E+03  1.250000000E+02  0.00000E+00  9.000E+00
      25     1     1     2     0     0 -1.247474466E+02 -2.498145996E+02  3.284630409E+02  4.488677186E+02  1.250000000E+02  0.00000E+00  9.000E+00
      21     1     1     2   502   511  2.705067037E+01 -5.198651798E+01 -4.426845370E+01  7.344407949E+01  1.581489940E-06  0.00000E+00  9.000E+00
#rwgt            1           1   3.1141829296886546E-002           2      304808           0
</event>
<event>
      5   9999  3.19816E-02  2.74470E+01 -1.00000E+00  1.55772E-01
      21    -1     0     0   502   512  0.000000000E+00  0.000000000E+00  5.259206851E+02  5.259206851E+02  0.000000000E+00  0.00000E+00  9.000E+00
      21    -1     0     0   501   502  0.000000000E+00  0.000000000E+00 -1.964356838E+02  1.964356838E+02  0.000000000E+00  0.00000E+00  9.000E+00
      25     1     1     2     0     0  1.257894458E+02  2.034110714E+02  1.610520771E+02  3.142639340E+02  1.250000000E+02  0.00000E+00  9.000E+00
      25     1     1     2     0     0 -9.888646328E+01 -2.088488976E+02  2.709339438E+01  2.641125644E+02  1.250000000E+02  0.00000E+00  9.000E+00
      21     1     1     2   501   512 -2.690298254E+01  5.437826113E+00  1.413395299E+02  1.439798706E+02  0.000000000E+00  0.00000E+00  9.000E+00
#rwgt            1           1   2.8854867348114450E-002           2      304866           0
</event>
<event>
      5   9999  3.19816E-02  6.10373E+01 -1.00000E+00  1.34307E-01
      21    -1     0     0   511   501  0.000000000E+00  0.000000000E+00  1.619036142E+02  1.619036142E+02  0.000000000E+00  0.00000E+00  9.000E+00
      21    -1     0     0   501   502  0.000000000E+00  0.000000000E+00 -1.529177086E+03  1.529177086E+03  0.000000000E+00  0.00000E+00  9.000E+00
      25     1     1     2     0     0  1.449138677E+02  3.779687222E+02 -4.231495572E+02  5.987828753E+02  1.250000000E+02  0.00000E+00  9.000E+00
      25     1     1     2     0     0 -1.487787341E+02 -4.388834921E+02 -8.878144484E+02  1.009253846E+03  1.250000000E+02  0.00000E+00  9.000E+00
      21     1     1     2   511   502  3.864866392E+00  6.091476992E+01 -5.630946628E+01  8.304397859E+01  0.000000000E+00  0.00000E+00  9.000E+00
#rwgt            1           1   2.4876659656910560E-002           2      304985           0
</event>
<event>
      5   9999  3.19816E-02  1.28664E+02 -1.00000E+00  1.19097E-01
      21    -1     0     0   502   501  0.000000000E+00  0.000000000E+00  3.185150471E+02  3.185150471E+02  0.000000000E+00  0.00000E+00  9.000E+00
      21    -1     0     0   501   512  0.000000000E+00  0.000000000E+00 -1.696093829E+03  1.696093829E+03  0.000000000E+00  0.00000E+00  9.000E+00
      25     1     1     2     0     0 -5.228246794E+01  1.533409561E+02 -1.377816303E+02  2.466894463E+02  1.250000000E+02  0.00000E+00  9.000E+00
      25     1     1     2     0     0 -4.187446106E+01 -6.565457930E+01  2.405172582E+02  2.820240163E+02  1.250000000E+02  0.00000E+00  9.000E+00
      21     1     1     2   502   512  9.415692901E+01 -8.768637675E+01 -1.480314409E+03  1.485895413E+03  0.000000000E+00  0.00000E+00  9.000E+00
#rwgt            1           1   2.7424112997280901E-002           2      305065           0
</event>
<event>
      5   9999  3.19816E-02  1.85148E+02 -1.00000E+00  1.12882E-01
      21    -1     0     0   502   501  0.000000000E+00  0.000000000E+00  7.874281054E+02  7.874281054E+02  0.000000000E+00  0.00000E+00  9.000E+00
       2    -1     0     0   501     0  0.000000000E+00  0.000000000E+00 -5.079736240E+02  5.079736240E+02  0.000000000E+00  0.00000E+00  9.000E+00
      25     1     1     2     0     0 -4.218419273E+02 -1.724139349E+02  2.717884326E+02  5.451340465E+02  1.250000000E+02  0.00000E+00  9.000E+00
      25     1     1     2     0     0  4.188286549E+02  3.575370537E+02  1.621065635E+01  5.649229791E+02  1.250000000E+02  0.00000E+00  9.000E+00
       2     1     1     2   502     0  3.013272329E+00 -1.851231188E+02 -8.544607558E+00  1.853447038E+02  3.475518164E-06  0.00000E+00  9.000E+00
#rwgt            1           1   2.3818144076948350E-002           2      305135           0
</event>
<event>
      5   9999  3.19816E-02  3.07406E+01 -1.00000E+00  1.52308E-01
      21    -1     0     0   511   501  0.000000000E+00  0.000000000E+00  2.162227029E+02  2.162227029E+02  0.000000000E+00  0.00000E+00  9.000E+00
      21    -1     0     0   501   502  0.000000000E+00  0.000000000E+00 -3.211731943E+02  3.211731943E+02  0.000000000E+00  0.00000E+00  9.000E+00
      25     1     1     2     0     0  2.179839210E+02 -3.635509768E+01 -4.917650200E+00  2.539446125E+02  1.250000000E+02  0.00000E+00  9.000E+00
      25     1     1     2     0     0 -1.954405732E+02  1.545583956E+01 -9.895596985E+01  2.526918768E+02  1.250000000E+02  0.00000E+00  9.000E+00
      21     1     1     2   511   502 -2.254334781E+01  2.089925811E+01 -1.076871330E+00  3.075940786E+01  4.442945574E-07  0.00000E+00  9.000E+00
#rwgt            1           1   3.0170636817280834E-002           2      305242           0
</event>
<event>
      5   9999  3.19816E-02  3.29467E+01 -1.00000E+00  1.50266E-01
      21    -1     0     0   502   501  0.000000000E+00  0.000000000E+00  9.087895930E+02  9.087895930E+02  0.000000000E+00  0.00000E+00  9.000E+00
      21    -1     0     0   501   512  0.000000000E+00  0.000000000E+00 -8.354793287E+01  8.354793287E+01  0.000000000E+00  0.00000E+00  9.000E+00
      25     1     1     2     0     0  6.942766275E+01 -2.011891087E+02  3.234056202E+02  4.068334463E+02  1.250000000E+02  0.00000E+00  9.000E+00
      25     1     1     2     0     0 -1.023712389E+02  2.007358863E+02  4.832948268E+02  5.476985085E+02  1.250000000E+02  0.00000E+00  9.000E+00
      21     1     1     2   502   512  3.294357619E+01  4.532224554E-01  1.854121316E+01  3.780557113E+01  0.000000000E+00  0.00000E+00  9.000E+00
#rwgt            1           1   3.1019089229106674E-002           2      305360           0
</event>
<event>
      5   9999  3.19816E-02  5.14343E+00 -1.00000E+00  2.36390E-01
      21    -1     0     0   511   501  0.000000000E+00  0.000000000E+00  3.177092915E+02  3.177092915E+02  0.000000000E+00  0.00000E+00  9.000E+00
      21    -1     0     0   501   502  0.000000000E+00  0.000000000E+00 -5.349370065E+02  5.349370065E+02  0.000000000E+00  0.00000E+00  9.000E+00
      25     1     1     2     0     0  6.107125156E+01  2.420555745E+02 -4.133086501E+02  4.987681216E+02  1.250000000E+02  0.00000E+00  9.000E+00
      25     1     1     2     0     0 -5.936624712E+01 -2.372029670E+02  1.608147201E+02  3.182388617E+02  1.250000000E+02  0.00000E+00  9.000E+00
      21     1     1     2   511   502 -1.705004435E+00 -4.852607529E+00  3.526621496E+01  3.563931478E+01  4.768371582E-07  0.00000E+00  9.000E+00
#rwgt            1           1   2.8356070056912413E-002           2      305458           0
</event>
<event>
      5   9999  3.19816E-02  8.85704E+01 -1.00000E+00  1.26246E-01
      21    -1     0     0   502   501  0.000000000E+00  0.000000000E+00  5.235568974E+02  5.235568974E+02  0.000000000E+00  0.00000E+00  9.000E+00
      21    -1     0     0   501   512  0.000000000E+00  0.000000000E+00 -5.052834997E+02  5.052834997E+02  0.000000000E+00  0.00000E+00  9.000E+00
      25     1     1     2     0     0 -1.977179428E+02 -3.635462746E+02 -4.068999049E+01  4.342107253E+02  1.250000000E+02  0.00000E+00  9.000E+00
      25     1     1     2     0     0  2.862881577E+02  3.633670278E+02  1.110377901E+02  4.918850445E+02  1.250000000E+02  0.00000E+00  9.000E+00
      21     1     1     2   502   512 -8.857021488E+01  1.792467488E-01 -5.207440202E+01  1.027446273E+02  1.651812370E-06  0.00000E+00  9.000E+00
#rwgt            2          11   4.1586906639611496E-003           2      305891           0
</event>
<event>
      5   9999  3.19816E-02  7.53831E+01 -1.00000E+00  1.29612E-01
      21    -1     0     0   511   501  0.000000000E+00  0.000000000E+00  3.575440261E+02  3.575440261E+02  0.000000000E+00  0.00000E+00  9.000E+00
      21    -1     0     0   501   502  0.000000000E+00  0.000000000E+00 -6.056774270E+02  6.056774270E+02  0.000000000E+00  0.00000E+00  9.000E+00
      25     1     1     2     0     0  1.914053493E+02  1.726676265E+02  1.152014065E+02  3.087822550E+02  1.250000000E+02  0.00000E+00  9.000E+00
      25     1     1     2     0     0 -1.196482074E+02 -1.495696072E+02 -4.706572613E+02  5.232877015E+02  1.250000000E+02  0.00000E+00  9.000E+00
      21     1     1     2   511   502 -7.175714188E+01 -2.309801926E+01  1.073224540E+02  1.311514965E+02  1.348699152E-06  0.00000E+00  9.000E+00
#rwgt            1           1   2.8812220189658039E-002           2      305911           0
</event>
<event>
      5   9999  3.19816E-02  1.05540E+02 -1.00000E+00  1.22784E-01
      21    -1     0     0   502   501  0.000000000E+00  0.000000000E+00  1.724067834E+02  1.724067834E+02  0.000000000E+00  0.00000E+00  9.000E+00
      21    -1     0     0   512   502  0.000000000E+00  0.000000000E+00 -1.076762795E+03  1.076762795E+03  0.000000000E+00  0.00000E+00  9.000E+00
      25     1     1     2     0     0  8.555701108E+01  1.625424414E+02 -3.070519885E+02  3.790065581E+02  1.250000000E+02  0.00000E+00  9.000E+00
      25     1     1     2     0     0 -1.910935757E+02 -1.616859030E+02 -1.696657042E+01  2.803068862E+02  1.250000000E+02  0.00000E+00  9.000E+00
      21     1     1     2   512   501  1.055365646E+02 -8.565383845E-01 -5.803374524E+02  5.898561339E+02  7.629394531E-06  0.00000E+00  9.000E+00
#rwgt            1           1   3.1877330319945510E-002           2      306023           0
</event>
<event>
      5   9999  3.19816E-02  3.61493E+01 -1.00000E+00  1.47620E-01
      21    -1     0     0   502   511  0.000000000E+00  0.000000000E+00  1.574853285E+03  1.574853285E+03  0.000000000E+00  0.00000E+00  9.000E+00
      21    -1     0     0   501   502  0.000000000E+00  0.000000000E+00 -1.139471127E+03  1.139471127E+03  0.000000000E+00  0.00000E+00  9.000E+00
      25     1     1     2     0     0 -2.299830381E+01 -2.006908688E+02 -9.521336311E+00  2.377423030E+02  1.250000000E+02  0.00000E+00  9.000E+00
      25     1     1     2     0     0 -6.086562269E+00  1.792235980E+02 -1.003851710E+03  1.027375977E+03  1.250000000E+02  0.00000E+00  9.000E+00
      21     1     1     2   501   511  2.908486607E+01  2.146727084E+01  1.448755204E+03  1.449206132E+03  0.000000000E+00  0.00000E+00  9.000E+00
#rwgt            1           1   3.2792043515244132E-002           2      306126           0
</event>
<event>
      5   9999  3.19816E-02  1.76655E+02 -1.00000E+00  1.13646E-01
      21    -1     0     0   502   501  0.000000000E+00  0.000000000E+00  2.943768678E+02  2.943768678E+02  0.000000000E+00  0.00000E+00  9.000E+00
       1    -1     0     0   501     0  0.000000000E+00  0.000000000E+00 -4.783224718E+02  4.783224718E+02  0.000000000E+00  0.00000E+00  9.000E+00
      25     1     1     2     0     0  4.414663863E+01  5.148827171E+01  1.599014801E+01  1.431106308E+02  1.250000000E+02  0.00000E+00  9.000E+00
      25     1     1     2     0     0  7.798052983E+01 -1.791282055E+02  1.222288049E+02  2.621693303E+02  1.250000000E+02  0.00000E+00  9.000E+00
       1     1     1     2   502     0 -1.221271685E+02  1.276399338E+02 -3.221645568E+02  3.674193784E+02  0.000000000E+00  0.00000E+00  9.000E+00
#rwgt            1           1   3.7472840640959328E-002           2      306305           0
</event>
<event>
      5   9999  3.19816E-02  2.44886E+02 -1.00000E+00  1.08538E-01
      21    -1     0     0   502   501  0.000000000E+00  0.000000000E+00  1.959681561E+03  1.959681561E+03  0.000000000E+00  0.00000E+00  9.000E+00
      21    -1     0     0   501   511  0.000000000E+00  0.000000000E+00 -7.540455568E+02  7.540455568E+02  0.000000000E+00  0.00000E+00  9.000E+00
      25     1     1     2     0     0  6.384277746E+02 -5.174681934E+02  8.422041340E+02  1.183341100E+03  1.250000000E+02  0.00000E+00  9.000E+00
      25     1     1     2     0     0 -8.752221072E+02  4.550374356E+02  6.231187153E+02  1.173445669E+03  1.250000000E+02  0.00000E+00  9.000E+00
      21     1     1     2   502   511  2.367943326E+02  6.243075786E+01 -2.596868451E+02  3.569403493E+02  6.607249480E-06  0.00000E+00  9.000E+00
#rwgt            1           1   3.0562708437039305E-002           2      306348           0
</event>
<event>
      5   9999  3.19816E-02  4.88164E+02 -1.00000E+00  9.91485E-02
      21    -1     0     0   512   501  0.000000000E+00  0.000000000E+00  1.028997941E+03  1.028997941E+03  0.000000000E+00  0.00000E+00  9.000E+00
      21    -1     0     0   501   502  0.000000000E+00  0.000000000E+00 -5.467075948E+02  5.467075948E+02  0.000000000E+00  0.00000E+00  9.000E+00
      25     1     1     2     0     0  1.591554777E+02 -6.726162814E+01 -1.257428828E+02  2.475699200E+02  1.250000000E+02  0.00000E+00  9.000E+00
      25     1     1     2     0     0 -2.081151541E+02  5.529640985E+02  8.026868941E+01  6.092202181E+02  1.250000000E+02  0.00000E+00  9.000E+00
      21     1     1     2   512   502  4.895967639E+01 -4.857024704E+02  5.277645391E+02  7.189153973E+02  7.629394531E-06  0.00000E+00  9.000E+00
#rwgt            2          11   2.4095738122138833E-003           2      306438           0
</event>
<event>
      5   9999  3.19816E-02  1.86111E+02 -1.00000E+00  1.12798E-01
      21    -1     0     0   502   501  0.000000000E+00  0.000000000E+00  6.154088566E+02  6.154088566E+02  0.000000000E+00  0.00000E+00  9.000E+00
      21    -1     0     0   511   502  0.000000000E+00  0.000000000E+00 -4.439497012E+02  4.439497012E+02  0.000000000E+00  0.00000E+00  9.000E+00
      25     1     1     2     0     0 -2.163888482E+02  4.047297252E+01 -4.511061040E+01  2.571422997E+02  1.250000000E+02  0.00000E+00  9.000E+00
      25     1     1     2     0     0  4.000541579E+02 -7.054424372E+01  3.680639571E+02  5.622418484E+02  1.250000000E+02  0.00000E+00  9.000E+00
      21     1     1     2   511   501 -1.836653097E+02  3.007127120E+01 -1.514941912E+02  2.399744097E+02  3.814697266E-06  0.00000E+00  9.000E+00
#rwgt            2          11   3.4628749846280643E-003           2      306563           0
</event>
<event>
      5   9999  3.19816E-02  1.65350E+02 -1.00000E+00  1.14741E-01
      21    -1     0     0   512   501  0.000000000E+00  0.000000000E+00  3.267349547E+02  3.267349547E+02  0.000000000E+00  0.00000E+00  9.000E+00
      21    -1     0     0   501   502  0.000000000E+00  0.000000000E+00 -6.726766351E+02  6.726766351E+02  0.000000000E+00  0.00000E+00  9.000E+00
      25     1     1     2     0     0 -2.588325597E+02 -3.796105707E+01 -5.334362114E+02  6.071363334E+02  1.250000000E+02  0.00000E+00  9.000E+00
      25     1     1     2     0     0  9.516693272E+01  6.150044163E+01  4.657858731E+01  1.750246103E+02  1.250000000E+02  0.00000E+00  9.000E+00
      21     1     1     2   512   502  1.636656269E+02 -2.353938456E+01  1.409159437E+02  2.172506461E+02  1.907348633E-06  0.00000E+00  9.000E+00
#rwgt            1           1   2.6521470017134147E-002           2      306583           0
</event>
<event>
      5   9999  3.19816E-02  4.25434E+01 -1.00000E+00  1.43199E-01
      21    -1     0     0   502   501  0.000000000E+00  0.000000000E+00  6.483866195E+02  6.483866195E+02  0.000000000E+00  0.00000E+00  9.000E+00
      21    -1     0     0   511   502  0.000000000E+00  0.000000000E+00 -2.650028297E+02  2.650028297E+02  0.000000000E+00  0.00000E+00  9.000E+00
      25     1     1     2     0     0 -1.096993668E+02  1.606348503E+02  4.769440043E+02  5.300359322E+02  1.250000000E+02  0.00000E+00  9.000E+00
      25     1     1     2     0     0  1.374930036E+02 -1.928443987E+02  1.350747981E+01  2.681431337E+02  1.250000000E+02  0.00000E+00  9.000E+00
      21     1     1     2   511   501 -2.779363677E+01  3.220954842E+01 -1.070676943E+02  1.152103833E+02  2.336015456E-06  0.00000E+00  9.000E+00
#rwgt            1           1   2.7166850210896612E-002           2      306671           0
</event>
<event>
      5   9999  3.19816E-02  2.00971E+02 -1.00000E+00  1.11572E-01
      21    -1     0     0   502   501  0.000000000E+00  0.000000000E+00  1.489483449E+03  1.489483449E+03  0.000000000E+00  0.00000E+00  9.000E+00
      -3    -1     0     0     0   502  0.000000000E+00  0.000000000E+00 -1.615718242E+02  1.615718242E+02  0.000000000E+00  0.00000E+00  9.000E+00
      25     1     1     2     0     0 -4.180751502E+00  1.940448369E+02  9.994649585E+02  1.025780718E+03  1.250000000E+02  0.00000E+00  9.000E+00
      25     1     1     2     0     0 -1.354762782E+02 -4.952703660E+01  3.733830056E+02  4.193406947E+02  1.250000000E+02  0.00000E+00  9.000E+00
      -3     1     1     2     0   501  1.396570297E+02 -1.445178003E+02 -4.493633919E+01  2.059338611E+02  3.873843386E-06  0.00000E+00  9.000E+00
#rwgt            1           1   3.3208689616331014E-002           2      306798           0
</event>
<event>
      5   9999  3.19816E-02  3.83314E+01 -1.00000E+00  1.45997E-01
      21    -1     0     0   502   501  0.000000000E+00  0.000000000E+00  3.250624746E+02  3.250624746E+02  0.000000000E+00  0.00000E+00  9.000E+00
      21    -1     0     0   501   511  0.000000000E+00  0.000000000E+00 -4.991009334E+02  4.991009334E+02  0.000000000E+00  0.00000E+00  9.000E+00
      25     1     1     2     0     0  3.317875160E+01 -2.227148232E+01 -2.754205409E+01  1.340910632E+02  1.250000000E+02  0.00000E+00  9.000E+00
      25     1     1     2     0     0 -5.903527190E+01 -6.025843932E+00  2.531998576E+02  2.885422708E+02  1.250000000E+02  0.00000E+00  9.000E+00
      21     1     1     2   502   511  2.585652030E+01  2.829732625E+01 -3.996962623E+02  4.015300741E+02  5.394796609E-06  0.00000E+00  9.000E+00
#rwgt            1           1   2.8208138842629168E-002           2      306829           0
</event>
<event>
      5   9999  3.19816E-02  1.24308E+02 -1.00000E+00  1.19722E-01
      21    -1     0     0   502   501  0.000000000E+00  0.000000000E+00  4.827764120E+02  4.827764120E+02  0.000000000E+00  0.00000E+00  9.000E+00
      21    -1     0     0   501   512  0.000000000E+00  0.000000000E+00 -1.440574417E+03  1.440574417E+03  0.000000000E+00  0.00000E+00  9.000E+00
      25     1     1     2     0     0  1.648773230E+02 -1.046704177E+01  4.023162869E+02  4.525234639E+02  1.250000000E+02  0.00000E+00  9.000E+00
      25     1     1     2     0     0 -2.462494255E+02 -8.350615171E+01 -3.522262088E+02  4.553024919E+02  1.250000000E+02  0.00000E+00  9.000E+00
      21     1     1     2   502   512  8.137210251E+01  9.397319348E+01 -1.007888083E+03  1.015524873E+03  1.525878906E-05  0.00000E+00  9.000E+00
#rwgt            1           1   2.9895631182382209E-002           2      306922           0
</event>
<event>
      5   9999  3.19816E-02  2.99942E+01 -1.00000E+00  1.53046E-01
       2    -1     0     0   502     0  0.000000000E+00  0.000000000E+00  6.549410365E+02  6.549410365E+02  0.000000000E+00  0.00000E+00  9.000E+00
      21    -1     0     0   501   502  0.000000000E+00  0.000000000E+00 -7.817055987E+01  7.817055987E+01  0.000000000E+00  0.00000E+00  9.000E+00
      25     1     1     2     0     0 -1.077869427E+02 -4.202624063E+01  1.518909461E+02  2.282106251E+02  1.250000000E+02  0.00000E+00  9.000E+00
      25     1     1     2     0     0  1.028012123E+02  7.160321391E+01  1.607784587E+02  2.391021168E+02  1.250000000E+02  0.00000E+00  9.000E+00
       2     1     1     2   501     0  4.985730470E+00 -2.957697327E+01  2.641010719E+02  2.657988545E+02  5.394796609E-06  0.00000E+00  9.000E+00
#rwgt            1           1   2.5194448130904275E-002           2      306982           0
</event>
<event>
      5   9999  3.19816E-02  1.68851E+02 -1.00000E+00  1.14392E-01
      21    -1     0     0   502   501  0.000000000E+00  0.000000000E+00  2.242466087E+03  2.242466087E+03  0.000000000E+00  0.00000E+00  9.000E+00
      21    -1     0     0   511   502  0.000000000E+00  0.000000000E+00 -8.859473592E+01  8.859473592E+01  0.000000000E+00  0.00000E+00  9.000E+00
      25     1     1     2     0     0  8.026902311E+01  2.841597714E+02  1.526660538E+03  1.559970285E+03  1.250000000E+02  0.00000E+00  9.000E+00
      25     1     1     2     0     0 -1.439996087E+01 -1.286868424E+02  5.619479136E+02  5.900661995E+02  1.250000000E+02  0.00000E+00  9.000E+00
      21     1     1     2   511   501 -6.586906225E+01 -1.554729290E+02  6.526289936E+01  1.810243383E+02  3.303624740E-06  0.00000E+00  9.000E+00
#rwgt            2          11   1.4593899098629329E-002           2      307103           0
</event>
<event>
      5   9999  3.19816E-02  1.04650E+02 -1.00000E+00  1.22947E-01
      21    -1     0     0   502   501  0.000000000E+00  0.000000000E+00  1.133354514E+03  1.133354514E+03  0.000000000E+00  0.00000E+00  9.000E+00
      21    -1     0     0   512   502  0.000000000E+00  0.000000000E+00 -9.102553142E+02  9.102553142E+02  0.000000000E+00  0.00000E+00  9.000E+00
      25     1     1     2     0     0 -7.932029658E+02  1.642155258E+02 -1.483677697E+02  8.329319774E+02  1.250000000E+02  0.00000E+00  9.000E+00
      25     1     1     2     0     0  8.768123243E+02 -2.271530812E+02  5.022287395E+02  1.043195610E+03  1.250000000E+02  0.00000E+00  9.000E+00
      21     1     1     2   512   501 -8.360935848E+01  6.293755540E+01 -1.307617696E+02  1.674822411E+02  2.697398305E-06  0.00000E+00  9.000E+00
#rwgt            1           1   2.8043764159883605E-002           2      307123           0
</event>
<event>
      5   9999  3.19816E-02  1.66448E+01 -1.00000E+00  1.73230E-01
      21    -1     0     0   502   511  0.000000000E+00  0.000000000E+00  1.921740462E+02  1.921740462E+02  0.000000000E+00  0.00000E+00  9.000E+00
      21    -1     0     0   501   502  0.000000000E+00  0.000000000E+00 -4.342867526E+02  4.342867526E+02  0.000000000E+00  0.00000E+00  9.000E+00
      25     1     1     2     0     0  1.527299588E+02  1.643968368E+02 -4.856522078E+01  2.614122050E+02  1.250000000E+02  0.00000E+00  9.000E+00
      25     1     1     2     0     0 -1.404113943E+02 -1.755906726E+02 -2.168261977E+02  3.364313362E+02  1.250000000E+02  0.00000E+00  9.000E+00
      21     1     1     2   501   511 -1.231856445E+01  1.119383583E+01  2.327871216E+01  2.861725756E+01  4.768371582E-07  0.00000E+00  9.000E+00
#rwgt            1           1   2.7174797850325477E-002           2      307233           0
</event>
<event>
      5   9999  3.19816E-02  3.26197E+02 -1.00000E+00  1.04424E-01
      21    -1     0     0   502   501  0.000000000E+00  0.000000000E+00  4.628429578E+02  4.628429578E+02  0.000000000E+00  0.00000E+00  9.000E+00
       2    -1     0     0   501     0  0.000000000E+00  0.000000000E+00 -3.171883817E+03  3.171883817E+03  0.000000000E+00  0.00000E+00  9.000E+00
      25     1     1     2     0     0 -2.723709445E+01 -9.217402048E+01 -2.537992004E+03  2.542885432E+03  1.250000000E+02  0.00000E+00  9.000E+00
      25     1     1     2     0     0  3.082860511E+01 -2.340030527E+02  3.722427488E+02  4.581457144E+02  1.250000000E+02  0.00000E+00  9.000E+00
       2     1     1     2   502     0 -3.591510659E+00  3.261770732E+02 -5.432916043E+02  6.336956283E+02  0.000000000E+00  0.00000E+00  9.000E+00
#rwgt            2          13   1.9459491804708154E-003           2      307414           0
</event>
<event>
      5   9999  3.19816E-02  6.95207E+01 -1.00000E+00  1.31372E-01
      21    -1     0     0   502   511  0.000000000E+00  0.000000000E+00  3.058601867E+02  3.058601867E+02  0.000000000E+00  0.00000E+00  9.000E+00
      21    -1     0     0   501   502  0.000000000E+00  0.000000000E+00 -2.849601150E+02  2.849601150E+02  0.000000000E+00  0.00000E+00  9.000E+00
      25     1     1     2     0     0 -3.297588961E+01  1.729383736E+02 -8.227904170E+01  2.310626129E+02  1.250000000E+02  0.00000E+00  9.000E+00
      25     1     1     2     0     0  2.893778164E+01 -2.423417220E+02  9.267015747E+01  2.894471687E+02  1.250000000E+02  0.00000E+00  9.000E+00
      21     1     1     2   501   511  4.038107968E+00  6.940334833E+01  1.050895597E+01  7.031052006E+01  1.415531884E-06  0.00000E+00  9.000E+00
#rwgt            1           1   2.8942999026151963E-002           2      307448           0
</event>
<event>
      5   9999  3.19816E-02  2.49949E+02 -1.00000E+00  1.08233E-01
      21    -1     0     0   502   501  0.000000000E+00  0.000000000E+00  1.548474105E+02  1.548474105E+02  0.000000000E+00  0.00000E+00  9.000E+00
      -1    -1     0     0     0   502  0.000000000E+00  0.000000000E+00 -7.513876801E+02  7.513876801E+02  0.000000000E+00  0.00000E+00  9.000E+00
      25     1     1     2     0     0 -7.933705996E+01  3.097135401E+01 -8.320340478E+01  1.726308212E+02  1.250000000E+02  0.00000E+00  9.000E+00
      25     1     1     2     0     0 -6.663657933E+01 -2.338655093E+02 -2.872410023E+02  3.965676532E+02  1.250000000E+02  0.00000E+00  9.000E+00
      -1     1     1     2     0   501  1.459736393E+02  2.028941553E+02 -2.260958626E+02  3.370366163E+02  4.672030912E-06  0.00000E+00  9.000E+00
#rwgt            1           1   2.9060449263769658E-002           2      307530           0
</event>
<event>
      5   9999  3.19816E-02  6.41145E+01 -1.00000E+00  1.33182E-01
      21    -1     0     0   502   511  0.000000000E+00  0.000000000E+00  3.606687607E+02  3.606687607E+02  0.000000000E+00  0.00000E+00  9.000E+00
      21    -1     0     0   501   502  0.000000000E+00  0.000000000E+00 -2.795634982E+02  2.795634982E+02  0.000000000E+00  0.00000E+00  9.000E+00
      25     1     1     2     0     0 -1.219539172E+02 -1.623858899E+02 -1.449844754E+02  2.790832013E+02  1.250000000E+02  0.00000E+00  9.000E+00
      25     1     1     2     0     0  6.622567847E+01  1.306837431E+02  9.395658474E+01  2.142823395E+02  1.250000000E+02  0.00000E+00  9.000E+00
      21     1     1     2   501   511  5.572823870E+01  3.170214683E+01  1.321331532E+02  1.468667181E+02  1.907348633E-06  0.00000E+00  9.000E+00
#rwgt            1           1   2.5523205645671058E-002           2      307559           0
</event>
<event>
      5   9999  3.19816E-02  9.94279E+01 -1.00000E+00  1.23940E-01
      21    -1     0     0   512   501  0.000000000E+00  0.000000000E+00  3.178365321E+03  3.178365321E+03  0.000000000E+00  0.00000E+00  9.000E+00
      21    -1     0     0   501   502  0.000000000E+00  0.000000000E+00 -5.489156230E+02  5.489156230E+02  0.000000000E+00  0.00000E+00  9.000E+00
      25     1     1     2     0     0  6.055712257E+02 -1.125634417E+03  1.691121185E+03  2.123507761E+03  1.250000000E+02  0.00000E+00  9.000E+00
      25     1     1     2     0     0 -6.009541751E+02  1.026313727E+03  8.240261349E+02  1.452277473E+03  1.250000000E+02  0.00000E+00  9.000E+00
      21     1     1     2   512   502 -4.617050588E+00  9.932068945E+01  1.143023779E+02  1.514957098E+02  3.015782986E-06  0.00000E+00  9.000E+00
#rwgt            1           1   5.3509362489108994E-002           2      307615           0
</event>
<event>
      5   9999  3.19816E-02  3.63962E+01 -1.00000E+00  1.47430E-01
       1    -1     0     0   502     0  0.000000000E+00  0.000000000E+00  2.579158017E+03  2.579158017E+03  0.000000000E+00  0.00000E+00  9.000E+00
      21    -1     0     0   501   502  0.000000000E+00  0.000000000E+00 -1.179914206E+02  1.179914206E+02  0.000000000E+00  0.00000E+00  9.000E+00
      25     1     1     2     0     0 -1.416499980E+02  1.124064292E+02  1.103803418E+03  1.125480747E+03  1.250000000E+02  0.00000E+00  9.000E+00
      25     1     1     2     0     0  1.378152521E+02 -7.621284106E+01 -1.237811166E+01  2.014439339E+02  1.250000000E+02  0.00000E+00  9.000E+00
       1     1     1     2   501     0  3.834745905E+00 -3.619358815E+01  1.369741290E+03  1.370224757E+03  2.642899792E-05  0.00000E+00  9.000E+00
#rwgt            1           1   2.7190737758134281E-002           2      307776           0
</event>
<event>
      5   9999  3.19816E-02  1.03700E+02 -1.00000E+00  1.23122E-01
      21    -1     0     0   502   501  0.000000000E+00  0.000000000E+00  4.244952626E+02  4.244952626E+02  0.000000000E+00  0.00000E+00  9.000E+00
       1    -1     0     0   501     0  0.000000000E+00  0.000000000E+00 -5.458246423E+02  5.458246423E+02  0.000000000E+00  0.00000E+00  9.000E+00
      25     1     1     2     0     0 -1.011438573E+02 -2.324228180E+02  2.956131099E+02  4.089774528E+02  1.250000000E+02  0.00000E+00  9.000E+00
      25     1     1     2     0     0  1.521966989E+01  1.743649448E+02 -1.188637054E+02  2.457404175E+02  1.250000000E+02  0.00000E+00  9.000E+00
       1     1     1     2   502     0  8.592418741E+01  5.805787320E+01 -2.980787842E+02  3.156020345E+02  5.394796609E-06  0.00000E+00  9.000E+00
#rwgt            1           1   2.7394661575396825E-002           2      307953           0
</event>
<event>
      5   9999  3.19816E-02  1.06377E+01 -1.00000E+00  1.92704E-01
      21    -1     0     0   502   501  0.000000000E+00  0.000000000E+00  7.822204926E+01  7.822204926E+01  0.000000000E+00  0.00000E+00  9.000E+00
      21    -1     0     0   501   511  0.000000000E+00  0.000000000E+00 -6.683403913E+02  6.683403913E+02  0.000000000E+00  0.00000E+00  9.000E+00
      25     1     1     2     0     0  1.699895362E+01  1.697723688E+02 -4.040175798E+02  4.560337997E+02  1.250000000E+02  0.00000E+00  9.000E+00
      25     1     1     2     0     0 -2.475931200E+01 -1.624965836E+02 -1.565907401E+02  2.591598408E+02  1.250000000E+02  0.00000E+00  9.000E+00
      21     1     1     2   502   511  7.760358380E+00 -7.275785189E+00 -2.951002205E+01  3.136880000E+01  0.000000000E+00  0.00000E+00  9.000E+00
#rwgt            1           1   3.6017886919899059E-002           2      308012           0
</event>
<event>
      5   9999  3.19816E-02  6.79196E+01 -1.00000E+00  1.31888E-01
      21    -1     0     0   502   501  0.000000000E+00  0.000000000E+00  2.498411935E+02  2.498411935E+02  0.000000000E+00  0.00000E+00  9.000E+00
      21    -1     0     0   501   512  0.000000000E+00  0.000000000E+00 -3.548788563E+03  3.548788563E+03  0.000000000E+00  0.00000E+00  9.000E+00
      25     1     1     2     0     0  6.862329120E+01  6.631287909E+02 -4.005998886E+02  7.877526389E+02  1.250000000E+02  0.00000E+00  9.000E+00
      25     1     1     2     0     0 -9.082930143E+01 -7.273157070E+02 -2.727230229E+03  2.826773394E+03  1.250000000E+02  0.00000E+00  9.000E+00
      21     1     1     2   502   512  2.220601023E+01  6.418691609E+01 -1.711172523E+02  1.841037238E+02  0.000000000E+00  0.00000E+00  9.000E+00
#rwgt            1           1   6.6677239555275200E-002           2      308236           0
</event>
<event>
      5   9999  3.19816E-02  4.06079E+01 -1.00000E+00  1.44435E-01
      21    -1     0     0   502   501  0.000000000E+00  0.000000000E+00  5.809490850E+02  5.809490850E+02  0.000000000E+00  0.00000E+00  9.000E+00
      21    -1     0     0   501   511  0.000000000E+00  0.000000000E+00 -2.432168850E+02  2.432168850E+02  0.000000000E+00  0.00000E+00  9.000E+00
      25     1     1     2     0     0 -9.172411580E+00 -2.454466254E+02  4.238084552E+02  5.055361369E+02  1.250000000E+02  0.00000E+00  9.000E+00
      25     1     1     2     0     0  4.679092970E+01  2.301544681E+02 -7.767218761E+01  2.771613952E+02  1.250000000E+02  0.00000E+00  9.000E+00
      21     1     1     2   502   511 -3.761851812E+01  1.529215735E+01 -8.404067578E+00  4.146843780E+01  2.665600750E-07  0.00000E+00  9.000E+00
#rwgt            1           1   2.8563902171841078E-002           2      308382           0
</event>
<event>
      5   9999  3.19816E-02  1.34887E+02 -1.00000E+00  1.18251E-01
      21    -1     0     0   502   512  0.000000000E+00  0.000000000E+00  2.718328038E+02  2.718328038E+02  0.000000000E+00  0.00000E+00  9.000E+00
      21    -1     0     0   501   502  0.000000000E+00  0.000000000E+00 -1.266808964E+03  1.266808964E+03  0.000000000E+00  0.00000E+00  9.000E+00
      25     1     1     2     0     0 -2.854478355E+01 -4.276605603E+02 -5.353855890E+02  6.971162661E+02  1.250000000E+02  0.00000E+00  9.000E+00
      25     1     1     2     0     0 -1.907938172E+01  5.538603254E+02 -3.952550730E+02  6.920815383E+02  1.250000000E+02  0.00000E+00  9.000E+00
      21     1     1     2   501   512  4.762416528E+01 -1.261997651E+02 -6.433549775E+01  1.494439631E+02  1.907348633E-06  0.00000E+00  9.000E+00
#rwgt            2          11   5.4929591628215839E-003           2      308577           0
</event>
<event>
      5   9999  3.19816E-02  2.95787E+01 -1.00000E+00  1.53468E-01
      21    -1     0     0   502   501  0.000000000E+00  0.000000000E+00  5.488425062E+02  5.488425062E+02  0.000000000E+00  0.00000E+00  9.000E+00
      21    -1     0     0   511   502  0.000000000E+00  0.000000000E+00 -2.417205068E+02  2.417205068E+02  0.000000000E+00  0.00000E+00  9.000E+00
      25     1     1     2     0     0 -2.891604035E+02  2.018247627E+01  3.414526508E+02  4.650118107E+02  1.250000000E+02  0.00000E+00  9.000E+00
      25     1     1     2     0     0  2.642132452E+02 -4.291024593E+00 -2.090557713E+01  2.930684135E+02  1.250000000E+02  0.00000E+00  9.000E+00
      21     1     1     2   511   501  2.494715834E+01 -1.589145168E+01 -1.342507428E+01  3.248278875E+01  8.085167388E-07  0.00000E+00  9.000E+00
#rwgt            1           1   2.7143696864388105E-002           2      308627           0
</event>
<event>
      5   9999  3.19816E-02  2.19644E+01 -1.00000E+00  1.63080E-01
       2    -1     0     0   502     0  0.000000000E+00  0.000000000E+00  3.846114882E+03  3.846114882E+03  0.000000000E+00  0.00000E+00  9.000E+00
      21    -1     0     0   501   502  0.000000000E+00  0.000000000E+00 -2.211160289E+02  2.211160289E+02  0.000000000E+00  0.00000E+00  9.000E+00
      25     1     1     2     0     0  1.306834127E+02  6.271150092E+01  4.226131296E+02  4.639372199E+02  1.250000000E+02  0.00000E+00  9.000E+00
      25     1     1     2     0     0 -1.087470377E+02 -6.382059462E+01 -1.610953521E+02  2.397408997E+02  1.250000000E+02  0.00000E+00  9.000E+00
       2     1     1     2   501     0 -2.193637494E+01  1.109093699E+00  3.363481075E+03  3.363552791E+03  6.103515625E-05  0.00000E+00  9.000E+00
#rwgt            1           1   2.1606036804968868E-002           2      308735           0
</event>
<event>
      5   9999  3.19816E-02  8.52928E+00 -1.00000E+00  2.04098E-01
      21    -1     0     0   502   501  0.000000000E+00  0.000000000E+00  7.551524189E+02  7.551524189E+02  0.000000000E+00  0.00000E+00  9.000E+00
      21    -1     0     0   511   502  0.000000000E+00  0.000000000E+00 -8.612680718E+02  8.612680718E+02  0.000000000E+00  0.00000E+00  9.000E+00
      25     1     1     2     0     0 -3.274032816E+02 -5.997772477E+02 -2.610266611E+02  7.420819183E+02  1.250000000E+02  0.00000E+00  9.000E+00
      25     1     1     2     0     0  3.193492956E+02  5.969697614E+02  2.841652878E+02  7.448031817E+02  1.250000000E+02  0.00000E+00  9.000E+00
      21     1     1     2   511   501  8.053985998E+00  2.807486216E+00 -1.292542796E+02  1.295353908E+02  2.697398305E-06  0.00000E+00  9.000E+00
#rwgt            1           1   1.7602252311983431E-002           2      308866           0
</event>
<event>
      5   9999  3.19816E-02  1.84851E+02 -1.00000E+00  1.12908E-01
      21    -1     0     0   502   501  0.000000000E+00  0.000000000E+00  1.727753009E+03  1.727753009E+03  0.000000000E+00  0.00000E+00  9.000E+00
      21    -1     0     0   501   512  0.000000000E+00  0.000000000E+00 -1.508171368E+03  1.508171368E+03  0.000000000E+00  0.00000E+00  9.000E+00
      25     1     1     2     0     0 -1.996656978E+02 -1.713604620E+02 -1.145034192E+03  1.181507130E+03  1.250000000E+02  0.00000E+00  9.000E+00
      25     1     1     2     0     0  2.662968484E+02  3.437850372E+02  1.651929767E+03  1.712775268E+03  1.250000000E+02  0.00000E+00  9.000E+00
      21     1     1     2   502   512 -6.663115059E+01 -1.724245752E+02 -2.873139346E+02  3.416419783E+02  5.394796609E-06  0.00000E+00  9.000E+00
#rwgt            1           1   4.9899427688743940E-002           2      309154           0
</event>
<event>
      5   9999  3.19816E-02  1.88808E+02 -1.00000E+00  1.12566E-01
      21    -1     0     0   502   511  0.000000000E+00  0.000000000E+00  4.346446260E+02  4.346446260E+02  0.000000000E+00  0.00000E+00  9.000E+00
      21    -1     0     0   501   502  0.000000000E+00  0.000000000E+00 -5.134129966E+02  5.134129966E+02  0.000000000E+00  0.00000E+00  9.000E+00
      25     1     1     2     0     0  2.487715912E+02 -2.060374195E+02 -1.957723324E+02  3.978574229E+02  1.250000000E+02  0.00000E+00  9.000E+00
      25     1     1     2     0     0 -1.175851362E+02  7.024921461E+01 -1.392519472E+02  2.318993773E+02  1.250000000E+02  0.00000E+00  9.000E+00
      21     1     1     2   501   511 -1.311864551E+02  1.357882049E+02  2.562559090E+02  3.183008223E+02  3.814697266E-06  0.00000E+00  9.000E+00
#rwgt            1           1   2.9354023701792287E-002           2      309287           0
</event>
<event>
      5   9999  3.19816E-02  1.22737E+02 -1.00000E+00  1.19954E-01
      21    -1     0     0   502   501  0.000000000E+00  0.000000000E+00  2.726337998E+02  2.726337998E+02  0.000000000E+00  0.00000E+00  9.000E+00
      21    -1     0     0   512   502  0.000000000E+00  0.000000000E+00 -3.134240431E+02  3.134240431E+02  0.000000000E+00  0.00000E+00  9.000E+00
      25     1     1     2     0     0  8.633710342E+01 -9.372781551E+01  1.175230854E+02  2.137186806E+02  1.250000000E+02  0.00000E+00  9.000E+00
      25     1     1     2     0     0  1.486513371E+01  1.631719077E+02 -1.377710728E+02  2.478949620E+02  1.250000000E+02  0.00000E+00  9.000E+00
      21     1     1     2   512   501 -1.012022371E+02 -6.944409220E+01 -2.054225592E+01  1.244442004E+02  2.050954167E-06  0.00000E+00  9.000E+00
#rwgt            1           1   2.5126851620764081E-002           2      309347           0
</event>
<event>
      5   9999  3.19816E-02  1.92731E+02 -1.00000E+00  1.12237E-01
      21    -1     0     0   502   511  0.000000000E+00  0.000000000E+00  5.411233352E+02  5.411233352E+02  0.000000000E+00  0.00000E+00  9.000E+00
      21    -1     0     0   501   502  0.000000000E+00  0.000000000E+00 -6.573267511E+02  6.573267511E+02  0.000000000E+00  0.00000E+00  9.000E+00
      25     1     1     2     0     0 -2.333098173E+02  1.930745782E+02 -6.001507072E+01  3.330736740E+02  1.250000000E+02  0.00000E+00  9.000E+00
      25     1     1     2     0     0  7.058863360E+01 -8.979300620E+01 -4.204529314E+02  4.532672574E+02  1.250000000E+02  0.00000E+00  9.000E+00
      21     1     1     2   501   511  1.627211837E+02 -1.032815720E+02  3.642645862E+02  4.121091549E+02  5.394796609E-06  0.00000E+00  9.000E+00
#rwgt            2          11   4.5569022753723437E-003           2      309494           0
</event>
<event>
      5   9999  3.19816E-02  1.31018E+02 -1.00000E+00  1.18771E-01
      21    -1     0     0   502   501  0.000000000E+00  0.000000000E+00  1.326825355E+03  1.326825355E+03  0.000000000E+00  0.00000E+00  9.000E+00
      21    -1     0     0   501   512  0.000000000E+00  0.000000000E+00 -8.247683874E+02  8.247683874E+02  0.000000000E+00  0.00000E+00  9.000E+00
      25     1     1     2     0     0  5.654783872E+02  7.444149405E+02  1.374925897E+02  9.531257116E+02  1.250000000E+02  0.00000E+00  9.000E+00
      25     1     1     2     0     0 -6.227094151E+02 -6.265574140E+02  4.893269803E+02  1.017549558E+03  1.250000000E+02  0.00000E+00  9.000E+00
      21     1     1     2   502   512  5.723102795E+01 -1.178575265E+02 -1.247626022E+02  1.809184734E+02  0.000000000E+00  0.00000E+00  9.000E+00
#rwgt            1           1   3.1165952993431188E-002           2      309514           0
</event>
<event>
      5   9999  3.19816E-02  4.94208E+00 -1.00000E+00  2.43552E-01
      21    -1     0     0   511   501  0.000000000E+00  0.000000000E+00  2.272807051E+02  2.272807051E+02  0.000000000E+00  0.00000E+00  9.000E+00
      21    -1     0     0   501   502  0.000000000E+00  0.000000000E+00 -5.709145773E+02  5.709145773E+02  0.000000000E+00  0.00000E+00  9.000E+00
      25     1     1     2     0     0  2.832749696E+02 -6.551837674E+01 -3.237477076E+01  3.181359644E+02  1.250000000E+02  0.00000E+00  9.000E+00
      25     1     1     2     0     0 -2.880860448E+02  6.664872847E+01 -3.301697823E+02  4.605135257E+02  1.250000000E+02  0.00000E+00  9.000E+00
      21     1     1     2   511   502  4.811075223E+00 -1.130351726E+00  1.891068093E+01  1.954579220E+01  0.000000000E+00  0.00000E+00  9.000E+00
#rwgt            1           1   2.6183404954272037E-002           2      309605           0
</event>
<event>
      5   9999  3.19816E-02  3.99870E+01 -1.00000E+00  1.44849E-01
      21    -1     0     0   502   512  0.000000000E+00  0.000000000E+00  1.576904604E+02  1.576904604E+02  0.000000000E+00  0.00000E+00  9.000E+00
      21    -1     0     0   501   502  0.000000000E+00  0.000000000E+00 -2.132462223E+03  2.132462223E+03  0.000000000E+00  0.00000E+00  9.000E+00
      25     1     1     2     0     0 -4.775653675E+02  1.635080273E+02 -5.300813086E+02  7.425730596E+02  1.250000000E+02  0.00000E+00  9.000E+00
      25     1     1     2     0     0  4.604943038E+02 -1.273481473E+02 -1.412178607E+03  1.496043439E+03  1.250000000E+02  0.00000E+00  9.000E+00
      21     1     1     2   501   512  1.707106367E+01 -3.615987999E+01 -3.251184780E+01  5.153618518E+01  1.168007728E-06  0.00000E+00  9.000E+00
#rwgt            1           1   2.5179431761426854E-002           2      309999           0
</event>
<event>
      5   9999  3.19816E-02  9.62569E+01 -1.00000E+00  1.24578E-01
      21    -1     0     0   502   501  0.000000000E+00  0.000000000E+00  1.953966266E+02  1.953966266E+02  0.000000000E+00  0.00000E+00  9.000E+00
       2    -1     0     0   501     0  0.000000000E+00  0.000000000E+00 -2.801453665E+03  2.801453665E+03  0.000000000E+00  0.00000E+00  9.000E+00
      25     1     1     2     0     0 -5.878070436E+00 -5.251893754E+02 -3.908536371E+02  6.665208154E+02  1.250000000E+02  0.00000E+00  9.000E+00
      25     1     1     2     0     0  4.688173290E+01  6.122760289E+02 -1.890224277E+03  1.991394649E+03  1.250000000E+02  0.00000E+00  9.000E+00
       2     1     1     2   502     0 -4.100366247E+01 -8.708665357E+01 -3.249791242E+02  3.389348267E+02  3.814697266E-06  0.00000E+00  9.000E+00
#rwgt            2          13   8.3778233082699798E-004           2      310171           0
</event>
<event>
      5   9999  3.44940E-02  2.87784E+01 -1.00000E+00  1.54305E-01
      21    -1     0     0   502   501  0.000000000E+00  0.000000000E+00  1.281111416E+02  1.281111416E+02  0.000000000E+00  0.00000E+00  9.000E+00
      21    -1     0     0   511   502  0.000000000E+00  0.000000000E+00 -2.028094064E+03  2.028094064E+03  0.000000000E+00  0.00000E+00  9.000E+00
      25     1     1     2     0     0  2.972792044E+02  8.713867020E+01 -1.129672352E+03  1.178029158E+03  1.250000000E+02  0.00000E+00  9.000E+00
      25     1     1     2     0     0 -2.705126267E+02 -9.770959631E+01 -1.337040331E+02  3.409193672E+02  1.250000000E+02  0.00000E+00  9.000E+00
      21     1     1     2   511   501 -2.676657773E+01  1.057092611E+01 -6.366065375E+02  6.372566812E+02  1.078959322E-05  0.00000E+00  9.000E+00
#rwgt            1           1   3.3154042549313686E-002           2      310190           0
</event>
<event>
      5   9999  3.19816E-02  2.85857E+01 -1.00000E+00  1.54511E-01
      -1    -1     0     0     0   501  0.000000000E+00  0.000000000E+00  1.136686716E+03  1.136686716E+03  0.000000000E+00  0.00000E+00  9.000E+00
      21    -1     0     0   501   502  0.000000000E+00  0.000000000E+00 -7.114668142E+02  7.114668142E+02  0.000000000E+00  0.00000E+00  9.000E+00
      25     1     1     2     0     0  1.723311258E+02 -4.860274871E+00 -6.750467609E+02  7.078380949E+02  1.250000000E+02  0.00000E+00  9.000E+00
      25     1     1     2     0     0 -1.476230406E+02 -9.515073614E+00  4.561047371E+02  4.955195556E+02  1.250000000E+02  0.00000E+00  9.000E+00
      -1     1     1     2     0   502 -2.470808528E+01  1.437534848E+01  6.441619251E+02  6.447958792E+02  7.629394531E-06  0.00000E+00  9.000E+00
#rwgt            1           1   3.0383691779425244E-002           2      310328           0
</event>
<event>
      5   9999  3.19816E-02  3.32579E+01 -1.00000E+00  1.49994E-01
      21    -1     0     0   502   501  0.000000000E+00  0.000000000E+00  6.671118719E+02  6.671118719E+02  0.000000000E+00  0.00000E+00  9.000E+00
       2    -1     0     0   501     0  0.000000000E+00  0.000000000E+00 -1.163273205E+03  1.163273205E+03  0.000000000E+00  0.00000E+00  9.000E+00
      25     1     1     2     0     0  3.453416690E+02 -3.466874501E+02  4.878791830E+02  7.022137520E+02  1.250000000E+02  0.00000E+00  9.000E+00
      25     1     1     2     0     0 -3.691625321E+02  3.234785271E+02 -8.447060699E+02  9.849226757E+02  1.250000000E+02  0.00000E+00  9.000E+00
       2     1     1     2   502     0  2.382086312E+01  2.320892294E+01 -1.393344464E+02  1.432486495E+02  1.907348633E-06  0.00000E+00  9.000E+00
#rwgt            1           1   2.7842207990746368E-002           2      310609           0
</event>
<event>
      5   9999  3.19816E-02  4.97589E+01 -1.00000E+00  1.39195E-01
      21    -1     0     0   502   501  0.000000000E+00  0.000000000E+00  7.978433228E+02  7.978433228E+02  0.000000000E+00  0.00000E+00  9.000E+00
      21    -1     0     0   511   502  0.000000000E+00  0.000000000E+00 -7.885711907E+02  7.885711907E+02  0.000000000E+00  0.00000E+00  9.000E+00
      25     1     1     2     0     0 -1.714377620E+02  6.977193117E+02 -2.062993091E+02  7.578835987E+02  1.250000000E+02  0.00000E+00  9.000E+00
      25     1     1     2     0     0  2.211399488E+02 -7.000933352E+02  2.247609510E+02  7.779306139E+02  1.250000000E+02  0.00000E+00  9.000E+00
      21     1     1     2   511   501 -4.970218682E+01  2.374023440E+00 -9.189509906E+00  5.060030093E+01  9.830249847E-07  0.00000E+00  9.000E+00
#rwgt            1           1   2.1160760875936404E-002           2      310833           0
</event>
<event>
      5   9999  3.19816E-02  6.83797E+01 -1.00000E+00  1.31738E-01
      21    -1     0     0   502   501  0.000000000E+00  0.000000000E+00  6.203417737E+02  6.203417737E+02  0.000000000E+00  0.00000E+00  9.000E+00
      21    -1     0     0   501   512  0.000000000E+00  0.000000000E+00 -3.648675700E+02  3.648675700E+02  0.000000000E+00  0.00000E+00  9.000E+00
      25     1     1     2     0     0  2.675372689E+02 -2.972730020E+02  3.177475701E+02  5.258668522E+02  1.250000000E+02  0.00000E+00  9.000E+00
      25     1     1     2     0     0 -1.997810212E+02  3.064855942E+02 -4.933788086E+01  3.897500512E+02  1.250000000E+02  0.00000E+00  9.000E+00
      21     1     1     2   502   512 -6.775624772E+01 -9.212592230E+00 -1.293548551E+01  6.959244030E+01  1.498437535E-06  0.00000E+00  9.000E+00
#rwgt            1           1   2.6244206195082331E-002           2      310937           0
</event>
<event>
      5   9999  3.19816E-02  8.72731E+01 -1.00000E+00  1.26547E-01
      21    -1     0     0   502   501  0.000000000E+00  0.000000000E+00  1.590948950E+03  1.590948950E+03  0.000000000E+00  0.00000E+00  9.000E+00
      21    -1     0     0   511   502  0.000000000E+00  0.000000000E+00 -1.095525357E+03  1.095525357E+03  0.000000000E+00  0.00000E+00  9.000E+00
      25     1     1     2     0     0 -1.651561761E+02 -7.641798441E+02  3.436403305E+02  8.631112752E+02  1.250000000E+02  0.00000E+00  9.000E+00
      25     1     1     2     0     0  1.617674191E+02  8.513871415E+02  7.899425555E+02  1.179263755E+03  1.250000000E+02  0.00000E+00  9.000E+00
      21     1     1     2   511   501  3.388756965E+00 -8.720729742E+01 -6.381592927E+02  6.440992775E+02  7.629394531E-06  0.00000E+00  9.000E+00
#rwgt            1           1   3.3885445654768268E-002           2      311022           0
</event>
<event>
      5   9999  3.90891E-02  5.65043E+01 -1.00000E+00  1.36111E-01
       2    -1     0     0   502     0  0.000000000E+00  0.000000000E+00  1.120641890E+03  1.120641890E+03  0.000000000E+00  0.00000E+00  9.000E+00
      21    -1     0     0   501   502  0.000000000E+00  0.000000000E+00 -1.682552269E+03  1.682552269E+03  0.000000000E+00  0.00000E+00  9.000E+00
      25     1     1     2     0     0 -5.582300761E+01 -8.728927764E+01 -3.507321314E+02  3.864888798E+02  1.250000000E+02  0.00000E+00  9.000E+00
      25     1     1     2     0     0  5.983377993E+01  3.092754201E+01 -1.309377221E+03  1.317053644E+03  1.250000000E+02  0.00000E+00  9.000E+00
       2     1     1     2   501     0 -4.010772318E+00  5.636173563E+01  1.098198974E+03  1.099651635E+03  2.157918644E-05  0.00000E+00  9.000E+00
#rwgt            1           1  0.12030214879958609                2      311152           0
</event>
<event>
      5   9999  3.19816E-02  8.80947E+01 -1.00000E+00  1.26356E-01
       3    -1     0     0   502     0  0.000000000E+00  0.000000000E+00  1.780551949E+02  1.780551949E+02  0.000000000E+00  0.00000E+00  9.000E+00
      21    -1     0     0   501   502  0.000000000E+00  0.000000000E+00 -1.093212262E+03  1.093212262E+03  0.000000000E+00  0.00000E+00  9.000E+00
      25     1     1     2     0     0 -1.151988419E+02  5.425787410E+01  2.652059080E+01  1.803968731E+02  1.250000000E+02  0.00000E+00  9.000E+00
      25     1     1     2     0     0  1.623303921E+02 -1.286843378E+02 -9.689119440E+02  9.986621902E+02  1.250000000E+02  0.00000E+00  9.000E+00
       3     1     1     2   501     0 -4.713155022E+01  7.442646366E+01  2.723428603E+01  9.220839362E+01  1.168007728E-06  0.00000E+00  9.000E+00
#rwgt            1           1   2.8184084409235078E-002           2      311221           0
</event>
<event>
      5   9999  3.19816E-02  6.33783E+01 -1.00000E+00  1.33444E-01
      21    -1     0     0   502   501  0.000000000E+00  0.000000000E+00  1.030292307E+03  1.030292307E+03  0.000000000E+00  0.00000E+00  9.000E+00
      21    -1     0     0   501   511  0.000000000E+00  0.000000000E+00 -3.336912317E+02  3.336912317E+02  0.000000000E+00  0.00000E+00  9.000E+00
      25     1     1     2     0     0 -9.106925560E+01  2.539585666E+01  8.278632652E+02  8.425681840E+02  1.250000000E+02  0.00000E+00  9.000E+00
      25     1     1     2     0     0  7.464259988E+01 -8.660838312E+01  1.541560887E+02  2.290450380E+02  1.250000000E+02  0.00000E+00  9.000E+00
      21     1     1     2   502   511  1.642665572E+01  6.121252646E+01 -2.854182785E+02  2.923703167E+02  0.000000000E+00  0.00000E+00  9.000E+00
#rwgt            1           1   3.0257833817479464E-002           2      311294           0
</event>
<event>
      5   9999  3.19816E-02  1.66327E+01 -1.00000E+00  1.73258E-01
      21    -1     0     0   502   501  0.000000000E+00  0.000000000E+00  1.095461501E+02  1.095461501E+02  0.000000000E+00  0.00000E+00  9.000E+00
      21    -1     0     0   512   502  0.000000000E+00  0.000000000E+00 -2.300713490E+03  2.300713490E+03  0.000000000E+00  0.00000E+00  9.000E+00
      25     1     1     2     0     0  4.525858472E+02  4.132313829E+00 -1.492376947E+03  1.564501511E+03  1.250000000E+02  0.00000E+00  9.000E+00
      25     1     1     2     0     0 -4.391310514E+02  5.646014672E+00 -6.511040740E+02  7.952543448E+02  1.250000000E+02  0.00000E+00  9.000E+00
      21     1     1     2   512   501 -1.345479580E+01 -9.778328501E+00 -4.768631903E+01  5.050378462E+01  6.743495762E-07  0.00000E+00  9.000E+00
#rwgt            1           1   2.7312603604074618E-002           2      311384           0
</event>
<event>
      5   9999  3.19816E-02  1.56802E+02 -1.00000E+00  1.15635E-01
      21    -1     0     0   511   501  0.000000000E+00  0.000000000E+00  5.815373773E+02  5.815373773E+02  0.000000000E+00  0.00000E+00  9.000E+00
      21    -1     0     0   501   502  0.000000000E+00  0.000000000E+00 -7.501170339E+02  7.501170339E+02  0.000000000E+00  0.00000E+00  9.000E+00
      25     1     1     2     0     0 -2.716598257E+02  5.844430837E+01 -7.628683788E+01  3.141010661E+02  1.250000000E+02  0.00000E+00  9.000E+00
      25     1     1     2     0     0  1.776921922E+02 -1.839715186E+02 -5.029763928E+02  5.779535332E+02  1.250000000E+02  0.00000E+00  9.000E+00
      21     1     1     2   511   502  9.396763354E+01  1.255272102E+02  4.106835740E+02  4.395998119E+02  5.394796609E-06  0.00000E+00  9.000E+00
#rwgt            1           1   2.7064978522971544E-002           2      311679           0
</event>
<event>
      5   9999  3.19816E-02  2.83843E+01 -1.00000E+00  1.54729E-01
      21    -1     0     0   502   501  0.000000000E+00  0.000000000E+00  6.058926581E+02  6.058926581E+02  0.000000000E+00  0.00000E+00  9.000E+00
      21    -1     0     0   501   512  0.000000000E+00  0.000000000E+00 -2.438248167E+02  2.438248167E+02  0.000000000E+00  0.00000E+00  9.000E+00
      25     1     1     2     0     0 -2.039141171E+02  1.569199783E+02  4.242274640E+02  5.116627678E+02  1.250000000E+02  0.00000E+00  9.000E+00
      25     1     1     2     0     0  1.756821474E+02 -1.539832545E+02  5.152184767E+00  2.650030275E+02  1.250000000E+02  0.00000E+00  9.000E+00
      21     1     1     2   502   512  2.823196970E+01 -2.936723790E+00 -6.731180735E+01  7.305167944E+01  9.536743164E-07  0.00000E+00  9.000E+00
#rwgt            1           1   2.8041551400829708E-002           2      311711           0
</event>
<event>
      5   9999  3.19816E-02  3.50733E+02 -1.00000E+00  1.03433E-01
      21    -1     0     0   511   501  0.000000000E+00  0.000000000E+00  2.057364085E+03  2.057364085E+03  0.000000000E+00  0.00000E+00  9.000E+00
      21    -1     0     0   501   502  0.000000000E+00  0.000000000E+00 -1.246623848E+03  1.246623848E+03  0.000000000E+00  0.00000E+00  9.000E+00
      25     1     1     2     0     0 -7.348357708E+02 -4.230990611E+02 -8.632907113E+02  1.216508232E+03  1.250000000E+02  0.00000E+00  9.000E+00
      25     1     1     2     0     0  6.355917473E+02  8.670056268E+01  4.004156796E+02  7.664538951E+02  1.250000000E+02  0.00000E+00  9.000E+00
      21     1     1     2   511   502  9.924402343E+01  3.363984984E+02  1.273615269E+03  1.321025806E+03  1.525878906E-05  0.00000E+00  9.000E+00
#rwgt            2          11   1.7025428802478566E-003           2      311875           0
</event>
<event>
      5   9999  3.19816E-02  1.15413E+02 -1.00000E+00  1.21091E-01
      21    -1     0     0   502   501  0.000000000E+00  0.000000000E+00  5.341537421E+02  5.341537421E+02  0.000000000E+00  0.00000E+00  9.000E+00
      21    -1     0     0   501   512  0.000000000E+00  0.000000000E+00 -5.139242278E+02  5.139242278E+02  0.000000000E+00  0.00000E+00  9.000E+00
      25     1     1     2     0     0  8.260477854E+01 -3.290827814E+02  9.156246408E+01  3.729982725E+02  1.250000000E+02  0.00000E+00  9.000E+00
      25     1     1     2     0     0 -1.979860368E+02  3.263841672E+02  1.473111916E+02  4.278442269E+02  1.250000000E+02  0.00000E+00  9.000E+00
      21     1     1     2   502   512  1.153812582E+02  2.698614239E+00 -2.186441414E+02  2.472354704E+02  2.697398305E-06  0.00000E+00  9.000E+00
#rwgt            1           1   2.8594036341468457E-002           2      311895           0
</event>
<event>
      5   9999  3.19816E-02  9.75683E+01 -1.00000E+00  1.24311E-01
      21    -1     0     0   502   511  0.000000000E+00  0.000000000E+00  1.430981261E+02  1.430981261E+02  0.000000000E+00  0.00000E+00  9.000E+00
      21    -1     0     0   501   502  0.000000000E+00  0.000000000E+00 -1.213194027E+03  1.213194027E+03  0.000000000E+00  0.00000E+00  9.000E+00
      25     1     1     2     0     0  2.863454175E+02  1.048731824E+02 -7.921110723E+02  8.579376629E+02  1.250000000E+02  0.00000E+00  9.000E+00
      25     1     1     2     0     0 -2.060698763E+02 -1.603296413E+02 -2.771849935E+02  4.007828694E+02  1.250000000E+02  0.00000E+00  9.000E+00
      21     1     1     2   501   511 -8.027554119E+01  5.545645895E+01 -7.998346783E-01  9.757162030E+01  2.813992662E-06  0.00000E+00  9.000E+00
#rwgt            1           1   2.6791451162021866E-002           2      311933           0
</event>
<event>
      5   9999  3.19816E-02  5.81333E+01 -1.00000E+00  1.35441E-01
      21    -1     0     0   512   501  0.000000000E+00  0.000000000E+00  1.956424717E+02  1.956424717E+02  0.000000000E+00  0.00000E+00  9.000E+00
      21    -1     0     0   501   502  0.000000000E+00  0.000000000E+00 -3.524017631E+02  3.524017631E+02  0.000000000E+00  0.00000E+00  9.000E+00
      25     1     1     2     0     0  2.598614947E+00 -4.428169765E+01 -3.871775809E+01  1.381726686E+02  1.250000000E+02  0.00000E+00  9.000E+00
      25     1     1     2     0     0  4.431692315E+01  7.860976481E+01 -2.339623277E+02  2.801907485E+02  1.250000000E+02  0.00000E+00  9.000E+00
      21     1     1     2   512   502 -4.691553810E+01 -3.432806716E+01  1.159207944E+02  1.296808177E+02  1.348699152E-06  0.00000E+00  9.000E+00
#rwgt            2          11   3.6965614612804679E-003           2      311977           0
</event>
<event>
      5   9999  3.37041E-02  5.27792E+01 -1.00000E+00  1.37748E-01
      21    -1     0     0   502   511  0.000000000E+00  0.000000000E+00  1.490775654E+03  1.490775654E+03  0.000000000E+00  0.00000E+00  9.000E+00
      21    -1     0     0   501   502  0.000000000E+00  0.000000000E+00 -7.275543654E+02  7.275543654E+02  0.000000000E+00  0.00000E+00  9.000E+00
      25     1     1     2     0     0  1.106176491E+02  4.982756011E+02 -3.416890772E+02  6.268103895E+02  1.250000000E+02  0.00000E+00  9.000E+00
      25     1     1     2     0     0 -6.765688278E+01 -5.289352678E+02  6.644673685E+01  5.517156334E+02  1.250000000E+02  0.00000E+00  9.000E+00
      21     1     1     2   501   511 -4.296076629E+01  3.065966673E+01  1.038463629E+03  1.039803997E+03  0.000000000E+00  0.00000E+00  9.000E+00
#rwgt            1           1   3.4998204387145654E-002           2      311997           0
</event>
<event>
      5   9999  3.19816E-02  1.76555E+02 -1.00000E+00  1.13656E-01
      21    -1     0     0   502   501  0.000000000E+00  0.000000000E+00  2.189230739E+02  2.189230739E+02  0.000000000E+00  0.00000E+00  9.000E+00
       1    -1     0     0   501     0  0.000000000E+00  0.000000000E+00 -1.838902775E+03  1.838902775E+03  0.000000000E+00  0.00000E+00  9.000E+00
      25     1     1     2     0     0 -1.925039751E+02  1.344242358E+01  1.236621468E+02  2.610666691E+02  1.250000000E+02  0.00000E+00  9.000E+00
      25     1     1     2     0     0  5.743005444E+01  1.002527883E+02 -3.222418596E+02  3.644360696E+02  1.250000000E+02  0.00000E+00  9.000E+00
       1     1     1     2   502     0  1.350739206E+02 -1.136952119E+02 -1.421399988E+03  1.432323110E+03  1.525878906E-05  0.00000E+00  9.000E+00
#rwgt            1           1   2.6926739260598295E-002           2      312136           0
</event>
<event>
      5   9999  3.19816E-02  2.36567E+01 -1.00000E+00  1.60569E-01
      21    -1     0     0   502   501  0.000000000E+00  0.000000000E+00  3.781880613E+02  3.781880613E+02  0.000000000E+00  0.00000E+00  9.000E+00
      21    -1     0     0   511   502  0.000000000E+00  0.000000000E+00 -3.152460111E+02  3.152460111E+02  0.000000000E+00  0.00000E+00  9.000E+00
      25     1     1     2     0     0  1.571225347E+02  2.118622163E+02 -2.191676260E+01  2.927087872E+02  1.250000000E+02  0.00000E+00  9.000E+00
      25     1     1     2     0     0 -1.784358021E+02 -2.221278808E+02  1.396550470E+02  3.410405592E+02  1.250000000E+02  0.00000E+00  9.000E+00
      21     1     1     2   511   501  2.131326737E+01  1.026566455E+01 -5.479623415E+01  5.968472595E+01  6.743495762E-07  0.00000E+00  9.000E+00
#rwgt            1           1   3.0698992847121024E-002           2      312189           0
</event>
<event>
      5   9999  3.19816E-02  1.27394E+01 -1.00000E+00  1.84339E-01
      21    -1     0     0   512   501  0.000000000E+00  0.000000000E+00  3.565374449E+02  3.565374449E+02  0.000000000E+00  0.00000E+00  9.000E+00
      21    -1     0     0   501   502  0.000000000E+00  0.000000000E+00 -4.084399987E+02  4.084399987E+02  0.000000000E+00  0.00000E+00  9.000E+00
      25     1     1     2     0     0 -7.096582854E+01 -1.780626898E+02  2.679932952E+02  3.524030031E+02  1.250000000E+02  0.00000E+00  9.000E+00
      25     1     1     2     0     0  7.309745539E+01  1.906224658E+02 -3.202483625E+02  3.998301841E+02  1.250000000E+02  0.00000E+00  9.000E+00
      21     1     1     2   512   502 -2.131626856E+00 -1.255977601E+01  3.525135052E-01  1.274425644E+01  6.166452675E-08  0.00000E+00  9.000E+00
#rwgt            1           1   2.6314365824877676E-002           2      312309           0
</event>
<event>
      5   9999  3.19816E-02  8.47849E+02 -1.00000E+00  9.27456E-02
      21    -1     0     0   502   501  0.000000000E+00  0.000000000E+00  1.324146075E+03  1.324146075E+03  0.000000000E+00  0.00000E+00  9.000E+00
       2    -1     0     0   501     0  0.000000000E+00  0.000000000E+00 -2.255083488E+03  2.255083488E+03  0.000000000E+00  0.00000E+00  9.000E+00
      25     1     1     2     0     0 -5.449654712E+02 -2.740252283E+02  2.944607809E+02  6.887737960E+02  1.250000000E+02  0.00000E+00  9.000E+00
      25     1     1     2     0     0  6.859217794E+02 -5.620248240E+02  4.578095956E+02  1.005770956E+03  1.250000000E+02  0.00000E+00  9.000E+00
       2     1     1     2   502     0 -1.409563082E+02  8.360500523E+02 -1.683207790E+03  1.884684811E+03  3.051757812E-05  0.00000E+00  9.000E+00
#rwgt            2          13   1.6849233099078674E-003           2      312526           0
</event>
<event>
      5   9999  3.19816E-02  7.21412E+01 -1.00000E+00  1.30561E-01
      21    -1     0     0   502   501  0.000000000E+00  0.000000000E+00  3.181917175E+02  3.181917175E+02  0.000000000E+00  0.00000E+00  9.000E+00
      21    -1     0     0   511   502  0.000000000E+00  0.000000000E+00 -1.104523595E+03  1.104523595E+03  0.000000000E+00  0.00000E+00  9.000E+00
      25     1     1     2     0     0  6.444782331E+01  4.270948265E+02 -4.542748077E+01  4.519426609E+02  1.250000000E+02  0.00000E+00  9.000E+00
      25     1     1     2     0     0 -1.289940475E+02 -3.948746052E+02 -3.083195619E+02  5.322136510E+02  1.250000000E+02  0.00000E+00  9.000E+00
      21     1     1     2   511   501  6.454622415E+01 -3.222022129E+01 -4.325848348E+02  4.385590006E+02  5.394796609E-06  0.00000E+00  9.000E+00
#rwgt            1           1   2.9509926369024893E-002           2      312545           0
</event>
<event>
      5   9999  3.19816E-02  4.98579E+01 -1.00000E+00  1.39146E-01
      21    -1     0     0   502   512  0.000000000E+00  0.000000000E+00  3.894352470E+02  3.894352470E+02  0.000000000E+00  0.00000E+00  9.000E+00
      21    -1     0     0   501   502  0.000000000E+00  0.000000000E+00 -4.984677016E+02  4.984677016E+02  0.000000000E+00  0.00000E+00  9.000E+00
      25     1     1     2     0     0  1.132376519E-01  1.768140664E+02 -4.056424795E+02  4.598195821E+02  1.250000000E+02  0.00000E+00  9.000E+00
      25     1     1     2     0     0 -5.902895816E+00 -2.263346994E+02  2.540439008E+02  3.625266113E+02  1.250000000E+02  0.00000E+00  9.000E+00
      21     1     1     2   501   512  5.789658164E+00  4.952063306E+01  4.256612406E+01  6.555675524E+01  1.261592536E-06  0.00000E+00  9.000E+00
#rwgt            2          11   3.3239665888007571E-003           2      312790           0
</event>
<event>
      5   9999  3.19816E-02  3.99165E+01 -1.00000E+00  1.44896E-01
      21    -1     0     0   502   511  0.000000000E+00  0.000000000E+00  9.948623918E+02  9.948623918E+02  0.000000000E+00  0.00000E+00  9.000E+00
      21    -1     0     0   501   502  0.000000000E+00  0.000000000E+00 -3.880790065E+02  3.880790065E+02  0.000000000E+00  0.00000E+00  9.000E+00
      25     1     1     2     0     0 -6.652504180E+01  4.212740879E+02  7.095042110E+02  8.372088531E+02  1.250000000E+02  0.00000E+00  9.000E+00
      25     1     1     2     0     0  3.887808861E+01 -3.924822085E+02 -1.858149106E+02  4.535482012E+02  1.250000000E+02  0.00000E+00  9.000E+00
      21     1     1     2   501   511  2.764695319E+01 -2.879187935E+01  8.309408484E+01  9.218434397E+01  1.348699152E-06  0.00000E+00  9.000E+00
#rwgt            1           1   2.6641105946972641E-002           2      312810           0
</event>
<event>
      5   9999  3.19816E-02  6.42709E+01 -1.00000E+00  1.33127E-01
      21    -1     0     0   502   501  0.000000000E+00  0.000000000E+00  4.083480423E+02  4.083480423E+02  0.000000000E+00  0.00000E+00  9.000E+00
       1    -1     0     0   501     0  0.000000000E+00  0.000000000E+00 -5.763684698E+02  5.763684698E+02  0.000000000E+00  0.00000E+00  9.000E+00
      25     1     1     2     0     0  8.292069824E+01  2.699255630E+02  1.401304503E+02  3.391123631E+02  1.250000000E+02  0.00000E+00  9.000E+00
      25     1     1     2     0     0 -3.410969521E+01 -2.281137083E+02  6.228314979E+01  2.696359137E+02  1.250000000E+02  0.00000E+00  9.000E+00
       1     1     1     2   502     0 -4.881100303E+01 -4.181185466E+01 -3.704340275E+02  3.759682352E+02  5.394796609E-06  0.00000E+00  9.000E+00
#rwgt            1           1   2.7628286084425534E-002           2      312928           0
</event>
<event>
      5   9999  3.19816E-02  5.34995E+01 -1.00000E+00  1.37420E-01
      21    -1     0     0   502   501  0.000000000E+00  0.000000000E+00  7.689553420E+02  7.689553420E+02  0.000000000E+00  0.00000E+00  9.000E+00
      21    -1     0     0   501   511  0.000000000E+00  0.000000000E+00 -1.363023597E+03  1.363023597E+03  0.000000000E+00  0.00000E+00  9.000E+00
      25     1     1     2     0     0 -7.398008210E+02 -5.860578997E+02 -2.275364248E+02  9.788600212E+02  1.250000000E+02  0.00000E+00  9.000E+00
      25     1     1     2     0     0  7.914419318E+02  5.720797236E+02 -2.365238851E+02  1.012533501E+03  1.250000000E+02  0.00000E+00  9.000E+00
      21     1     1     2   502   511 -5.164111082E+01  1.397817607E+01 -1.300079451E+02  1.405854172E+02  0.000000000E+00  0.00000E+00  9.000E+00
#rwgt            1           1   3.7600947511578220E-002           2      312989           0
</event>
<event>
      5   9999  3.19816E-02  3.83601E+01 -1.00000E+00  1.45977E-01
      21    -1     0     0   502   501  0.000000000E+00  0.000000000E+00  1.004085080E+02  1.004085080E+02  0.000000000E+00  0.00000E+00  9.000E+00
      21    -1     0     0   512   502  0.000000000E+00  0.000000000E+00 -5.730956989E+02  5.730956989E+02  0.000000000E+00  0.00000E+00  9.000E+00
      25     1     1     2     0     0 -8.391849570E+01  1.058598643E+02 -4.922707867E+01  1.905175322E+02  1.250000000E+02  0.00000E+00  9.000E+00
      25     1     1     2     0     0  4.950654799E+01 -1.228103177E+02 -2.762903381E+02  3.308997180E+02  1.250000000E+02  0.00000E+00  9.000E+00
      21     1     1     2   512   501  3.441194772E+01  1.695045338E+01 -1.471697741E+02  1.520869568E+02  2.697398305E-06  0.00000E+00  9.000E+00
#rwgt            1           1   2.9307336189775733E-002           2      313182           0
</event>
<event>
      5   9999  3.19816E-02  1.79388E+02 -1.00000E+00  1.13395E-01
      21    -1     0     0   511   501  0.000000000E+00  0.000000000E+00  6.139471630E+02  6.139471630E+02  0.000000000E+00  0.00000E+00  9.000E+00
      21    -1     0     0   501   502  0.000000000E+00  0.000000000E+00 -9.393321366E+02  9.393321366E+02  0.000000000E+00  0.00000E+00  9.000E+00
      25     1     1     2     0     0  5.392720550E+01  3.954732664E+02 -3.720792427E+02  5.597992593E+02  1.250000000E+02  0.00000E+00  9.000E+00
      25     1     1     2     0     0 -2.143728517E+02 -4.757050923E+02 -2.915305309E+02  6.106276319E+02  1.250000000E+02  0.00000E+00  9.000E+00
      21     1     1     2   511   502  1.604456462E+02  8.023182592E+01  3.382248001E+02  3.828524084E+02  8.529922400E-06  0.00000E+00  9.000E+00
#rwgt            2          11   3.9801297905104520E-003           2      313344           0
</event>
<event>
      5   9999  3.19816E-02  5.61335E+01 -1.00000E+00  1.36268E-01
      21    -1     0     0   512   501  0.000000000E+00  0.000000000E+00  3.040075578E+02  3.040075578E+02  0.000000000E+00  0.00000E+00  9.000E+00
      21    -1     0     0   501   502  0.000000000E+00  0.000000000E+00 -8.112809189E+02  8.112809189E+02  0.000000000E+00  0.00000E+00  9.000E+00
      25     1     1     2     0     0  8.677786076E+01  1.243962708E+02 -7.287360036E+02  7.547754582E+02  1.250000000E+02  0.00000E+00  9.000E+00
      25     1     1     2     0     0 -5.418277979E+01 -1.700966999E+02  2.111432984E+02  3.034388792E+02  1.250000000E+02  0.00000E+00  9.000E+00
      21     1     1     2   512   502 -3.259508097E+01  4.570042912E+01  1.031934407E+01  5.707413939E+01  1.469710828E-06  0.00000E+00  9.000E+00
#rwgt            1           1   2.7344072495689577E-002           2      313364           0
</event>
<event>
      5   9999  3.19816E-02  2.51776E+01 -1.00000E+00  1.58521E-01
      21    -1     0     0   511   501  0.000000000E+00  0.000000000E+00  3.173573044E+02  3.173573044E+02  0.000000000E+00  0.00000E+00  9.000E+00
      21    -1     0     0   501   502  0.000000000E+00  0.000000000E+00 -1.099417640E+03  1.099417640E+03  0.000000000E+00  0.00000E+00  9.000E+00
      25     1     1     2     0     0  2.249670997E+01  3.443617865E+02 -9.237371903E+02  9.939851803E+02  1.250000000E+02  0.00000E+00  9.000E+00
      25     1     1     2     0     0  1.681059209E+00 -3.513866467E+02  1.359667661E+02  3.969727483E+02  1.250000000E+02  0.00000E+00  9.000E+00
      21     1     1     2   511   502 -2.417776918E+01  7.024860139E+00  5.710088646E+00  2.581701560E+01  1.192092896E-07  0.00000E+00  9.000E+00
#rwgt            1           1   2.5394272277727403E-002           2      313445           0
</event>
<event>
      5   9999  3.19816E-02  7.97483E+01 -1.00000E+00  1.28416E-01
      21    -1     0     0   502   501  0.000000000E+00  0.000000000E+00  1.215249161E+02  1.215249161E+02  0.000000000E+00  0.00000E+00  9.000E+00
      21    -1     0     0   501   512  0.000000000E+00  0.000000000E+00 -1.624749013E+03  1.624749013E+03  0.000000000E+00  0.00000E+00  9.000E+00
      25     1     1     2     0     0 -2.241359265E+02  3.357122311E+01 -9.162308614E+01  2.745609777E+02  1.250000000E+02  0.00000E+00  9.000E+00
      25     1     1     2     0     0  2.850885500E+02 -8.499652854E+01 -1.256975800E+03  1.297733814E+03  1.250000000E+02  0.00000E+00  9.000E+00
      21     1     1     2   502   512 -6.095262347E+01  5.142530543E+01 -1.546252113E+02  1.739791376E+02  1.907348633E-06  0.00000E+00  9.000E+00
#rwgt            1           1   2.8442059087419414E-002           2      313627           0
</event>
<event>
      5   9999  3.19816E-02  8.26906E+01 -1.00000E+00  1.27658E-01
       2    -1     0     0   502     0  0.000000000E+00  0.000000000E+00  1.391372420E+03  1.391372420E+03  0.000000000E+00  0.00000E+00  9.000E+00
      21    -1     0     0   501   502  0.000000000E+00  0.000000000E+00 -2.315667560E+03  2.315667560E+03  0.000000000E+00  0.00000E+00  9.000E+00
      25     1     1     2     0     0  4.375135159E+02 -2.472752775E+02 -1.939523246E+02  5.529969653E+02  1.250000000E+02  0.00000E+00  9.000E+00
      25     1     1     2     0     0 -3.676369957E+02  2.030597820E+02 -1.916018293E+03  1.965487557E+03  1.250000000E+02  0.00000E+00  9.000E+00
       2     1     1     2   501     0 -6.987652012E+01  4.421549553E+01  1.185675478E+03  1.188555458E+03  2.157918644E-05  0.00000E+00  9.000E+00
#rwgt            1           1   2.5270837050836454E-002           2      313709           0
</event>
<event>
      5   9999  3.19816E-02  3.08795E+01 -1.00000E+00  1.52173E-01
      21    -1     0     0   502   511  0.000000000E+00  0.000000000E+00  3.940633263E+02  3.940633263E+02  0.000000000E+00  0.00000E+00  9.000E+00
      21    -1     0     0   501   502  0.000000000E+00  0.000000000E+00 -1.264353272E+03  1.264353272E+03  0.000000000E+00  0.00000E+00  9.000E+00
      25     1     1     2     0     0  2.857733758E+02  5.884572533E+02 -6.593651078E+02  9.371956608E+02  1.250000000E+02  0.00000E+00  9.000E+00
      25     1     1     2     0     0 -2.807904114E+02 -5.579824733E+02 -2.381098287E+02  6.800801322E+02  1.250000000E+02  0.00000E+00  9.000E+00
      21     1     1     2   501   511 -4.982964348E+00 -3.047477999E+01  2.718499078E+01  4.114080544E+01  5.840038640E-07  0.00000E+00  9.000E+00
#rwgt            1           1   3.1109157743497290E-002           2      313829           0
</event>
<event>
      5   9999  3.19816E-02  4.24274E+01 -1.00000E+00  1.43271E-01
      21    -1     0     0   502   512  0.000000000E+00  0.000000000E+00  1.307518422E+02  1.307518422E+02  0.000000000E+00  0.00000E+00  9.000E+00
      21    -1     0     0   501   502  0.000000000E+00  0.000000000E+00 -1.140555673E+03  1.140555673E+03  0.000000000E+00  0.00000E+00  9.000E+00
      25     1     1     2     0     0 -6.817638495E+01 -5.659831096E+01  4.518206464E+01  1.597429411E+02  1.250000000E+02  0.00000E+00  9.000E+00
      25     1     1     2     0     0  5.796512671E+01  1.541808307E+01 -1.059831168E+03  1.068861440E+03  1.250000000E+02  0.00000E+00  9.000E+00
      21     1     1     2   501   512  1.021125824E+01  4.118022789E+01  4.845272902E+00  4.270313376E+01  6.194296387E-07  0.00000E+00  9.000E+00
#rwgt            1           1   2.8883069574333772E-002           2      313976           0
</event>
<event>
      5   9999  3.19816E-02  1.43559E+02 -1.00000E+00  1.17154E-01
      21    -1     0     0   502   501  0.000000000E+00  0.000000000E+00  8.155069639E+02  8.155069639E+02  0.000000000E+00  0.00000E+00  9.000E+00
      21    -1     0     0   511   502  0.000000000E+00  0.000000000E+00 -1.470526992E+02  1.470526992E+02  0.000000000E+00  0.00000E+00  9.000E+00
      25     1     1     2     0     0 -2.365469134E+00  1.639846810E+02  8.847940466E+01  2.243884491E+02  1.250000000E+02  0.00000E+00  9.000E+00
      25     1     1     2     0     0 -1.310503582E+02 -2.169886631E+02  4.986437650E+02  5.731743894E+02  1.250000000E+02  0.00000E+00  9.000E+00
      21     1     1     2   511   501  1.334158274E+02  5.300398209E+01  8.133109497E+01  1.649968246E+02  3.015782986E-06  0.00000E+00  9.000E+00
#rwgt            1           1   3.1552504982793779E-002           2      314116           0
</event>
<event>
      5   9999  3.19816E-02  3.60444E+01 -1.00000E+00  1.47702E-01
      21    -1     0     0   502   501  0.000000000E+00  0.000000000E+00  1.858863471E+02  1.858863471E+02  0.000000000E+00  0.00000E+00  9.000E+00
      21    -1     0     0   501   512  0.000000000E+00  0.000000000E+00 -9.730993105E+02  9.730993105E+02  0.000000000E+00  0.00000E+00  9.000E+00
      25     1     1     2     0     0 -5.228045878E+01 -2.811453680E+02 -4.035976455E+02  5.101882238E+02  1.250000000E+02  0.00000E+00  9.000E+00
      25     1     1     2     0     0  8.830464675E+01  2.823516594E+02 -6.440227009E+01  3.275558313E+02  1.250000000E+02  0.00000E+00  9.000E+00
      21     1     1     2   502   512 -3.602418797E+01 -1.206291376E+00 -3.192130479E+02  3.212416025E+02  5.394796609E-06  0.00000E+00  9.000E+00
#rwgt            1           1   2.8753920334429313E-002           2      314180           0
</event>
<event>
      5   9999  3.19816E-02  4.41834E+01 -1.00000E+00  1.42211E-01
      21    -1     0     0   502   511  0.000000000E+00  0.000000000E+00  8.170173137E+02  8.170173137E+02  0.000000000E+00  0.00000E+00  9.000E+00
      21    -1     0     0   501   502  0.000000000E+00  0.000000000E+00 -4.715035705E+01  4.715035705E+01  0.000000000E+00  0.00000E+00  9.000E+00
      25     1     1     2     0     0 -9.641839230E+01  8.718266929E+01  2.730924715E+02  3.272641474E+02  1.250000000E+02  0.00000E+00  9.000E+00
      25     1     1     2     0     0  5.431528438E+01 -7.378491506E+01  3.334255669E+02  3.676846101E+02  1.250000000E+02  0.00000E+00  9.000E+00
      21     1     1     2   501   511  4.210310792E+01 -1.339775424E+01  1.633489182E+02  1.692189132E+02  1.907348633E-06  0.00000E+00  9.000E+00
#rwgt            1           1   2.9780628973739471E-002           2      314297           0
</event>
<event>
      5   9999  3.19816E-02  5.37579E+00 -1.00000E+00  2.33146E-01
       2    -1     0     0   502     0  0.000000000E+00  0.000000000E+00  8.516639867E+02  8.516639867E+02  0.000000000E+00  0.00000E+00  9.000E+00
      21    -1     0     0   501   502  0.000000000E+00  0.000000000E+00 -2.189464105E+02  2.189464105E+02  0.000000000E+00  0.00000E+00  9.000E+00
      25     1     1     2     0     0 -3.090471452E+01  2.058668295E+01  8.503815467E+01  1.556772323E+02  1.250000000E+02  0.00000E+00  9.000E+00
      25     1     1     2     0     0  3.437373004E+01 -1.647997387E+01 -1.603642271E+02  2.068691088E+02  1.250000000E+02  0.00000E+00  9.000E+00
       2     1     1     2   501     0 -3.469015524E+00 -4.106709080E+00  7.080436487E+02  7.080640561E+02  1.078959322E-05  0.00000E+00  9.000E+00
#rwgt            1           1   2.6218147504809278E-002           2      314408           0
</event>
<event>
      5   9999  3.19816E-02  7.03663E+01 -1.00000E+00  1.31106E-01
      21    -1     0     0   511   501  0.000000000E+00  0.000000000E+00  1.609077161E+02  1.609077161E+02  0.000000000E+00  0.00000E+00  9.000E+00
      21    -1     0     0   501   502  0.000000000E+00  0.000000000E+00 -1.059454283E+03  1.059454283E+03  0.000000000E+00  0.00000E+00  9.000E+00
      25     1     1     2     0     0 -3.261878499E+02  5.875909632E+01 -2.113047898E+02  4.124631608E+02  1.250000000E+02  0.00000E+00  9.000E+00
      25     1     1     2     0     0  2.927100444E+02  3.133153096E+00 -6.594392541E+02  7.322391116E+02  1.250000000E+02  0.00000E+00  9.000E+00
      21     1     1     2   511   502  3.347780553E+01 -6.189224941E+01 -2.780252326E+01  7.565972707E+01  3.371747881E-07  0.00000E+00  9.000E+00
#rwgt            1           1   2.3732449618217657E-002           2      314678           0
</event>
<event>
      5   9999  3.19816E-02  5.23320E+01 -1.00000E+00  1.37955E-01
      21    -1     0     0   502   501  0.000000000E+00  0.000000000E+00  1.039609277E+02  1.039609277E+02  0.000000000E+00  0.00000E+00  9.000E+00
      21    -1     0     0   512   502  0.000000000E+00  0.000000000E+00 -5.067841595E+02  5.067841595E+02  0.000000000E+00  0.00000E+00  9.000E+00
      25     1     1     2     0     0  1.057314654E+02  1.014333564E+02 -3.159253318E+02  3.700022754E+02  1.250000000E+02  0.00000E+00  9.000E+00
      25     1     1     2     0     0 -7.251199471E+01 -6.099697087E+01 -2.361218936E+01  1.586226822E+02  1.250000000E+02  0.00000E+00  9.000E+00
      21     1     1     2   512   501 -3.321947069E+01 -4.043638556E+01 -6.328571069E+01  8.212012961E+01  9.536743164E-07  0.00000E+00  9.000E+00
#rwgt            1           1   3.4115528129770256E-002           2      314760           0
</event>
<event>
      5   9999  3.19816E-02  4.15343E+01 -1.00000E+00  1.43834E-01
      21    -1     0     0   511   501  0.000000000E+00  0.000000000E+00  4.148967510E+02  4.148967510E+02  0.000000000E+00  0.00000E+00  9.000E+00
      21    -1     0     0   501   502  0.000000000E+00  0.000000000E+00 -9.422622045E+01  9.422622045E+01  0.000000000E+00  0.00000E+00  9.000E+00
      25     1     1     2     0     0  9.368939456E+01 -2.050213533E+01  1.769115735E+02  2.368981744E+02  1.250000000E+02  0.00000E+00  9.000E+00
      25     1     1     2     0     0 -8.744966891E+01 -2.056083317E+01  3.792924102E+01  1.585364935E+02  1.250000000E+02  0.00000E+00  9.000E+00
      21     1     1     2   511   502 -6.239725643E+00  4.106296850E+01  1.058297160E+02  1.136883035E+02  0.000000000E+00  0.00000E+00  9.000E+00
#rwgt            1           1   3.0034629152596269E-002           2      314843           0
</event>
<event>
      5   9999  3.19816E-02  8.02286E+01 -1.00000E+00  1.28290E-01
      21    -1     0     0   502   501  0.000000000E+00  0.000000000E+00  1.052949718E+02  1.052949718E+02  0.000000000E+00  0.00000E+00  9.000E+00
      21    -1     0     0   501   512  0.000000000E+00  0.000000000E+00 -8.201977868E+02  8.201977868E+02  0.000000000E+00  0.00000E+00  9.000E+00
      25     1     1     2     0     0 -1.387494967E+01  1.791446764E+02 -9.515065365E+01  2.386712723E+02  1.250000000E+02  0.00000E+00  9.000E+00
      25     1     1     2     0     0  8.622072185E+01 -1.444645717E+02 -3.795468945E+02  4.335722206E+02  1.250000000E+02  0.00000E+00  9.000E+00
      21     1     1     2   502   512 -7.234577218E+01 -3.468010467E+01 -2.402052669E+02  2.532492658E+02  0.000000000E+00  0.00000E+00  9.000E+00
#rwgt            1           1   3.0203415915273965E-002           2      314972           0
</event>
<event>
      5   9999  3.19816E-02  8.95258E+01 -1.00000E+00  1.26028E-01
      21    -1     0     0   502   501  0.000000000E+00  0.000000000E+00  9.487433957E+01  9.487433957E+01  0.000000000E+00  0.00000E+00  9.000E+00
       2    -1     0     0   501     0  0.000000000E+00  0.000000000E+00 -2.739144605E+03  2.739144605E+03  0.000000000E+00  0.00000E+00  9.000E+00
      25     1     1     2     0     0  5.602170839E+00  2.794877812E+01  4.128926739E+01  1.346934375E+02  1.250000000E+02  0.00000E+00  9.000E+00
      25     1     1     2     0     0  2.311326977E+01 -1.127443362E+02 -2.111681793E+03  2.118506669E+03  1.250000000E+02  0.00000E+00  9.000E+00
       2     1     1     2   502     0 -2.871544061E+01  8.479555809E+01 -5.738777400E+02  5.808188389E+02  1.078959322E-05  0.00000E+00  9.000E+00
#rwgt            1           1   2.7475902157246039E-002           2      315034           0
</event>
<event>
      5   9999  3.19816E-02  8.40836E+01 -1.00000E+00  1.27312E-01
      21    -1     0     0   511   501  0.000000000E+00  0.000000000E+00  4.510143051E+02  4.510143051E+02  0.000000000E+00  0.00000E+00  9.000E+00
      21    -1     0     0   501   502  0.000000000E+00  0.000000000E+00 -1.619248474E+03  1.619248474E+03  0.000000000E+00  0.00000E+00  9.000E+00
      25     1     1     2     0     0  1.232072929E+02 -4.982019620E+02 -1.008890905E+03  1.138802481E+03  1.250000000E+02  0.00000E+00  9.000E+00
      25     1     1     2     0     0 -1.612615689E+02  4.232224605E+02 -4.368166892E+02  6.415265892E+02  1.250000000E+02  0.00000E+00  9.000E+00
      21     1     1     2   511   502  3.805427600E+01  7.497950151E+01  2.774734256E+02  2.899337088E+02  6.607249480E-06  0.00000E+00  9.000E+00
#rwgt            1           1   3.1479750705208913E-002           2      315153           0
</event>
<event>
      5   9999  3.19816E-02  1.50448E+02 -1.00000E+00  1.16342E-01
      21    -1     0     0   502   501  0.000000000E+00  0.000000000E+00  1.631233032E+03  1.631233032E+03  0.000000000E+00  0.00000E+00  9.000E+00
       1    -1     0     0   501     0  0.000000000E+00  0.000000000E+00 -1.392671883E+03  1.392671883E+03  0.000000000E+00  0.00000E+00  9.000E+00
      25     1     1     2     0     0 -2.243899281E+02  2.004240602E+02  1.498025276E+03  1.533044478E+03  1.250000000E+02  0.00000E+00  9.000E+00
      25     1     1     2     0     0  2.716516465E+02 -3.432558432E+02 -3.640734647E+02  5.829182435E+02  1.250000000E+02  0.00000E+00  9.000E+00
       1     1     1     2   502     0 -4.726171839E+01  1.428317829E+02 -8.953906622E+02  9.079421932E+02  0.000000000E+00  0.00000E+00  9.000E+00
#rwgt            1           1   3.4194856035117280E-002           2      315280           0
</event>
<event>
      5   9999  3.19816E-02  3.81791E+01 -1.00000E+00  1.46106E-01
      21    -1     0     0   502   501  0.000000000E+00  0.000000000E+00  4.163403420E+02  4.163403420E+02  0.000000000E+00  0.00000E+00  9.000E+00
      21    -1     0     0   511   502  0.000000000E+00  0.000000000E+00 -2.239919857E+03  2.239919857E+03  0.000000000E+00  0.00000E+00  9.000E+00
      25     1     1     2     0     0 -8.163061217E+02 -3.853178386E+02 -5.353969305E+02  1.056929702E+03  1.250000000E+02  0.00000E+00  9.000E+00
      25     1     1     2     0     0  7.922717834E+02  3.556531539E+02 -1.098704486E+03  1.406044200E+03  1.250000000E+02  0.00000E+00  9.000E+00
      21     1     1     2   511   501  2.403433821E+01  2.966468473E+01 -1.894780990E+02  1.932862979E+02  2.697398305E-06  0.00000E+00  9.000E+00
#rwgt            1           1   1.8828890613344251E-002           2      315372           0
</event>
<event>
      5   9999  3.19816E-02  2.10685E+02 -1.00000E+00  1.10831E-01
      21    -1     0     0   502   501  0.000000000E+00  0.000000000E+00  1.963503271E+02  1.963503271E+02  0.000000000E+00  0.00000E+00  9.000E+00
       2    -1     0     0   501     0  0.000000000E+00  0.000000000E+00 -1.520089792E+03  1.520089792E+03  0.000000000E+00  0.00000E+00  9.000E+00
      25     1     1     2     0     0 -7.079526609E+01 -1.825366070E+02 -4.728865254E+02  5.268569526E+02  1.250000000E+02  0.00000E+00  9.000E+00
      25     1     1     2     0     0  2.272419942E+02  3.236486043E+02 -1.241072304E+02  4.329144807E+02  1.250000000E+02  0.00000E+00  9.000E+00
       2     1     1     2   502     0 -1.564467281E+02 -1.411119972E+02 -7.267457086E+02  7.566686854E+02  1.078959322E-05  0.00000E+00  9.000E+00
#rwgt            2          13   1.1615904470913463E-003           2      315537           0
</event>
<event>
      5   9999  3.19816E-02  6.18994E+02 -1.00000E+00  9.62875E-02
      21    -1     0     0   502   501  0.000000000E+00  0.000000000E+00  9.591334785E+02  9.591334785E+02  0.000000000E+00  0.00000E+00  9.000E+00
      21    -1     0     0   501   511  0.000000000E+00  0.000000000E+00 -1.264197932E+03  1.264197932E+03  0.000000000E+00  0.00000E+00  9.000E+00
      25     1     1     2     0     0  3.305523435E+02  3.797938519E+02  6.534516219E+02  8.343453985E+02  1.250000000E+02  0.00000E+00  9.000E+00
      25     1     1     2     0     0  2.719119899E+02 -2.377029773E+02 -3.061098006E+02  4.896601328E+02  1.250000000E+02  0.00000E+00  9.000E+00
      21     1     1     2   502   511 -6.024643334E+02 -1.420908746E+02 -6.524062751E+02  8.993258795E+02  0.000000000E+00  0.00000E+00  9.000E+00
#rwgt            2          11   1.8014651270682211E-003           2      315586           0
</event>
<event>
      5   9999  3.19816E-02  3.68314E+02 -1.00000E+00  1.02776E-01
      21    -1     0     0   502   501  0.000000000E+00  0.000000000E+00  7.047049887E+02  7.047049887E+02  0.000000000E+00  0.00000E+00  9.000E+00
      21    -1     0     0   512   502  0.000000000E+00  0.000000000E+00 -4.026261133E+02  4.026261133E+02  0.000000000E+00  0.00000E+00  9.000E+00
      25     1     1     2     0     0 -2.983129846E+02 -7.711388945E+01  4.368006852E+02  5.489599506E+02  1.250000000E+02  0.00000E+00  9.000E+00
      25     1     1     2     0     0 -6.892600434E+01  4.899885248E+01 -1.146170068E+02  1.895092079E+02  1.250000000E+02  0.00000E+00  9.000E+00
      21     1     1     2   512   501  3.672389889E+02  2.811503697E+01 -2.010480308E+01  3.688619435E+02  7.048485517E-06  0.00000E+00  9.000E+00
#rwgt            1           1   2.9889725038873698E-002           2      315606           0
</event>
<event>
      5   9999  3.19816E-02  7.85504E+00 -1.00000E+00  2.08714E-01
       2    -1     0     0   502     0  0.000000000E+00  0.000000000E+00  9.980619784E+02  9.980619784E+02  0.000000000E+00  0.00000E+00  9.000E+00
      21    -1     0     0   501   502  0.000000000E+00  0.000000000E+00 -2.170737354E+02  2.170737354E+02  0.000000000E+00  0.00000E+00  9.000E+00
      25     1     1     2     0     0 -1.430512443E+02  1.215779887E+02  2.169304903E+02  3.129356219E+02  1.250000000E+02  0.00000E+00  9.000E+00
      25     1     1     2     0     0  1.403566364E+02 -1.289563887E+02 -9.221321900E+01  2.458821126E+02  1.250000000E+02  0.00000E+00  9.000E+00
       2     1     1     2   501     0  2.694607940E+00  7.378399969E+00  6.562709717E+02  6.563179793E+02  0.000000000E+00  0.00000E+00  9.000E+00
#rwgt            1           1   2.8597996357945448E-002           2      315651           0
</event>
<event>
      5   9999  3.19816E-02  1.36695E+02 -1.00000E+00  1.18015E-01
       2    -1     0     0   502     0  0.000000000E+00  0.000000000E+00  2.249182602E+03  2.249182602E+03  0.000000000E+00  0.00000E+00  9.000E+00
      21    -1     0     0   501   502  0.000000000E+00  0.000000000E+00 -6.413972303E+02  6.413972303E+02  0.000000000E+00  0.00000E+00  9.000E+00
      25     1     1     2     0     0 -2.362616634E+02 -4.124536699E+02  1.344008483E+02  5.095352700E+02  1.250000000E+02  0.00000E+00  9.000E+00
      25     1     1     2     0     0  2.434887808E+02  2.759493612E+02 -3.676149573E+02  5.349771894E+02  1.250000000E+02  0.00000E+00  9.000E+00
       2     1     1     2   501     0 -7.227117403E+00  1.365043086E+02  1.840999481E+03  1.846067373E+03  0.000000000E+00  0.00000E+00  9.000E+00
#rwgt            1           1   2.3526495811092785E-002           2      315954           0
</event>
<event>
      5   9999  3.19816E-02  9.65177E+01 -1.00000E+00  1.24524E-01
      21    -1     0     0   502   501  0.000000000E+00  0.000000000E+00  2.281890851E+02  2.281890851E+02  0.000000000E+00  0.00000E+00  9.000E+00
       2    -1     0     0   501     0  0.000000000E+00  0.000000000E+00 -3.122870134E+03  3.122870134E+03  0.000000000E+00  0.00000E+00  9.000E+00
      25     1     1     2     0     0 -1.488730466E+02 -2.933938029E+02  7.083398181E+01  3.590063518E+02  1.250000000E+02  0.00000E+00  9.000E+00
      25     1     1     2     0     0  1.320048157E+02  1.983615983E+02 -2.604387818E+03  2.618250084E+03  1.250000000E+02  0.00000E+00  9.000E+00
       2     1     1     2   502     0  1.686823097E+01  9.503220463E+01 -3.611272124E+02  3.738027831E+02  3.814697266E-06  0.00000E+00  9.000E+00
#rwgt            1           1   2.7769685709366769E-002           2      315989           0
</event>
<event>
      5   9999  3.19816E-02  7.95854E+00 -1.00000E+00  2.07966E-01
      21    -1     0     0   502   501  0.000000000E+00  0.000000000E+00  2.138228435E+02  2.138228435E+02  0.000000000E+00  0.00000E+00  9.000E+00
      21    -1     0     0   511   502  0.000000000E+00  0.000000000E+00 -1.277398224E+03  1.277398224E+03  0.000000000E+00  0.00000E+00  9.000E+00
      25     1     1     2     0     0  2.317870488E+02 -8.598553556E+01  9.818499817E+01  2.939116230E+02  1.250000000E+02  0.00000E+00  9.000E+00
      25     1     1     2     0     0 -2.292642568E+02  9.353363807E+01 -1.150856438E+03  1.183810027E+03  1.250000000E+02  0.00000E+00  9.000E+00
      21     1     1     2   511   501 -2.522791991E+00 -7.548102509E+00 -1.090394058E+01  1.349941669E+01  1.685873940E-07  0.00000E+00  9.000E+00
#rwgt            1           1   3.0396298833559304E-002           2      316064           0
</event>
<event>
      5   9999  3.19816E-02  3.52394E+01 -1.00000E+00  1.48338E-01
      21    -1     0     0   502   501  0.000000000E+00  0.000000000E+00  8.611262235E+02  8.611262235E+02  0.000000000E+00  0.00000E+00  9.000E+00
      21    -1     0     0   501   512  0.000000000E+00  0.000000000E+00 -3.032010101E+02  3.032010101E+02  0.000000000E+00  0.00000E+00  9.000E+00
      25     1     1     2     0     0  3.720927403E+02 -1.141216366E+02  3.965067872E+02  5.694904632E+02  1.250000000E+02  0.00000E+00  9.000E+00
      25     1     1     2     0     0 -3.725596683E+02  1.493579778E+02  2.571618702E+02  4.928141023E+02  1.250000000E+02  0.00000E+00  9.000E+00
      21     1     1     2   502   512  4.669280155E-01 -3.523634112E+01 -9.574344399E+01  1.020226682E+02  0.000000000E+00  0.00000E+00  9.000E+00
#rwgt            1           1   2.8627784619445210E-002           2      316295           0
</event>
<event>
      5   9999  3.19816E-02  3.60876E+01 -1.00000E+00  1.47668E-01
      21    -1     0     0   502   501  0.000000000E+00  0.000000000E+00  6.859606119E+01  6.859606119E+01  0.000000000E+00  0.00000E+00  9.000E+00
       1    -1     0     0   501     0  0.000000000E+00  0.000000000E+00 -1.954113702E+03  1.954113702E+03  0.000000000E+00  0.00000E+00  9.000E+00
      25     1     1     2     0     0 -1.208467657E+02  3.615846120E+01 -9.650644766E+01  2.021135066E+02  1.250000000E+02  0.00000E+00  9.000E+00
      25     1     1     2     0     0  1.521084089E+02 -1.813003567E+01 -6.143522280E+02  6.453830849E+02  1.250000000E+02  0.00000E+00  9.000E+00
       1     1     1     2   502     0 -3.126164315E+01 -1.802842553E+01 -1.174658965E+03  1.175213172E+03  1.525878906E-05  0.00000E+00  9.000E+00
#rwgt            1           1   3.0711649298292107E-002           2      316357           0
</event>
<event>
      5   9999  3.19816E-02  2.60861E+01 -1.00000E+00  1.57380E-01
      21    -1     0     0   502   501  0.000000000E+00  0.000000000E+00  2.257020626E+02  2.257020626E+02  0.000000000E+00  0.00000E+00  9.000E+00
      21    -1     0     0   511   502  0.000000000E+00  0.000000000E+00 -6.980682873E+02  6.980682873E+02  0.000000000E+00  0.00000E+00  9.000E+00
      25     1     1     2     0     0 -2.886751236E+02 -5.901188739E+01 -8.734700994E-01  3.200648259E+02  1.250000000E+02  0.00000E+00  9.000E+00
      25     1     1     2     0     0  2.774717155E+02  8.256963258E+01 -3.173640479E+02  4.473848857E+02  1.250000000E+02  0.00000E+00  9.000E+00
      21     1     1     2   511   501  1.120340813E+01 -2.355774520E+01 -1.541287067E+02  1.563206382E+02  1.907348633E-06  0.00000E+00  9.000E+00
#rwgt            1           1   2.7324511287878522E-002           2      316456           0
</event>
<event>
      5   9999  3.19816E-02  2.29035E+01 -1.00000E+00  1.61654E-01
      21    -1     0     0   502   512  0.000000000E+00  0.000000000E+00  1.658098776E+03  1.658098776E+03  0.000000000E+00  0.00000E+00  9.000E+00
      21    -1     0     0   501   502  0.000000000E+00  0.000000000E+00 -4.978417312E+01  4.978417312E+01  0.000000000E+00  0.00000E+00  9.000E+00
      25     1     1     2     0     0 -1.080976500E+02 -1.546035698E+02  3.140365374E+02  3.870804988E+02  1.250000000E+02  0.00000E+00  9.000E+00
      25     1     1     2     0     0  1.028080233E+02  1.768878815E+02  1.151090038E+03  1.175794237E+03  1.250000000E+02  0.00000E+00  9.000E+00
      21     1     1     2   501   512  5.289626720E+00 -2.228431168E+01  1.431880268E+02  1.450082126E+02  0.000000000E+00  0.00000E+00  9.000E+00
#rwgt            1           1   4.3232323016443981E-002           2      316662           0
</event>
<event>
      5   9999  3.19816E-02  2.66581E+01 -1.00000E+00  1.56690E-01
      21    -1     0     0   502   501  0.000000000E+00  0.000000000E+00  2.027123111E+02  2.027123111E+02  0.000000000E+00  0.00000E+00  9.000E+00
      21    -1     0     0   501   511  0.000000000E+00  0.000000000E+00 -3.351012656E+02  3.351012656E+02  0.000000000E+00  0.00000E+00  9.000E+00
      25     1     1     2     0     0 -1.304077252E+02 -1.158410965E+02 -1.280789811E+02  2.499091031E+02  1.250000000E+02  0.00000E+00  9.000E+00
      25     1     1     2     0     0  1.504265309E+02  9.823704595E+01  5.256428163E+01  2.250925634E+02  1.250000000E+02  0.00000E+00  9.000E+00
      21     1     1     2   502   511 -2.001880572E+01  1.760405055E+01 -5.687425501E+01  6.281191018E+01  9.536743164E-07  0.00000E+00  9.000E+00
#rwgt            1           1   2.7003217846479924E-002           2      316793           0
</event>
<event>
      5   9999  3.19816E-02  8.43178E+01 -1.00000E+00  1.27254E-01
      21    -1     0     0   502   501  0.000000000E+00  0.000000000E+00  1.006070328E+03  1.006070328E+03  0.000000000E+00  0.00000E+00  9.000E+00
      21    -1     0     0   512   502  0.000000000E+00  0.000000000E+00 -6.426744502E+02  6.426744502E+02  0.000000000E+00  0.00000E+00  9.000E+00
      25     1     1     2     0     0 -2.699662070E+02 -4.649126087E+02  6.925539122E+01  5.562794225E+02  1.250000000E+02  0.00000E+00  9.000E+00
      25     1     1     2     0     0  3.535530109E+02  4.759914438E+02  5.529094568E+02  8.203057074E+02  1.250000000E+02  0.00000E+00  9.000E+00
      21     1     1     2   512   501 -8.358680397E+01 -1.107883509E+01 -2.587689701E+02  2.721596485E+02  3.814697266E-06  0.00000E+00  9.000E+00
#rwgt            1           1   3.3799857266425287E-002           2      316887           0
</event>
<event>
      5   9999  3.19816E-02  1.47995E+02 -1.00000E+00  1.16626E-01
      21    -1     0     0   502   501  0.000000000E+00  0.000000000E+00  1.308408955E+03  1.308408955E+03  0.000000000E+00  0.00000E+00  9.000E+00
       2    -1     0     0   501     0  0.000000000E+00  0.000000000E+00 -7.941132324E+02  7.941132324E+02  0.000000000E+00  0.00000E+00  9.000E+00
      25     1     1     2     0     0 -4.817104977E+02 -6.397160454E+02 -1.425712369E+02  8.229417840E+02  1.250000000E+02  0.00000E+00  9.000E+00
      25     1     1     2     0     0  4.747263830E+02  7.875456759E+02  6.469263367E+02  1.131252410E+03  1.250000000E+02  0.00000E+00  9.000E+00
       2     1     1     2   502     0  6.984114732E+00 -1.478296305E+02  9.940622506E+00  1.483279930E+02  2.823524304E-06  0.00000E+00  9.000E+00
#rwgt            1           1   2.5887639898622809E-002           2      317008           0
</event>
<event>
      5   9999  3.19816E-02  4.91651E+01 -1.00000E+00  1.39494E-01
      21    -1     0     0   502   511  0.000000000E+00  0.000000000E+00  7.067710672E+02  7.067710672E+02  0.000000000E+00  0.00000E+00  9.000E+00
      21    -1     0     0   501   502  0.000000000E+00  0.000000000E+00 -2.276087321E+03  2.276087321E+03  0.000000000E+00  0.00000E+00  9.000E+00
      25     1     1     2     0     0  7.665430543E+02 -9.199010936E+02 -1.009857974E+03  1.571382959E+03  1.250000000E+02  0.00000E+00  9.000E+00
      25     1     1     2     0     0 -7.744239967E+02  9.684304416E+02 -5.449423695E+02  1.360212201E+03  1.250000000E+02  0.00000E+00  9.000E+00
      21     1     1     2   501   511  7.880942389E+00 -4.852934802E+01 -1.451591015E+01  5.126322776E+01  6.951036328E-07  0.00000E+00  9.000E+00
#rwgt            1           1   5.9153304166408370E-002           2      317085           0
</event>
<event>
      5   9999  3.19816E-02  6.06025E+01 -1.00000E+00  1.34472E-01
      21    -1     0     0   502   501  0.000000000E+00  0.000000000E+00  9.725256761E+01  9.725256761E+01  0.000000000E+00  0.00000E+00  9.000E+00
      21    -1     0     0   501   512  0.000000000E+00  0.000000000E+00 -8.223616724E+02  8.223616724E+02  0.000000000E+00  0.00000E+00  9.000E+00
      25     1     1     2     0     0  2.358931970E+01 -1.724736378E+02 -1.679365517E+02  2.722706322E+02  1.250000000E+02  0.00000E+00  9.000E+00
      25     1     1     2     0     0 -4.023635423E+01  2.307449447E+02 -4.132849427E+02  4.912144518E+02  1.250000000E+02  0.00000E+00  9.000E+00
      21     1     1     2   502   512  1.664703453E+01 -5.827130691E+01 -1.438876104E+02  1.561291561E+02  1.907348633E-06  0.00000E+00  9.000E+00
#rwgt            1           1   3.1555380928717403E-002           2      317276           0
</event>
<event>
      5   9999  3.19816E-02  5.14146E+01 -1.00000E+00  1.38388E-01
      21    -1     0     0   511   501  0.000000000E+00  0.000000000E+00  8.039371413E+02  8.039371413E+02  0.000000000E+00  0.00000E+00  9.000E+00
      21    -1     0     0   501   502  0.000000000E+00  0.000000000E+00 -1.269084545E+02  1.269084545E+02  0.000000000E+00  0.00000E+00  9.000E+00
      25     1     1     2     0     0  1.035983391E+02 -1.707388566E+02  4.382153722E+01  2.396449460E+02  1.250000000E+02  0.00000E+00  9.000E+00
      25     1     1     2     0     0 -1.203999302E+02  1.221470207E+02  5.781384600E+02  6.158612805E+02  1.250000000E+02  0.00000E+00  9.000E+00
      21     1     1     2   511   502  1.680159114E+01  4.859183593E+01  5.506868962E+01  7.533936926E+01  9.536743164E-07  0.00000E+00  9.000E+00
#rwgt            1           1   2.8826712650021298E-002           2      317348           0
</event>
<event>
      5   9999  3.19816E-02  1.42515E+01 -1.00000E+00  1.79504E-01
      21    -1     0     0   502   501  0.000000000E+00  0.000000000E+00  1.364974423E+02  1.364974423E+02  0.000000000E+00  0.00000E+00  9.000E+00
      21    -1     0     0   501   512  0.000000000E+00  0.000000000E+00 -1.384752648E+03  1.384752648E+03  0.000000000E+00  0.00000E+00  9.000E+00
      25     1     1     2     0     0 -6.641659470E+01 -5.074384735E+01 -6.320895647E+02  6.497294205E+02  1.250000000E+02  0.00000E+00  9.000E+00
      25     1     1     2     0     0  7.795372493E+01  4.237732183E+01  8.156880469E+01  1.736406938E+02  1.250000000E+02  0.00000E+00  9.000E+00
      21     1     1     2   502   512 -1.153713023E+01  8.366525523E+00 -6.977344457E+02  6.978799760E+02  7.629394531E-06  0.00000E+00  9.000E+00
#rwgt            1           1   2.7162545665780920E-002           2      317516           0
</event>
<event>
      5   9999  3.19816E-02  1.95049E+02 -1.00000E+00  1.12046E-01
      21    -1     0     0   502   511  0.000000000E+00  0.000000000E+00  7.341963585E+02  7.341963585E+02  0.000000000E+00  0.00000E+00  9.000E+00
      21    -1     0     0   501   502  0.000000000E+00  0.000000000E+00 -2.893085587E+02  2.893085587E+02  0.000000000E+00  0.00000E+00  9.000E+00
      25     1     1     2     0     0  3.462326077E+02 -1.177121285E+02  1.211018798E+02  4.049985544E+02  1.250000000E+02  0.00000E+00  9.000E+00
      25     1     1     2     0     0 -2.368689552E+02 -4.379261725E+01  4.024036599E+01  2.743519315E+02  1.250000000E+02  0.00000E+00  9.000E+00
      21     1     1     2   501   511 -1.093636524E+02  1.615047458E+02  2.835455539E+02  3.441544312E+02  5.394796609E-06  0.00000E+00  9.000E+00
#rwgt            1           1   2.7896703126045471E-002           2      317709           0
</event>
<event>
      5   9999  3.19816E-02  2.66554E+01 -1.00000E+00  1.56693E-01
      21    -1     0     0   512   501  0.000000000E+00  0.000000000E+00  7.529898072E+02  7.529898072E+02  0.000000000E+00  0.00000E+00  9.000E+00
      21    -1     0     0   501   502  0.000000000E+00  0.000000000E+00 -1.087597511E+03  1.087597511E+03  0.000000000E+00  0.00000E+00  9.000E+00
      25     1     1     2     0     0  4.283752353E+01  4.088611757E+02 -5.665027543E+02  7.110224223E+02  1.250000000E+02  0.00000E+00  9.000E+00
      25     1     1     2     0     0 -5.036148048E+01 -3.832896507E+02 -3.565265073E+02  5.405399018E+02  1.250000000E+02  0.00000E+00  9.000E+00
      21     1     1     2   512   502  7.523956955E+00 -2.557152503E+01  5.884215582E+02  5.890249935E+02  1.078959322E-05  0.00000E+00  9.000E+00
#rwgt            1           1   2.6152072002590662E-002           2      317762           0
</event>
<event>
      5   9999  3.19816E-02  6.85885E+00 -1.00000E+00  2.16812E-01
      21    -1     0     0   502   511  0.000000000E+00  0.000000000E+00  7.173293865E+02  7.173293865E+02  0.000000000E+00  0.00000E+00  9.000E+00
      21    -1     0     0   501   502  0.000000000E+00  0.000000000E+00 -1.181649347E+02  1.181649347E+02  0.000000000E+00  0.00000E+00  9.000E+00
      25     1     1     2     0     0 -7.833556590E+01 -9.976452331E+01  6.069768542E+02  6.325625048E+02  1.250000000E+02  0.00000E+00  9.000E+00
      25     1     1     2     0     0  7.463161035E+01  1.055372590E+02 -2.766343677E+01  1.819292611E+02  1.250000000E+02  0.00000E+00  9.000E+00
      21     1     1     2   501   511  3.703955546E+00 -5.772735667E+00  1.985103446E+01  2.100255539E+01  0.000000000E+00  0.00000E+00  9.000E+00
#rwgt            1           1   2.6599190259046255E-002           2      317926           0
</event>
<event>
      5   9999  3.19816E-02  3.02932E+01 -1.00000E+00  1.52747E-01
      21    -1     0     0   502   501  0.000000000E+00  0.000000000E+00  5.008695407E+02  5.008695407E+02  0.000000000E+00  0.00000E+00  9.000E+00
      21    -1     0     0   501   512  0.000000000E+00  0.000000000E+00 -1.468087761E+02  1.468087761E+02  0.000000000E+00  0.00000E+00  9.000E+00
      25     1     1     2     0     0  3.551975055E+01 -8.342448706E+01 -5.896453182E+01  1.652970470E+02  1.250000000E+02  0.00000E+00  9.000E+00
      25     1     1     2     0     0 -6.117160910E+01  6.731051960E+01  4.230999707E+02  4.504567205E+02  1.250000000E+02  0.00000E+00  9.000E+00
      21     1     1     2   502   512  2.565185855E+01  1.611396745E+01 -1.007467420E+01  3.192454940E+01  6.419616708E-07  0.00000E+00  9.000E+00
#rwgt            1           1   3.2712748790879057E-002           2      318239           0
</event>
<event>
      5   9999  3.19816E-02  2.00791E+02 -1.00000E+00  1.11586E-01
       2    -1     0     0   502     0  0.000000000E+00  0.000000000E+00  3.383251972E+03  3.383251972E+03  0.000000000E+00  0.00000E+00  9.000E+00
      21    -1     0     0   501   502  0.000000000E+00  0.000000000E+00 -2.909879148E+01  2.909879148E+01  0.000000000E+00  0.00000E+00  9.000E+00
      25     1     1     2     0     0 -6.770796920E+01  9.130520995E+01  1.013474020E+03  1.027460754E+03  1.250000000E+02  0.00000E+00  9.000E+00
      25     1     1     2     0     0  2.056616294E+02  5.459112474E+01  1.044960737E+03  1.073706123E+03  1.250000000E+02  0.00000E+00  9.000E+00
       2     1     1     2   501     0 -1.379536602E+02 -1.458963347E+02  1.295718423E+03  1.311183886E+03  2.157918644E-05  0.00000E+00  9.000E+00
#rwgt            2          18   3.6742824042837086E-003           2      318419           0
</event>
<event>
      5   9999  3.19816E-02  1.82453E+02 -1.00000E+00  1.13119E-01
      21    -1     0     0   502   501  0.000000000E+00  0.000000000E+00  7.302379867E+02  7.302379867E+02  0.000000000E+00  0.00000E+00  9.000E+00
      21    -1     0     0   501   511  0.000000000E+00  0.000000000E+00 -9.686304793E+02  9.686304793E+02  0.000000000E+00  0.00000E+00  9.000E+00
      25     1     1     2     0     0  3.656494073E+01 -5.294360968E+02  1.649175961E+02  5.696160014E+02  1.250000000E+02  0.00000E+00  9.000E+00
      25     1     1     2     0     0 -2.784826840E+01  7.116809851E+02 -4.181090779E+01  7.243193375E+02  1.250000000E+02  0.00000E+00  9.000E+00
      21     1     1     2   502   511 -8.716672333E+00 -1.822448883E+02 -3.614991809E+02  4.049331272E+02  0.000000000E+00  0.00000E+00  9.000E+00
#rwgt            1           1   2.9976501486435710E-002           2      318453           0
</event>
<event>
      5   9999  3.19816E-02  9.77625E+01 -1.00000E+00  1.24272E-01
      21    -1     0     0   502   501  0.000000000E+00  0.000000000E+00  2.419200916E+02  2.419200916E+02  0.000000000E+00  0.00000E+00  9.000E+00
      21    -1     0     0   501   512  0.000000000E+00  0.000000000E+00 -3.038234804E+02  3.038234804E+02  0.000000000E+00  0.00000E+00  9.000E+00
      25     1     1     2     0     0 -4.789112273E+01  6.030917821E+01 -1.504748175E+02  2.102342201E+02  1.250000000E+02  0.00000E+00  9.000E+00
      25     1     1     2     0     0  8.069429518E+01 -1.524039746E+02  1.031763201E+02  2.366619821E+02  1.250000000E+02  0.00000E+00  9.000E+00
      21     1     1     2   502   512 -3.280317245E+01  9.209479642E+01 -1.460489132E+01  9.884736972E+01  1.488923549E-06  0.00000E+00  9.000E+00
#rwgt            1           1   3.1128450222709332E-002           2      318511           0
</event>
<event>
      5   9999  3.19816E-02  2.77244E+01 -1.00000E+00  1.55458E-01
      21    -1     0     0   511   501  0.000000000E+00  0.000000000E+00  3.499401043E+03  3.499401043E+03  0.000000000E+00  0.00000E+00  9.000E+00
      21    -1     0     0   501   502  0.000000000E+00  0.000000000E+00 -1.245670591E+02  1.245670591E+02  0.000000000E+00  0.00000E+00  9.000E+00
      25     1     1     2     0     0  1.806645202E+02  2.194737748E+01  1.908565545E+02  2.918434180E+02  1.250000000E+02  0.00000E+00  9.000E+00
      25     1     1     2     0     0 -1.562119983E+02 -8.881460411E+00  6.145925758E+01  2.094834339E+02  1.250000000E+02  0.00000E+00  9.000E+00
      21     1     1     2   511   502 -2.445252191E+01 -1.306591707E+01  3.122518172E+03  3.122641250E+03  4.315837288E-05  0.00000E+00  9.000E+00
#rwgt            1           1   2.2869257490220871E-002           2      318582           0
</event>
<event>
      5   9999  3.19816E-02  2.16079E+02 -1.00000E+00  1.10439E-01
      21    -1     0     0   502   512  0.000000000E+00  0.000000000E+00  5.468803088E+02  5.468803088E+02  0.000000000E+00  0.00000E+00  9.000E+00
      21    -1     0     0   501   502  0.000000000E+00  0.000000000E+00 -1.382115172E+03  1.382115172E+03  0.000000000E+00  0.00000E+00  9.000E+00
      25     1     1     2     0     0 -1.072761978E+02 -3.406341392E+02 -7.845152893E+02  8.709931334E+02  1.250000000E+02  0.00000E+00  9.000E+00
      25     1     1     2     0     0  2.920682293E+02  4.526252537E+02 -3.751265831E+02  6.682203411E+02  1.250000000E+02  0.00000E+00  9.000E+00
      21     1     1     2   501   512 -1.847920315E+02 -1.119911145E+02  3.244070092E+02  3.897820061E+02  3.814697266E-06  0.00000E+00  9.000E+00
#rwgt            2          11   4.6279933725735132E-003           2      318962           0
</event>
<event>
      5   9999  3.19816E-02  1.07043E+01 -1.00000E+00  1.92401E-01
      21    -1     0     0   502   511  0.000000000E+00  0.000000000E+00  1.580188915E+02  1.580188915E+02  0.000000000E+00  0.00000E+00  9.000E+00
      21    -1     0     0   501   502  0.000000000E+00  0.000000000E+00 -3.789736257E+02  3.789736257E+02  0.000000000E+00  0.00000E+00  9.000E+00
      25     1     1     2     0     0 -1.943355729E+01 -5.645259484E+00 -3.329576718E+02  3.562237264E+02  1.250000000E+02  0.00000E+00  9.000E+00
      25     1     1     2     0     0  2.221502106E+01  1.598187134E+01  9.043965083E+01  1.566947919E+02  1.250000000E+02  0.00000E+00  9.000E+00
      21     1     1     2   501   511 -2.781463772E+00 -1.033661185E+01  2.156328672E+01  2.407399882E+01  4.129530925E-07  0.00000E+00  9.000E+00
#rwgt            1           1   3.1660466769236374E-002           2      318982           0
</event>
<event>
      5   9999  3.19816E-02  2.64288E+02 -1.00000E+00  1.07412E-01
       1    -1     0     0   502     0  0.000000000E+00  0.000000000E+00  9.512224172E+02  9.512224172E+02  0.000000000E+00  0.00000E+00  9.000E+00
      21    -1     0     0   501   502  0.000000000E+00  0.000000000E+00 -5.694040292E+02  5.694040292E+02  0.000000000E+00  0.00000E+00  9.000E+00
      25     1     1     2     0     0  1.075532146E+02  4.741146262E+02 -2.326440933E+02  5.532636324E+02  1.250000000E+02  0.00000E+00  9.000E+00
      25     1     1     2     0     0 -1.288706394E+02 -2.106881975E+02 -2.252747050E+01  2.777222447E+02  1.250000000E+02  0.00000E+00  9.000E+00
       1     1     1     2   501     0  2.131742483E+01 -2.634264287E+02  6.369899519E+02  6.896405692E+02  1.321449896E-05  0.00000E+00  9.000E+00
#rwgt            2          17   7.5350462232190896E-004           2      319182           0
</event>
<event>
      5   9999  3.19816E-02  1.02020E+02 -1.00000E+00  1.23438E-01
      21    -1     0     0   502   511  0.000000000E+00  0.000000000E+00  2.956244346E+02  2.956244346E+02  0.000000000E+00  0.00000E+00  9.000E+00
      21    -1     0     0   501   502  0.000000000E+00  0.000000000E+00 -2.878303902E+02  2.878303902E+02  0.000000000E+00  0.00000E+00  9.000E+00
      25     1     1     2     0     0 -1.164144753E+02 -3.538370570E+01  1.024794974E+02  2.023150614E+02  1.250000000E+02  0.00000E+00  9.000E+00
      25     1     1     2     0     0  2.036158480E+02 -1.756973290E+01 -1.307579240E+02  2.729299246E+02  1.250000000E+02  0.00000E+00  9.000E+00
      21     1     1     2   501   511 -8.720137262E+01  5.295343860E+01  3.607247101E+01  1.082098388E+02  1.261592536E-06  0.00000E+00  9.000E+00
#rwgt            1           1   2.6143375182078835E-002           2      319201           0
</event>
<event>
      5   9999  3.19816E-02  1.95314E+02 -1.00000E+00  1.12024E-01
      21    -1     0     0   502   501  0.000000000E+00  0.000000000E+00  2.751225312E+03  2.751225312E+03  0.000000000E+00  0.00000E+00  9.000E+00
      21    -1     0     0   501   512  0.000000000E+00  0.000000000E+00 -1.207884451E+03  1.207884451E+03  0.000000000E+00  0.00000E+00  9.000E+00
      25     1     1     2     0     0  2.711349949E+02  1.313992060E+03 -4.902826121E+02  1.433907723E+03  1.250000000E+02  0.00000E+00  9.000E+00
      25     1     1     2     0     0 -3.900765517E+02 -1.159070686E+03  1.965632326E+03  2.318391687E+03  1.250000000E+02  0.00000E+00  9.000E+00
      21     1     1     2   502   512  1.189415567E+02 -1.549213735E+02  6.799114719E+01  2.068103527E+02  5.722045898E-06  0.00000E+00  9.000E+00
#rwgt            1           1   2.3897417516473667E-002           2      319261           0
</event>
<event>
      5   9999  3.19816E-02  5.96088E+00 -1.00000E+00  2.25914E-01
      21    -1     0     0   502   501  0.000000000E+00  0.000000000E+00  2.060334202E+03  2.060334202E+03  0.000000000E+00  0.00000E+00  9.000E+00
      21    -1     0     0   511   502  0.000000000E+00  0.000000000E+00 -1.191620331E+02  1.191620331E+02  0.000000000E+00  0.00000E+00  9.000E+00
      25     1     1     2     0     0 -1.195362386E+02  1.021770133E+02  1.003159571E+03  1.023075354E+03  1.250000000E+02  0.00000E+00  9.000E+00
      25     1     1     2     0     0  1.240394899E+02 -9.827152077E+01  1.037418017E+03  1.056836898E+03  1.250000000E+02  0.00000E+00  9.000E+00
      21     1     1     2   511   501 -4.503251279E+00 -3.905492558E+00 -9.940541984E+01  9.958398284E+01  4.473129043E-06  0.00000E+00  9.000E+00
#rwgt            1           1   7.3288209615277058E-002           2      319341           0
</event>
<event>
      5   9999  3.19816E-02  5.64742E+01 -1.00000E+00  1.36124E-01
      21    -1     0     0   502   501  0.000000000E+00  0.000000000E+00  3.570688936E+02  3.570688936E+02  0.000000000E+00  0.00000E+00  9.000E+00
      21    -1     0     0   512   502  0.000000000E+00  0.000000000E+00 -3.095490631E+02  3.095490631E+02  0.000000000E+00  0.00000E+00  9.000E+00
      25     1     1     2     0     0  1.603840473E+00  1.506009439E+02  2.473627629E+02  3.154307421E+02  1.250000000E+02  0.00000E+00  9.000E+00
      25     1     1     2     0     0 -5.768016198E+01 -1.572930511E+02 -8.980608184E+01  2.275043677E+02  1.250000000E+02  0.00000E+00  9.000E+00
      21     1     1     2   512   501  5.607632151E+01  6.692107222E+00 -1.100368506E+02  1.236828469E+02  1.907348633E-06  0.00000E+00  9.000E+00
#rwgt            1           1   2.9443748170133035E-002           2      319581           0
</event>
<event>
      5   9999  3.19816E-02  7.38866E+01 -1.00000E+00  1.30043E-01
      21    -1     0     0   502   501  0.000000000E+00  0.000000000E+00  1.831160677E+03  1.831160677E+03  0.000000000E+00  0.00000E+00  9.000E+00
       2    -1     0     0   501     0  0.000000000E+00  0.000000000E+00 -1.749520074E+03  1.749520074E+03  0.000000000E+00  0.00000E+00  9.000E+00
      25     1     1     2     0     0 -4.290537328E+02  2.133692054E+02  1.639299943E+03  1.712466884E+03  1.250000000E+02  0.00000E+00  9.000E+00
      25     1     1     2     0     0  4.105845465E+02 -1.418282213E+02 -1.767759557E+02  4.853551820E+02  1.250000000E+02  0.00000E+00  9.000E+00
       2     1     1     2   502     0  1.846918628E+01 -7.154098408E+01 -1.380883384E+03  1.382858685E+03  2.157918644E-05  0.00000E+00  9.000E+00
#rwgt            2          13   6.3626570895742645E-003           2      319732           0
</event>
<event>
      5   9999  3.19816E-02  1.27201E+02 -1.00000E+00  1.19304E-01
      21    -1     0     0   502   511  0.000000000E+00  0.000000000E+00  1.213319233E+03  1.213319233E+03  0.000000000E+00  0.00000E+00  9.000E+00
      21    -1     0     0   501   502  0.000000000E+00  0.000000000E+00 -5.794994165E+02  5.794994165E+02  0.000000000E+00  0.00000E+00  9.000E+00
      25     1     1     2     0     0  7.416347901E+01 -1.489052776E+02  2.596612447E+02  3.327491026E+02  1.250000000E+02  0.00000E+00  9.000E+00
      25     1     1     2     0     0 -1.025218510E+02  2.490531812E+01 -5.260623960E+02  5.509062073E+02  1.250000000E+02  0.00000E+00  9.000E+00
      21     1     1     2   501   511  2.835837196E+01  1.239999595E+02  9.002209677E+02  9.091633395E+02  0.000000000E+00  0.00000E+00  9.000E+00
#rwgt            1           1   2.8292550450582859E-002           2      319751           0
</event>
<event>
      5   9999  3.19816E-02  3.30138E+01 -1.00000E+00  1.50207E-01
      21    -1     0     0   512   501  0.000000000E+00  0.000000000E+00  2.560089066E+02  2.560089066E+02  0.000000000E+00  0.00000E+00  9.000E+00
      21    -1     0     0   501   502  0.000000000E+00  0.000000000E+00 -1.774622546E+03  1.774622546E+03  0.000000000E+00  0.00000E+00  9.000E+00
      25     1     1     2     0     0 -1.719232992E+02 -1.765855664E+02 -3.205741058E+02  4.232408775E+02  1.250000000E+02  0.00000E+00  9.000E+00
      25     1     1     2     0     0  1.928283830E+02  2.021373045E+02 -1.384554232E+03  1.417976620E+03  1.250000000E+02  0.00000E+00  9.000E+00
      21     1     1     2   512   502 -2.090508379E+01 -2.555173810E+01  1.865146978E+02  1.894139550E+02  6.031565972E-06  0.00000E+00  9.000E+00
#rwgt            1           1   2.8997604814754638E-002           2      319807           0
</event>
<event>
      5   9999  3.24364E-02  6.02433E+01 -1.00000E+00  1.34610E-01
      21    -1     0     0   502   511  0.000000000E+00  0.000000000E+00  3.363775141E+02  3.363775141E+02  0.000000000E+00  0.00000E+00  9.000E+00
      21    -1     0     0   501   502  0.000000000E+00  0.000000000E+00 -1.770374028E+03  1.770374028E+03  0.000000000E+00  0.00000E+00  9.000E+00
      25     1     1     2     0     0 -6.728153669E+02  1.425067277E+02 -6.881633233E+02  9.809089891E+02  1.250000000E+02  0.00000E+00  9.000E+00
      25     1     1     2     0     0  7.284331633E+02 -1.656566109E+02 -7.493966618E+02  1.065493943E+03  1.250000000E+02  0.00000E+00  9.000E+00
      21     1     1     2   501   511 -5.561779637E+01  2.314988323E+01  3.563471364E+00  6.034860971E+01  1.332133808E-06  0.00000E+00  9.000E+00
#rwgt            1           1   3.2863012386570030E-002           2      319941           0
</event>
<event>
      5   9999  3.19816E-02  3.20501E+01 -1.00000E+00  1.51072E-01
      21    -1     0     0   502   501  0.000000000E+00  0.000000000E+00  1.046497603E+03  1.046497603E+03  0.000000000E+00  0.00000E+00  9.000E+00
       2    -1     0     0   501     0  0.000000000E+00  0.000000000E+00 -2.462470444E+02  2.462470444E+02  0.000000000E+00  0.00000E+00  9.000E+00
      25     1     1     2     0     0 -1.464855247E+01 -4.007476218E+02  7.002810809E+02  8.165977154E+02  1.250000000E+02  0.00000E+00  9.000E+00
      25     1     1     2     0     0  1.485635209E+01  3.686982003E+02  1.493808078E+02  4.172513629E+02  1.250000000E+02  0.00000E+00  9.000E+00
       2     1     1     2   502     0 -2.077996250E-01  3.204942156E+01 -4.941132971E+01  5.889556950E+01  1.348699152E-06  0.00000E+00  9.000E+00
#rwgt            1           1   3.1366150378800084E-002           2      320128           0
</event>
<event>
      5   9999  6.06393E-02  1.22653E+02 -1.00000E+00  1.19967E-01
      21    -1     0     0   502   501  0.000000000E+00  0.000000000E+00  7.402445009E+02  7.402445009E+02  0.000000000E+00  0.00000E+00  9.000E+00
      21    -1     0     0   511   502  0.000000000E+00  0.000000000E+00 -1.385811242E+03  1.385811242E+03  0.000000000E+00  0.00000E+00  9.000E+00
      25     1     1     2     0     0 -7.384869100E+01 -1.638266069E+01  4.632768520E+02  4.857699685E+02  1.250000000E+02  0.00000E+00  9.000E+00
      25     1     1     2     0     0  1.618469087E+02 -6.905723160E+01  2.185905374E+02  3.071972431E+02  1.250000000E+02  0.00000E+00  9.000E+00
      21     1     1     2   511   501 -8.799821771E+01  8.543989230E+01 -1.327434131E+03  1.333088532E+03  2.157918644E-05  0.00000E+00  9.000E+00
#rwgt            2          11  0.14561135946102194                2      320472           0
</event>
<event>
      5   9999  3.19816E-02  1.80282E+02 -1.00000E+00  1.13314E-01
      21    -1     0     0   502   501  0.000000000E+00  0.000000000E+00  4.252688737E+02  4.252688737E+02  0.000000000E+00  0.00000E+00  9.000E+00
      21    -1     0     0   501   512  0.000000000E+00  0.000000000E+00 -2.332858869E+03  2.332858869E+03  0.000000000E+00  0.00000E+00  9.000E+00
      25     1     1     2     0     0 -3.595284641E+01 -2.317102291E+02  3.424056019E+02  4.334153131E+02  1.250000000E+02  0.00000E+00  9.000E+00
      25     1     1     2     0     0 -8.018105482E+01  3.696028888E+02 -1.694848963E+03  1.741026508E+03  1.250000000E+02  0.00000E+00  9.000E+00
      21     1     1     2   502   512  1.161339012E+02 -1.378926597E+02 -5.551466351E+02  5.836859216E+02  0.000000000E+00  0.00000E+00  9.000E+00
#rwgt            1           1   1.6811281932340771E-002           2      320507           0
</event>
<event>
      5   9999  3.19816E-02  4.31853E+01 -1.00000E+00  1.42806E-01
      21    -1     0     0   511   501  0.000000000E+00  0.000000000E+00  4.499035072E+02  4.499035072E+02  0.000000000E+00  0.00000E+00  9.000E+00
      21    -1     0     0   501   502  0.000000000E+00  0.000000000E+00 -1.177090170E+02  1.177090170E+02  0.000000000E+00  0.00000E+00  9.000E+00
      25     1     1     2     0     0 -1.780100216E+01 -3.068012701E+01 -5.706792382E+01  1.419150936E+02  1.250000000E+02  0.00000E+00  9.000E+00
      25     1     1     2     0     0  2.814798132E+01 -1.124734890E+01  3.050403511E+02  3.310489805E+02  1.250000000E+02  0.00000E+00  9.000E+00
      21     1     1     2   511   502 -1.034697916E+01  4.192747590E+01  8.422206293E+01  9.464845005E+01  0.000000000E+00  0.00000E+00  9.000E+00
#rwgt            1           1   3.1186414491634788E-002           2      320563           0
</event>
<event>
      5   9999  3.19816E-02  1.12150E+02 -1.00000E+00  1.21629E-01
      -1    -1     0     0     0   501  0.000000000E+00  0.000000000E+00  5.580898189E+02  5.580898189E+02  0.000000000E+00  0.00000E+00  9.000E+00
      21    -1     0     0   501   502  0.000000000E+00  0.000000000E+00 -9.296517539E+02  9.296517539E+02  0.000000000E+00  0.00000E+00  9.000E+00
      25     1     1     2     0     0  2.176356414E+02 -1.130191309E+02 -6.490760863E+02  7.050272067E+02  1.250000000E+02  0.00000E+00  9.000E+00
      25     1     1     2     0     0 -1.498348182E+02  2.368507177E+01 -2.069608460E+02  2.854281821E+02  1.250000000E+02  0.00000E+00  9.000E+00
      -1     1     1     2     0   502 -6.780082328E+01  8.933405915E+01  4.844749973E+02  4.972861840E+02  9.344061824E-06  0.00000E+00  9.000E+00
#rwgt            1           1   3.0217909687155403E-002           2      320661           0
</event>
<event>
      5   9999  3.19816E-02  8.39738E+01 -1.00000E+00  1.27339E-01
      21    -1     0     0   502   501  0.000000000E+00  0.000000000E+00  3.155926079E+02  3.155926079E+02  0.000000000E+00  0.00000E+00  9.000E+00
      21    -1     0     0   511   502  0.000000000E+00  0.000000000E+00 -3.857010078E+02  3.857010078E+02  0.000000000E+00  0.00000E+00  9.000E+00
      25     1     1     2     0     0  4.515404822E+01 -2.874619752E+02  4.816251786E+01  3.203402931E+02  1.250000000E+02  0.00000E+00  9.000E+00
      25     1     1     2     0     0  1.200146551E+01  2.259408620E+02 -3.183914452E+01  2.604458474E+02  1.250000000E+02  0.00000E+00  9.000E+00
      21     1     1     2   511   501 -5.715551373E+01  6.152111319E+01 -8.643177325E+01  1.205074751E+02  1.348699152E-06  0.00000E+00  9.000E+00
#rwgt            1           1   2.7834681118213422E-002           2      320718           0
</event>
<event>
      5   9999  3.19816E-02  2.48119E+02 -1.00000E+00  1.08342E-01
      21    -1     0     0   502   512  0.000000000E+00  0.000000000E+00  4.332100365E+02  4.332100365E+02  0.000000000E+00  0.00000E+00  9.000E+00
      21    -1     0     0   501   502  0.000000000E+00  0.000000000E+00 -4.606609714E+02  4.606609714E+02  0.000000000E+00  0.00000E+00  9.000E+00
      25     1     1     2     0     0 -1.445245236E+02  4.274698247E+01  1.522702903E+02  2.480441165E+02  1.250000000E+02  0.00000E+00  9.000E+00
      25     1     1     2     0     0  1.167076251E+02  2.038075420E+02 -2.725832275E+02  3.808999867E+02  1.250000000E+02  0.00000E+00  9.000E+00
      21     1     1     2   501   512  2.781689844E+01 -2.465545245E+02  9.286200235E+01  2.649269047E+02  5.878843310E-06  0.00000E+00  9.000E+00
#rwgt            2          11   3.7604699836105105E-003           2      320962           0
</event>
<event>
      5   9999  3.19816E-02  1.88446E+01 -1.00000E+00  1.68530E-01
      21    -1     0     0   502   511  0.000000000E+00  0.000000000E+00  2.125339354E+02  2.125339354E+02  0.000000000E+00  0.00000E+00  9.000E+00
      21    -1     0     0   501   502  0.000000000E+00  0.000000000E+00 -3.110055464E+03  3.110055464E+03  0.000000000E+00  0.00000E+00  9.000E+00
      25     1     1     2     0     0 -1.095174438E+02  6.932695363E+02 -9.970392184E+02  1.225695282E+03  1.250000000E+02  0.00000E+00  9.000E+00
      25     1     1     2     0     0  1.237903884E+02 -7.055740712E+02 -1.929678089E+03  2.062144844E+03  1.250000000E+02  0.00000E+00  9.000E+00
      21     1     1     2   501   511 -1.427294462E+01  1.230453493E+01  2.919577882E+01  3.474927379E+01  7.539457465E-07  0.00000E+00  9.000E+00
#rwgt            1           1   6.7074635074281463E-002           2      320997           0
</event>
<event>
      5   9999  3.19816E-02  1.21133E+02 -1.00000E+00  1.20195E-01
       1    -1     0     0   502     0  0.000000000E+00  0.000000000E+00  1.218334654E+03  1.218334654E+03  0.000000000E+00  0.00000E+00  9.000E+00
      21    -1     0     0   501   502  0.000000000E+00  0.000000000E+00 -1.817957326E+03  1.817957326E+03  0.000000000E+00  0.00000E+00  9.000E+00
      25     1     1     2     0     0 -7.263231332E+02 -4.230981805E+02 -3.703012011E+02  9.269872403E+02  1.250000000E+02  0.00000E+00  9.000E+00
      25     1     1     2     0     0  8.434362189E+02  3.921512134E+02 -9.753237391E+02  1.353531908E+03  1.250000000E+02  0.00000E+00  9.000E+00
       1     1     1     2   501     0 -1.171130858E+02  3.094696713E+01  7.460022683E+02  7.557728322E+02  1.078959322E-05  0.00000E+00  9.000E+00
#rwgt            1           1   2.3184312331714176E-002           2      321226           0
</event>
<event>
      5   9999  3.19816E-02  4.99009E+00 -1.00000E+00  2.42716E-01
      21    -1     0     0   502   501  0.000000000E+00  0.000000000E+00  2.878256636E+02  2.878256636E+02  0.000000000E+00  0.00000E+00  9.000E+00
      21    -1     0     0   511   502  0.000000000E+00  0.000000000E+00 -1.130593960E+03  1.130593960E+03  0.000000000E+00  0.00000E+00  9.000E+00
      25     1     1     2     0     0 -3.438332778E+02 -1.893045345E+02  6.837328068E+01  4.175612952E+02  1.250000000E+02  0.00000E+00  9.000E+00
      25     1     1     2     0     0  3.406756967E+02  1.854405080E+02 -9.071020076E+02  9.944381150E+02  1.250000000E+02  0.00000E+00  9.000E+00
      21     1     1     2   511   501  3.157581128E+00  3.864026450E+00 -4.039569422E+00  6.420213400E+00  8.429369702E-08  0.00000E+00  9.000E+00
#rwgt            1           1   2.4309384382027042E-002           2      321350           0
</event>
<event>
      5   9999  3.19816E-02  3.39629E+01 -1.00000E+00  1.49389E-01
      21    -1     0     0   502   501  0.000000000E+00  0.000000000E+00  1.567620704E+02  1.567620704E+02  0.000000000E+00  0.00000E+00  9.000E+00
      21    -1     0     0   501   512  0.000000000E+00  0.000000000E+00 -6.751798764E+02  6.751798764E+02  0.000000000E+00  0.00000E+00  9.000E+00
      25     1     1     2     0     0  1.970082643E+02 -1.751381728E+02 -2.539085075E+02  3.867559514E+02  1.250000000E+02  0.00000E+00  9.000E+00
      25     1     1     2     0     0 -2.181804490E+02  2.016940348E+02 -2.251164200E+02  3.931737460E+02  1.250000000E+02  0.00000E+00  9.000E+00
      21     1     1     2   502   512  2.117218469E+01 -2.655586203E+01 -3.939287850E+01  5.201224941E+01  8.259061849E-07  0.00000E+00  9.000E+00
#rwgt            1           1   2.7566519834599831E-002           2      321780           0
</event>
<event>
      5   9999  3.19816E-02  1.77057E+02 -1.00000E+00  1.13609E-01
      21    -1     0     0   502   511  0.000000000E+00  0.000000000E+00  1.000021016E+03  1.000021016E+03  0.000000000E+00  0.00000E+00  9.000E+00
      21    -1     0     0   501   502  0.000000000E+00  0.000000000E+00 -8.899461337E+02  8.899461337E+02  0.000000000E+00  0.00000E+00  9.000E+00
      25     1     1     2     0     0  4.078071793E+01  4.313448114E+02 -7.406328510E+02  8.671121227E+02  1.250000000E+02  0.00000E+00  9.000E+00
      25     1     1     2     0     0 -1.795388013E+02 -3.213661581E+02  5.425751094E+02  6.674751966E+02  1.250000000E+02  0.00000E+00  9.000E+00
      21     1     1     2   501   511  1.387580834E+02 -1.099786534E+02  3.081326237E+02  3.553798302E+02  3.814697266E-06  0.00000E+00  9.000E+00
#rwgt            2          11   4.2654217751195841E-003           2      321957           0
</event>
<event>
      5   9999  3.19816E-02  3.90659E+01 -1.00000E+00  1.45479E-01
      21    -1     0     0   502   501  0.000000000E+00  0.000000000E+00  8.668248292E+02  8.668248292E+02  0.000000000E+00  0.00000E+00  9.000E+00
      21    -1     0     0   512   502  0.000000000E+00  0.000000000E+00 -4.121160928E+02  4.121160928E+02  0.000000000E+00  0.00000E+00  9.000E+00
      25     1     1     2     0     0 -3.003919459E+02  8.172100686E+01  1.684415203E+02  3.753813926E+02  1.250000000E+02  0.00000E+00  9.000E+00
      25     1     1     2     0     0  3.220038289E+02 -4.917765962E+01  5.421486380E+02  6.447131561E+02  1.250000000E+02  0.00000E+00  9.000E+00
      21     1     1     2   512   501 -2.161188299E+01 -3.254334724E+01 -2.558814219E+02  2.588463734E+02  0.000000000E+00  0.00000E+00  9.000E+00
#rwgt            1           1   2.5301439053105376E-002           2      321992           0
</event>
<event>
      5   9999  3.19816E-02  5.52852E+01 -1.00000E+00  1.36631E-01
      21    -1     0     0   502   501  0.000000000E+00  0.000000000E+00  4.070954296E+01  4.070954296E+01  0.000000000E+00  0.00000E+00  9.000E+00
      21    -1     0     0   511   502  0.000000000E+00  0.000000000E+00 -2.325241999E+03  2.325241999E+03  0.000000000E+00  0.00000E+00  9.000E+00
      25     1     1     2     0     0 -2.751319178E+01  2.375342611E+01 -6.048284856E+02  6.186789943E+02  1.250000000E+02  0.00000E+00  9.000E+00
      25     1     1     2     0     0  2.950208510E+01 -7.900279829E+01 -1.374642676E+02  2.040422506E+02  1.250000000E+02  0.00000E+00  9.000E+00
      21     1     1     2   511   501 -1.988893318E+00  5.524937217E+01 -1.542239703E+03  1.543230297E+03  0.000000000E+00  0.00000E+00  9.000E+00
#rwgt            1           1   3.1293745894450158E-002           2      322134           0
</event>
<event>
      5   9999  3.19816E-02  1.85018E+02 -1.00000E+00  1.12893E-01
      21    -1     0     0   512   501  0.000000000E+00  0.000000000E+00  6.860941070E+02  6.860941070E+02  0.000000000E+00  0.00000E+00  9.000E+00
      21    -1     0     0   501   502  0.000000000E+00  0.000000000E+00 -5.715680641E+02  5.715680641E+02  0.000000000E+00  0.00000E+00  9.000E+00
      25     1     1     2     0     0 -1.295941044E+02 -5.630507555E+02 -1.315053664E+02  6.055901638E+02  1.250000000E+02  0.00000E+00  9.000E+00
      25     1     1     2     0     0  9.944224633E+01  3.805059508E+02  2.120276874E+02  4.639550400E+02  1.250000000E+02  0.00000E+00  9.000E+00
      21     1     1     2   512   502  3.015185805E+01  1.825448047E+02  3.400372185E+01  1.881169673E+02  3.784777609E-06  0.00000E+00  9.000E+00
#rwgt            1           1   3.1117445473456792E-002           2      322199           0
</event>
<event>
      5   9999  3.19816E-02  2.06827E+01 -1.00000E+00  1.65175E-01
      21    -1     0     0   502   501  0.000000000E+00  0.000000000E+00  5.832865657E+02  5.832865657E+02  0.000000000E+00  0.00000E+00  9.000E+00
      21    -1     0     0   501   511  0.000000000E+00  0.000000000E+00 -1.101567384E+02  1.101567384E+02  0.000000000E+00  0.00000E+00  9.000E+00
      25     1     1     2     0     0  4.717572880E+00 -1.002452857E+02  1.120238107E+02  1.955650965E+02  1.250000000E+02  0.00000E+00  9.000E+00
      25     1     1     2     0     0 -2.899362570E+00  7.964265229E+01  4.147167903E+02  4.404161379E+02  1.250000000E+02  0.00000E+00  9.000E+00
      21     1     1     2   502   511 -1.818210310E+00  2.060263338E+01 -5.361077376E+01  5.746206970E+01  6.743495762E-07  0.00000E+00  9.000E+00
#rwgt            1           1   3.5048115325483867E-002           2      322247           0
</event>
<event>
      5   9999  3.19816E-02  2.10291E+02 -1.00000E+00  1.10860E-01
      21    -1     0     0   502   501  0.000000000E+00  0.000000000E+00  3.969349163E+02  3.969349163E+02  0.000000000E+00  0.00000E+00  9.000E+00
       2    -1     0     0   501     0  0.000000000E+00  0.000000000E+00 -1.526615236E+03  1.526615236E+03  0.000000000E+00  0.00000E+00  9.000E+00
      25     1     1     2     0     0 -3.704245243E+02  5.222467027E+02 -2.944970647E+02  7.157579673E+02  1.250000000E+02  0.00000E+00  9.000E+00
      25     1     1     2     0     0  1.740241351E+02 -5.974080650E+02 -4.828134560E+02  7.974425553E+02  1.250000000E+02  0.00000E+00  9.000E+00
       2     1     1     2   502     0  1.964003892E+02  7.516136226E+01 -3.523697989E+02  4.103496295E+02  5.394796609E-06  0.00000E+00  9.000E+00
#rwgt            1           1   3.3563981865960317E-002           2      322367           0
</event>
<event>
      5   9999  3.19816E-02  2.15786E+02 -1.00000E+00  1.10460E-01
      -3    -1     0     0     0   501  0.000000000E+00  0.000000000E+00  9.422263218E+02  9.422263218E+02  0.000000000E+00  0.00000E+00  9.000E+00
      21    -1     0     0   501   502  0.000000000E+00  0.000000000E+00 -1.406774343E+02  1.406774343E+02  0.000000000E+00  0.00000E+00  9.000E+00
      25     1     1     2     0     0 -2.734570014E+02 -1.152549061E+01  1.665681208E+02  3.439207865E+02  1.250000000E+02  0.00000E+00  9.000E+00
      25     1     1     2     0     0  7.437606489E+01 -7.172240288E+01  2.663028120E+02  3.117981555E+02  1.250000000E+02  0.00000E+00  9.000E+00
      -3     1     1     2     0   502  1.990809365E+02  8.324789349E+01  3.686779548E+02  4.271848141E+02  7.629394531E-06  0.00000E+00  9.000E+00
#rwgt            2           3   4.1754051155317362E-005           2      322437           0
</event>
<event>
      5   9999  3.19816E-02  1.27547E+01 -1.00000E+00  1.84285E-01
      21    -1     0     0   502   511  0.000000000E+00  0.000000000E+00  2.090729430E+02  2.090729430E+02  0.000000000E+00  0.00000E+00  9.000E+00
      21    -1     0     0   501   502  0.000000000E+00  0.000000000E+00 -4.782343375E+02  4.782343375E+02  0.000000000E+00  0.00000E+00  9.000E+00
      25     1     1     2     0     0  1.148439411E+02 -1.429363327E+02 -3.639328066E+02  4.262534619E+02  1.250000000E+02  0.00000E+00  9.000E+00
      25     1     1     2     0     0 -1.084354187E+02  1.539641883E+02  1.001378970E+02  2.472161195E+02  1.250000000E+02  0.00000E+00  9.000E+00
      21     1     1     2   501   511 -6.408522379E+00 -1.102785564E+01 -5.366484859E+00  1.383769919E+01  1.788139343E-07  0.00000E+00  9.000E+00
#rwgt            1           1   2.8034240952282168E-002           2      322486           0
</event>
<event>
      5   9999  3.19816E-02  2.20677E+02 -1.00000E+00  1.10114E-01
      21    -1     0     0   502   512  0.000000000E+00  0.000000000E+00  8.703321005E+01  8.703321005E+01  0.000000000E+00  0.00000E+00  9.000E+00
      21    -1     0     0   501   502  0.000000000E+00  0.000000000E+00 -1.556867201E+03  1.556867201E+03  0.000000000E+00  0.00000E+00  9.000E+00
      25     1     1     2     0     0 -2.021111639E+02  3.339093544E+01 -9.315485127E+02  9.619623219E+02  1.250000000E+02  0.00000E+00  9.000E+00
      25     1     1     2     0     0 -5.936805241E+00 -1.069738673E+02 -1.037999840E+02  1.946229447E+02  1.250000000E+02  0.00000E+00  9.000E+00
      21     1     1     2   501   512  2.080479692E+02  7.358293181E+01 -4.344854942E+02  4.873151444E+02  7.629394531E-06  0.00000E+00  9.000E+00
#rwgt            1           1   3.2358312350962974E-002           2      322687           0
</event>
<event>
      5   9999  3.19816E-02  1.71021E+01 -1.00000E+00  1.72181E-01
      21    -1     0     0   502   511  0.000000000E+00  0.000000000E+00  1.278989015E+02  1.278989015E+02  0.000000000E+00  0.00000E+00  9.000E+00
      21    -1     0     0   501   502  0.000000000E+00  0.000000000E+00 -7.061851900E+02  7.061851900E+02  0.000000000E+00  0.00000E+00  9.000E+00
      25     1     1     2     0     0 -1.013772780E+02  1.913861053E+02 -1.327057050E+02  2.830932672E+02  1.250000000E+02  0.00000E+00  9.000E+00
      25     1     1     2     0     0  9.015962344E+01 -2.042952607E+02 -4.614492797E+02  5.276606381E+02  1.250000000E+02  0.00000E+00  9.000E+00
      21     1     1     2   501   511  1.121765454E+01  1.290915535E+01  1.586869627E+01  2.333018617E+01  7.725644944E-07  0.00000E+00  9.000E+00
#rwgt            1           1   2.8996173908739011E-002           2      322733           0
</event>
<event>
      5   9999  3.19816E-02  1.23345E+02 -1.00000E+00  1.19864E-01
      21    -1     0     0   502   501  0.000000000E+00  0.000000000E+00  2.597115684E+02  2.597115684E+02  0.000000000E+00  0.00000E+00  9.000E+00
      21    -1     0     0   501   512  0.000000000E+00  0.000000000E+00 -2.196100868E+02  2.196100868E+02  0.000000000E+00  0.00000E+00  9.000E+00
      25     1     1     2     0     0 -1.813222910E+01 -3.185511230E+01  8.323680825E+01  1.545861965E+02  1.250000000E+02  0.00000E+00  9.000E+00
      25     1     1     2     0     0  1.323612238E+02  7.839249271E+01 -1.980836330E+01  1.992040355E+02  1.250000000E+02  0.00000E+00  9.000E+00
      21     1     1     2   502   512 -1.142289947E+02 -4.653738041E+01 -2.332696331E+01  1.255314233E+02  1.305872339E-06  0.00000E+00  9.000E+00
#rwgt            1           1   2.4242456899538183E-002           2      322930           0
</event>
<event>
      5   9999  3.19816E-02  2.72067E+01 -1.00000E+00  1.56048E-01
      21    -1     0     0   502   501  0.000000000E+00  0.000000000E+00  2.218958230E+02  2.218958230E+02  0.000000000E+00  0.00000E+00  9.000E+00
      21    -1     0     0   501   511  0.000000000E+00  0.000000000E+00 -1.987576623E+03  1.987576623E+03  0.000000000E+00  0.00000E+00  9.000E+00
      25     1     1     2     0     0  6.192896685E+02 -5.453545597E+01 -1.051856444E+03  1.228218542E+03  1.250000000E+02  0.00000E+00  9.000E+00
      25     1     1     2     0     0 -6.256104948E+02  2.807321473E+01 -6.468504536E+02  9.089648540E+02  1.250000000E+02  0.00000E+00  9.000E+00
      21     1     1     2   502   511  6.320826310E+00  2.646224125E+01 -6.697390287E+01  7.228904981E+01  9.536743164E-07  0.00000E+00  9.000E+00
#rwgt            1           1   2.4061737404118152E-002           2      322999           0
</event>
<event>
      5   9999  3.19816E-02  4.32964E+01 -1.00000E+00  1.42739E-01
      21    -1     0     0   512   501  0.000000000E+00  0.000000000E+00  1.518879433E+02  1.518879433E+02  0.000000000E+00  0.00000E+00  9.000E+00
      21    -1     0     0   501   502  0.000000000E+00  0.000000000E+00 -1.520371407E+03  1.520371407E+03  0.000000000E+00  0.00000E+00  9.000E+00
      25     1     1     2     0     0  2.907283615E+02  4.557503173E+01 -2.111136836E+02  3.831371179E+02  1.250000000E+02  0.00000E+00  9.000E+00
      25     1     1     2     0     0 -2.502073962E+02 -6.082724975E+01 -1.196805795E+03  1.230557925E+03  1.250000000E+02  0.00000E+00  9.000E+00
      21     1     1     2   512   502 -4.052096539E+01  1.525221802E+01  3.943601519E+01  5.856430726E+01  1.507891493E-06  0.00000E+00  9.000E+00
#rwgt            1           1   2.7954973622549811E-002           2      323148           0
</event>
<event>
      5   9999  3.19816E-02  3.33414E+01 -1.00000E+00  1.49921E-01
      21    -1     0     0   502   501  0.000000000E+00  0.000000000E+00  2.687832493E+02  2.687832493E+02  0.000000000E+00  0.00000E+00  9.000E+00
       1    -1     0     0   501     0  0.000000000E+00  0.000000000E+00 -6.006764239E+02  6.006764239E+02  0.000000000E+00  0.00000E+00  9.000E+00
      25     1     1     2     0     0  2.564946299E+01  1.740199356E+02  9.723731768E+01  2.366874075E+02  1.250000000E+02  0.00000E+00  9.000E+00
      25     1     1     2     0     0 -4.003124915E+01 -2.041000410E+02 -4.450990642E+01  2.467092609E+02  1.250000000E+02  0.00000E+00  9.000E+00
       1     1     1     2   502     0  1.438178617E+01  3.008010545E+01 -3.846205859E+02  3.860630047E+02  7.629394531E-06  0.00000E+00  9.000E+00
#rwgt            1           1   2.6460022222106885E-002           2      323255           0
</event>
<event>
      5   9999  3.19816E-02  2.55147E+01 -1.00000E+00  1.58091E-01
      21    -1     0     0   502   501  0.000000000E+00  0.000000000E+00  7.411878864E+02  7.411878864E+02  0.000000000E+00  0.00000E+00  9.000E+00
      21    -1     0     0   511   502  0.000000000E+00  0.000000000E+00 -3.488018417E+02  3.488018417E+02  0.000000000E+00  0.00000E+00  9.000E+00
      25     1     1     2     0     0 -9.038604036E+01 -8.201588668E+01  6.935298112E+02  7.151956662E+02  1.250000000E+02  0.00000E+00  9.000E+00
      25     1     1     2     0     0  1.135336823E+02  9.274834876E+01 -2.348668951E+02  3.037755942E+02  1.250000000E+02  0.00000E+00  9.000E+00
      21     1     1     2   511   501 -2.314764195E+01 -1.073246208E+01 -6.627687146E+01  7.101846774E+01  1.348699152E-06  0.00000E+00  9.000E+00
#rwgt            1           1   2.7920481876194853E-002           2      323359           0
</event>
<event>
      5   9999  3.19816E-02  7.02464E+01 -1.00000E+00  1.31143E-01
      21    -1     0     0   512   501  0.000000000E+00  0.000000000E+00  1.181460326E+02  1.181460326E+02  0.000000000E+00  0.00000E+00  9.000E+00
      21    -1     0     0   501   502  0.000000000E+00  0.000000000E+00 -1.299354579E+03  1.299354579E+03  0.000000000E+00  0.00000E+00  9.000E+00
      25     1     1     2     0     0  1.048115820E+02 -2.221537531E+02 -5.650252953E+02  6.286623435E+02  1.250000000E+02  0.00000E+00  9.000E+00
      25     1     1     2     0     0 -1.723320198E+02  2.027747715E+02 -6.481081701E+02  7.116776891E+02  1.250000000E+02  0.00000E+00  9.000E+00
      21     1     1     2   512   502  6.752043779E+01  1.937898168E+01  3.192491930E+01  7.716057881E+01  2.360223517E-06  0.00000E+00  9.000E+00
#rwgt            1           1   2.7121301233415374E-002           2      323531           0
</event>
<event>
      5   9999  3.19816E-02  2.43801E+01 -1.00000E+00  1.59572E-01
      21    -1     0     0   511   501  0.000000000E+00  0.000000000E+00  7.530780883E+02  7.530780883E+02  0.000000000E+00  0.00000E+00  9.000E+00
      21    -1     0     0   501   502  0.000000000E+00  0.000000000E+00 -1.171061702E+02  1.171061702E+02  0.000000000E+00  0.00000E+00  9.000E+00
      25     1     1     2     0     0  2.175722632E+02 -1.332929783E+02  2.416770035E+02  3.730113695E+02  1.250000000E+02  0.00000E+00  9.000E+00
      25     1     1     2     0     0 -2.233099069E+02  1.095976433E+02  3.652811707E+02  4.592758339E+02  1.250000000E+02  0.00000E+00  9.000E+00
      21     1     1     2   511   502  5.737643730E+00  2.369533499E+01  2.901374385E+01  3.789705514E+01  8.920806376E-07  0.00000E+00  9.000E+00
#rwgt            1           1   1.8743737087978836E-002           2      323627           0
</event>
<event>
      5   9999  3.19816E-02  9.84916E+01 -1.00000E+00  1.24126E-01
      21    -1     0     0   502   501  0.000000000E+00  0.000000000E+00  1.068389561E+03  1.068389561E+03  0.000000000E+00  0.00000E+00  9.000E+00
      -3    -1     0     0     0   502  0.000000000E+00  0.000000000E+00 -3.406613898E+02  3.406613898E+02  0.000000000E+00  0.00000E+00  9.000E+00
      25     1     1     2     0     0  3.462055355E+02  2.474704258E+01  3.944352483E+02  5.400693048E+02  1.250000000E+02  0.00000E+00  9.000E+00
      25     1     1     2     0     0 -4.422373067E+02 -4.662142314E+01  4.966326230E+02  6.782450551E+02  1.250000000E+02  0.00000E+00  9.000E+00
      -3     1     1     2     0   501  9.603177119E+01  2.187438057E+01 -1.633396998E+02  1.907365910E+02  3.303624740E-06  0.00000E+00  9.000E+00
#rwgt            1           1   3.1802690558900962E-002           2      323754           0
</event>
<event>
      5   9999  3.19816E-02  5.07541E+01 -1.00000E+00  1.38706E-01
      21    -1     0     0   502   501  0.000000000E+00  0.000000000E+00  4.249646797E+02  4.249646797E+02  0.000000000E+00  0.00000E+00  9.000E+00
      21    -1     0     0   501   511  0.000000000E+00  0.000000000E+00 -3.397250302E+02  3.397250302E+02  0.000000000E+00  0.00000E+00  9.000E+00
      25     1     1     2     0     0 -1.708292358E+02 -2.533161240E+02  6.500229877E+01  3.364550272E+02  1.250000000E+02  0.00000E+00  9.000E+00
      25     1     1     2     0     0  1.878323258E+02  3.011374058E+02  2.585113247E+01  3.771710498E+02  1.250000000E+02  0.00000E+00  9.000E+00
      21     1     1     2   502   511 -1.700308995E+01 -4.782128177E+01 -5.613781715E+00  5.106363289E+01  6.822063412E-07  0.00000E+00  9.000E+00
#rwgt            1           1   2.8491515428619319E-002           2      323868           0
</event>
<event>
      5   9999  3.26309E-02  4.03806E+01 -1.00000E+00  1.44586E-01
      21    -1     0     0   502   501  0.000000000E+00  0.000000000E+00  2.508787486E+02  2.508787486E+02  0.000000000E+00  0.00000E+00  9.000E+00
      21    -1     0     0   501   512  0.000000000E+00  0.000000000E+00 -7.029251834E+02  7.029251834E+02  0.000000000E+00  0.00000E+00  9.000E+00
      25     1     1     2     0     0  2.834518708E+02  2.214503001E+02 -5.328575496E+01  3.845121196E+02  1.250000000E+02  0.00000E+00  9.000E+00
      25     1     1     2     0     0 -2.470183669E+02 -2.388627833E+02 -3.651669131E+02  5.167643343E+02  1.250000000E+02  0.00000E+00  9.000E+00
      21     1     1     2   502   512 -3.643350392E+01  1.741248321E+01 -3.359376681E+01  5.252747803E+01  4.768371582E-07  0.00000E+00  9.000E+00
#rwgt            1           1   3.0884247626183033E-002           2      323961           0
</event>
<event>
      5   9999  3.19816E-02  2.99427E+01 -1.00000E+00  1.53098E-01
      21    -1     0     0   502   501  0.000000000E+00  0.000000000E+00  2.533957393E+03  2.533957393E+03  0.000000000E+00  0.00000E+00  9.000E+00
      21    -1     0     0   501   511  0.000000000E+00  0.000000000E+00 -1.274574401E+02  1.274574401E+02  0.000000000E+00  0.00000E+00  9.000E+00
      25     1     1     2     0     0  4.373572641E+01 -3.675555457E+02  9.977841634E+02  1.071544740E+03  1.250000000E+02  0.00000E+00  9.000E+00
      25     1     1     2     0     0 -1.408169793E+01  3.717031412E+02  1.470100319E+03  1.521572038E+03  1.250000000E+02  0.00000E+00  9.000E+00
      21     1     1     2   502   511 -2.965402848E+01 -4.147595463E+00 -6.138452913E+01  6.829805538E+01  2.023048729E-06  0.00000E+00  9.000E+00
#rwgt            1           1   6.8056223915095665E-002           2      324049           0
</event>
<event>
      5   9999  3.19816E-02  2.02966E+02 -1.00000E+00  1.11416E-01
      21    -1     0     0   512   501  0.000000000E+00  0.000000000E+00  5.653086794E+02  5.653086794E+02  0.000000000E+00  0.00000E+00  9.000E+00
      21    -1     0     0   501   502  0.000000000E+00  0.000000000E+00 -2.856772620E+02  2.856772620E+02  0.000000000E+00  0.00000E+00  9.000E+00
      25     1     1     2     0     0  2.590445315E+02 -8.032240684E+01  2.809862639E+02  4.100415087E+02  1.250000000E+02  0.00000E+00  9.000E+00
      25     1     1     2     0     0 -1.449925159E+02 -8.756857069E+01 -7.726802362E+01  2.242463639E+02  1.250000000E+02  0.00000E+00  9.000E+00
      21     1     1     2   512   502 -1.140520156E+02  1.678909775E+02  7.591317706E+01  2.166980689E+02  2.697398305E-06  0.00000E+00  9.000E+00
#rwgt            2          11   3.5987894693641693E-003           2      324250           0
</event>
<event>
      5   9999  3.19816E-02  6.20808E+01 -1.00000E+00  1.33917E-01
      -1    -1     0     0     0   501  0.000000000E+00  0.000000000E+00  2.214600614E+03  2.214600614E+03  0.000000000E+00  0.00000E+00  9.000E+00
      21    -1     0     0   501   502  0.000000000E+00  0.000000000E+00 -1.179433815E+03  1.179433815E+03  0.000000000E+00  0.00000E+00  9.000E+00
      25     1     1     2     0     0  2.845084607E+02  2.440016830E+02 -3.923748813E+02  5.568347447E+02  1.250000000E+02  0.00000E+00  9.000E+00
      25     1     1     2     0     0 -3.408559815E+02 -2.700588769E+02 -6.316926759E+02  7.770297510E+02  1.250000000E+02  0.00000E+00  9.000E+00
      -1     1     1     2     0   502  5.634752080E+01  2.605719397E+01  2.059234356E+03  2.060169933E+03  0.000000000E+00  0.00000E+00  9.000E+00
#rwgt            1           1   3.0527694084879105E-002           2      324270           0
</event>
<event>
      5   9999  3.19816E-02  6.47755E+01 -1.00000E+00  1.32950E-01
      21    -1     0     0   502   501  0.000000000E+00  0.000000000E+00  1.038393328E+03  1.038393328E+03  0.000000000E+00  0.00000E+00  9.000E+00
      21    -1     0     0   501   511  0.000000000E+00  0.000000000E+00 -1.007252103E+02  1.007252103E+02  0.000000000E+00  0.00000E+00  9.000E+00
      25     1     1     2     0     0 -3.832640875E+01  1.796959856E+02  8.094684252E+02  8.394186633E+02  1.250000000E+02  0.00000E+00  9.000E+00
      25     1     1     2     0     0  7.647449227E+01 -1.273452912E+02  5.463394605E+01  2.016805375E+02  1.250000000E+02  0.00000E+00  9.000E+00
      21     1     1     2   502   511 -3.814808352E+01 -5.235069444E+01  7.356574658E+01  9.801933766E+01  9.536743164E-07  0.00000E+00  9.000E+00
#rwgt            1           1   2.7826204841547183E-002           2      324329           0
</event>
<event>
      5   9999  3.19816E-02  1.54577E+01 -1.00000E+00  1.76163E-01
      -5    -1     0     0     0   501  0.000000000E+00  0.000000000E+00  9.917843000E+01  9.917843000E+01  0.000000000E+00  0.00000E+00  9.000E+00
      21    -1     0     0   501   502  0.000000000E+00  0.000000000E+00 -1.558070461E+03  1.558070461E+03  0.000000000E+00  0.00000E+00  9.000E+00
      25     1     1     2     0     0 -6.049499162E+01  9.166670632E+01 -1.099061184E+03  1.111585766E+03  1.250000000E+02  0.00000E+00  9.000E+00
      25     1     1     2     0     0  5.675738424E+01 -7.666769454E+01 -4.383179735E+02  4.656683175E+02  1.250000000E+02  0.00000E+00  9.000E+00
      -5     1     1     2     0   502  3.737607379E+00 -1.499901178E+01  7.848712691E+01  7.999480704E+01  1.651812370E-06  0.00000E+00  9.000E+00
#rwgt            1           1   2.4630317034482145E-002           2      324404           0
</event>
<event>
      5   9999  3.19816E-02  1.32009E+02 -1.00000E+00  1.18636E-01
      21    -1     0     0   511   501  0.000000000E+00  0.000000000E+00  4.090717026E+02  4.090717026E+02  0.000000000E+00  0.00000E+00  9.000E+00
      21    -1     0     0   501   502  0.000000000E+00  0.000000000E+00 -6.404124845E+02  6.404124845E+02  0.000000000E+00  0.00000E+00  9.000E+00
      25     1     1     2     0     0  1.552868143E+02 -6.851307807E+00 -3.583945126E+02  4.101616288E+02  1.250000000E+02  0.00000E+00  9.000E+00
      25     1     1     2     0     0 -2.366521802E+02 -9.710064440E+01 -1.576953317E+02  3.254621440E+02  1.250000000E+02  0.00000E+00  9.000E+00
      21     1     1     2   511   502  8.136536592E+01  1.039519522E+02  2.847490623E+02  3.138604142E+02  6.607249480E-06  0.00000E+00  9.000E+00
#rwgt            1           1   2.6679375040488076E-002           2      324521           0
</event>
<event>
      5   9999  3.19816E-02  6.05829E+01 -1.00000E+00  1.34479E-01
      21    -1     0     0   512   501  0.000000000E+00  0.000000000E+00  1.220661142E+02  1.220661142E+02  0.000000000E+00  0.00000E+00  9.000E+00
      21    -1     0     0   501   502  0.000000000E+00  0.000000000E+00 -6.200325736E+02  6.200325736E+02  0.000000000E+00  0.00000E+00  9.000E+00
      25     1     1     2     0     0  6.889546923E+01  8.137144637E+01 -3.024038924E+00  1.643229831E+02  1.250000000E+02  0.00000E+00  9.000E+00
      25     1     1     2     0     0 -9.096393251E+00 -7.165783174E+01 -4.966106021E+02  5.171698748E+02  1.250000000E+02  0.00000E+00  9.000E+00
      21     1     1     2   512   502 -5.979907598E+01 -9.713614636E+00  1.668181589E+00  6.060582997E+01  7.140128941E-07  0.00000E+00  9.000E+00
#rwgt            1           1   2.6809010492727617E-002           2      324584           0
</event>
<event>
      5   9999  3.19816E-02  2.00627E+01 -1.00000E+00  1.66257E-01
      21    -1     0     0   502   501  0.000000000E+00  0.000000000E+00  4.236781152E+02  4.236781152E+02  0.000000000E+00  0.00000E+00  9.000E+00
      21    -1     0     0   511   502  0.000000000E+00  0.000000000E+00 -3.666724976E+02  3.666724976E+02  0.000000000E+00  0.00000E+00  9.000E+00
      25     1     1     2     0     0  3.188542458E+02 -1.228622549E+02  1.448545651E+02  3.916261083E+02  1.250000000E+02  0.00000E+00  9.000E+00
      25     1     1     2     0     0 -3.115648789E+02  1.415538411E+02 -6.822732653E+01  3.706617485E+02  1.250000000E+02  0.00000E+00  9.000E+00
      21     1     1     2   511   501 -7.289366858E+00 -1.869158627E+01 -1.962162099E+01  2.806275604E+01  2.384185791E-07  0.00000E+00  9.000E+00
#rwgt            1           1   2.7784189511030167E-002           2      324650           0
</event>
<event>
      5   9999  3.19816E-02  1.36487E+02 -1.00000E+00  1.18042E-01
      21    -1     0     0   502   501  0.000000000E+00  0.000000000E+00  8.848422579E+01  8.848422579E+01  0.000000000E+00  0.00000E+00  9.000E+00
      21    -1     0     0   512   502  0.000000000E+00  0.000000000E+00 -1.301129150E+03  1.301129150E+03  0.000000000E+00  0.00000E+00  9.000E+00
      25     1     1     2     0     0  1.495434437E+02 -2.984126164E+01 -3.822235247E+02  4.300855325E+02  1.250000000E+02  0.00000E+00  9.000E+00
      25     1     1     2     0     0 -2.843050622E+02  5.147244772E+01 -4.063114318E+02  5.139968491E+02  1.250000000E+02  0.00000E+00  9.000E+00
      21     1     1     2   512   501  1.347616185E+02 -2.163118608E+01 -4.241099681E+02  4.455309945E+02  5.394796609E-06  0.00000E+00  9.000E+00
#rwgt            1           1   2.1913414063052934E-002           2      324920           0
</event>
<event>
      5   9999  3.19816E-02  2.33689E+01 -1.00000E+00  1.60977E-01
      21    -1     0     0   502   501  0.000000000E+00  0.000000000E+00  4.338081463E+02  4.338081463E+02  0.000000000E+00  0.00000E+00  9.000E+00
      21    -1     0     0   501   511  0.000000000E+00  0.000000000E+00 -2.589438219E+02  2.589438219E+02  0.000000000E+00  0.00000E+00  9.000E+00
      25     1     1     2     0     0 -1.169958150E+02 -2.410344938E+02  3.424897450E+01  2.976300391E+02  1.250000000E+02  0.00000E+00  9.000E+00
      25     1     1     2     0     0  9.684710218E+01  2.291965533E+02  1.922996507E+02  3.384000250E+02  1.250000000E+02  0.00000E+00  9.000E+00
      21     1     1     2   502   511  2.014871279E+01  1.183794047E+01 -5.168430072E+01  5.672190408E+01  0.000000000E+00  0.00000E+00  9.000E+00
#rwgt            1           1   3.1595301923649760E-002           2      325007           0
</event>
<event>
      5   9999  3.19816E-02  3.09648E+02 -1.00000E+00  1.05147E-01
      21    -1     0     0   512   501  0.000000000E+00  0.000000000E+00  9.130638949E+02  9.130638949E+02  0.000000000E+00  0.00000E+00  9.000E+00
      21    -1     0     0   501   502  0.000000000E+00  0.000000000E+00 -8.965817302E+02  8.965817302E+02  0.000000000E+00  0.00000E+00  9.000E+00
      25     1     1     2     0     0 -1.003929518E+02  1.412298794E+02 -6.509280186E+02  6.850962772E+02  1.250000000E+02  0.00000E+00  9.000E+00
      25     1     1     2     0     0 -1.558168805E+02 -3.151213141E+02 -1.685524008E+01  3.734828537E+02  1.250000000E+02  0.00000E+00  9.000E+00
      21     1     1     2   512   502  2.562098323E+02  1.738914347E+02  6.842654234E+02  7.510664943E+02  0.000000000E+00  0.00000E+00  9.000E+00
#rwgt            1           1   2.8370949338871396E-002           2      325107           0
</event>
<event>
      5   9999  3.19816E-02  3.83291E+01 -1.00000E+00  1.45999E-01
       2    -1     0     0   502     0  0.000000000E+00  0.000000000E+00  2.866835051E+03  2.866835051E+03  0.000000000E+00  0.00000E+00  9.000E+00
      21    -1     0     0   501   502  0.000000000E+00  0.000000000E+00 -3.635563925E+01  3.635563925E+01  0.000000000E+00  0.00000E+00  9.000E+00
      25     1     1     2     0     0 -3.682918648E+01 -8.538438435E+01  6.130002589E+02  6.324881022E+02  1.250000000E+02  0.00000E+00  9.000E+00
      25     1     1     2     0     0  4.198388022E+01  1.233652994E+02  2.820963786E+02  3.349403083E+02  1.250000000E+02  0.00000E+00  9.000E+00
       2     1     1     2   501     0 -5.154693740E+00 -3.798091503E+01  1.935382775E+03  1.935762280E+03  3.051757812E-05  0.00000E+00  9.000E+00
#rwgt            1           1   2.6893772307842571E-002           2      325145           0
</event>
<event>
      5   9999  3.24971E-02  1.75125E+01 -1.00000E+00  1.71273E-01
      21    -1     0     0   502   501  0.000000000E+00  0.000000000E+00  1.817990623E+02  1.817990623E+02  0.000000000E+00  0.00000E+00  9.000E+00
      21    -1     0     0   501   511  0.000000000E+00  0.000000000E+00 -2.352956692E+02  2.352956692E+02  0.000000000E+00  0.00000E+00  9.000E+00
      25     1     1     2     0     0 -5.298590824E+01  7.319910018E+01  9.779784268E+01  1.826336025E+02  1.250000000E+02  0.00000E+00  9.000E+00
      25     1     1     2     0     0  7.047051993E+01 -7.418666378E+01 -1.383068356E+02  2.126582612E+02  1.250000000E+02  0.00000E+00  9.000E+00
      21     1     1     2   502   511 -1.748461169E+01  9.875635948E-01 -1.298761393E+01  2.180286778E+01  4.129530925E-07  0.00000E+00  9.000E+00
#rwgt            1           1   2.7272961919962285E-002           2      325235           0
</event>
<event>
      5   9999  3.19816E-02  1.48967E+02 -1.00000E+00  1.16513E-01
      21    -1     0     0   502   512  0.000000000E+00  0.000000000E+00  2.672985440E+02  2.672985440E+02  0.000000000E+00  0.00000E+00  9.000E+00
      21    -1     0     0   501   502  0.000000000E+00  0.000000000E+00 -5.462034791E+02  5.462034791E+02  0.000000000E+00  0.00000E+00  9.000E+00
      25     1     1     2     0     0  6.258136463E+01  1.928525178E+02 -3.218407070E+02  4.003935083E+02  1.250000000E+02  0.00000E+00  9.000E+00
      25     1     1     2     0     0 -4.708808895E+01 -4.469339309E+01 -1.252140895E+02  1.884631415E+02  1.250000000E+02  0.00000E+00  9.000E+00
      21     1     1     2   501   512 -1.549327568E+01 -1.481591248E+02  1.681498613E+02  2.246453732E+02  1.907348633E-06  0.00000E+00  9.000E+00
#rwgt            2          11   4.8799208787349505E-003           2      325357           0
</event>
<event>
      5   9999  3.19816E-02  1.61556E+02 -1.00000E+00  1.15130E-01
      21    -1     0     0   502   511  0.000000000E+00  0.000000000E+00  1.537193987E+03  1.537193987E+03  0.000000000E+00  0.00000E+00  9.000E+00
      21    -1     0     0   501   502  0.000000000E+00  0.000000000E+00 -3.627129400E+02  3.627129400E+02  0.000000000E+00  0.00000E+00  9.000E+00
      25     1     1     2     0     0 -7.671486464E+01 -7.468072794E+01 -3.092477499E+02  3.503163604E+02  1.250000000E+02  0.00000E+00  9.000E+00
      25     1     1     2     0     0  1.979794778E+02 -3.206724823E+01  1.200368730E+03  1.223410916E+03  1.250000000E+02  0.00000E+00  9.000E+00
      21     1     1     2   501   511 -1.212646132E+02  1.067479762E+02  2.833600673E+02  3.261796508E+02  3.814697266E-06  0.00000E+00  9.000E+00
#rwgt            1           1   2.9130736108794138E-002           2      325407           0
</event>
<event>
      5   9999  3.19816E-02  2.23392E+02 -1.00000E+00  1.09927E-01
      21    -1     0     0   502   512  0.000000000E+00  0.000000000E+00  1.215090393E+03  1.215090393E+03  0.000000000E+00  0.00000E+00  9.000E+00
      21    -1     0     0   501   502  0.000000000E+00  0.000000000E+00 -9.250050982E+01  9.250050982E+01  0.000000000E+00  0.00000E+00  9.000E+00
      25     1     1     2     0     0  1.627099731E+02  4.819306197E+01  2.039187993E+02  2.932660622E+02  1.250000000E+02  0.00000E+00  9.000E+00
      25     1     1     2     0     0 -1.357362450E+00  1.063032141E+02  1.844828174E+02  2.469030694E+02  1.250000000E+02  0.00000E+00  9.000E+00
      21     1     1     2   501   512 -1.613526106E+02 -1.544962761E+02  7.341882667E+02  7.674217714E+02  1.078959322E-05  0.00000E+00  9.000E+00
#rwgt            2          11   3.2013391055775394E-003           2      325599           0
</event>
<event>
      5   9999  3.19816E-02  1.89896E+01 -1.00000E+00  1.68248E-01
      21    -1     0     0   511   501  0.000000000E+00  0.000000000E+00  4.102867109E+03  4.102867109E+03  0.000000000E+00  0.00000E+00  9.000E+00
      21    -1     0     0   501   502  0.000000000E+00  0.000000000E+00 -7.714813663E+01  7.714813663E+01  0.000000000E+00  0.00000E+00  9.000E+00
      25     1     1     2     0     0 -2.646647462E+02  2.774188666E+01  1.380386466E+03  1.411350004E+03  1.250000000E+02  0.00000E+00  9.000E+00
      25     1     1     2     0     0  2.766168030E+02 -4.249829904E+01  3.194838978E+02  4.427391129E+02  1.250000000E+02  0.00000E+00  9.000E+00
      21     1     1     2   511   502 -1.195205676E+01  1.475641238E+01  2.325848609E+03  2.325926128E+03  0.000000000E+00  0.00000E+00  9.000E+00
#rwgt            1           1   3.2367147488503487E-002           2      325679           0
</event>
<event>
      5   9999  3.19816E-02  2.12103E+01 -1.00000E+00  1.64291E-01
      21    -1     0     0   502   501  0.000000000E+00  0.000000000E+00  4.706060458E+01  4.706060458E+01  0.000000000E+00  0.00000E+00  9.000E+00
      21    -1     0     0   512   502  0.000000000E+00  0.000000000E+00 -1.671755316E+03  1.671755316E+03  0.000000000E+00  0.00000E+00  9.000E+00
      25     1     1     2     0     0  2.343510963E+02 -5.806360457E+01 -8.198854102E+02  8.637875343E+02  1.250000000E+02  0.00000E+00  9.000E+00
      25     1     1     2     0     0 -2.237548622E+02  3.968984715E+01 -6.679616209E+02  7.165467531E+02  1.250000000E+02  0.00000E+00  9.000E+00
      21     1     1     2   512   501 -1.059623407E+01  1.837375742E+01 -1.368476807E+02  1.384816337E+02  2.697398305E-06  0.00000E+00  9.000E+00
#rwgt            1           1   3.4595005959625426E-002           2      325875           0
</event>
<event>
      5   9999  3.19816E-02  1.79689E+01 -1.00000E+00  1.70300E-01
      -5    -1     0     0     0   501  0.000000000E+00  0.000000000E+00  7.710438976E+02  7.710438976E+02  0.000000000E+00  0.00000E+00  9.000E+00
      21    -1     0     0   501   502  0.000000000E+00  0.000000000E+00 -1.034203631E+03  1.034203631E+03  0.000000000E+00  0.00000E+00  9.000E+00
      25     1     1     2     0     0  5.867427048E+02 -4.773247695E+02 -9.296567036E+01  7.722522600E+02  1.250000000E+02  0.00000E+00  9.000E+00
      25     1     1     2     0     0 -5.912998362E+02  4.599433134E+02 -3.613054390E+02  8.410410027E+02  1.250000000E+02  0.00000E+00  9.000E+00
      -5     1     1     2     0   502  4.557131456E+00  1.738145603E+01  1.911113756E+02  1.919542663E+02  0.000000000E+00  0.00000E+00  9.000E+00
#rwgt            1           1   3.5314509963702209E-002           2      326017           0
</event>
<event>
      5   9999  3.19816E-02  5.55172E+01 -1.00000E+00  1.36531E-01
      21    -1     0     0   502   501  0.000000000E+00  0.000000000E+00  5.491579125E+02  5.491579125E+02  0.000000000E+00  0.00000E+00  9.000E+00
      -1    -1     0     0     0   502  0.000000000E+00  0.000000000E+00 -9.600076173E+02  9.600076173E+02  0.000000000E+00  0.00000E+00  9.000E+00
      25     1     1     2     0     0  1.536588985E+02  4.906407846E+02  9.407013577E+01  5.374138323E+02  1.250000000E+02  0.00000E+00  9.000E+00
      25     1     1     2     0     0 -1.627633657E+02 -4.358752144E+02 -1.845081736E+01  4.821250340E+02  1.250000000E+02  0.00000E+00  9.000E+00
      -1     1     1     2     0   501  9.104467167E+00 -5.476557020E+01 -4.864690232E+02  4.896266635E+02  0.000000000E+00  0.00000E+00  9.000E+00
#rwgt            1           1   3.0695002384657121E-002           2      326176           0
</event>
<event>
      5   9999  3.19816E-02  7.63550E+01 -1.00000E+00  1.29337E-01
      21    -1     0     0   511   501  0.000000000E+00  0.000000000E+00  1.656678316E+02  1.656678316E+02  0.000000000E+00  0.00000E+00  9.000E+00
      21    -1     0     0   501   502  0.000000000E+00  0.000000000E+00 -4.253609213E+02  4.253609213E+02  0.000000000E+00  0.00000E+00  9.000E+00
      25     1     1     2     0     0 -1.047682817E+01  1.116719321E+02 -1.728692710E+01  1.688319347E+02  1.250000000E+02  0.00000E+00  9.000E+00
      25     1     1     2     0     0 -2.183403066E+01 -1.808535604E+02 -2.626415390E+02  3.432059341E+02  1.250000000E+02  0.00000E+00  9.000E+00
      21     1     1     2   511   502  3.231085883E+01  6.918162838E+01  2.023537642E+01  7.899088405E+01  1.907348633E-06  0.00000E+00  9.000E+00
#rwgt            1           1   2.7816559744837991E-002           2      326287           0
</event>
<event>
      5   9999  3.34751E-02  1.04993E+02 -1.00000E+00  1.22884E-01
      21    -1     0     0   502   501  0.000000000E+00  0.000000000E+00  2.255401942E+03  2.255401942E+03  0.000000000E+00  0.00000E+00  9.000E+00
      21    -1     0     0   512   502  0.000000000E+00  0.000000000E+00 -1.848047341E+02  1.848047341E+02  0.000000000E+00  0.00000E+00  9.000E+00
      25     1     1     2     0     0 -1.271701679E+02  1.702156304E+02  2.513652486E+02  3.520725787E+02  1.250000000E+02  0.00000E+00  9.000E+00
      25     1     1     2     0     0  1.935986356E+02 -8.890864472E+01  1.924011889E+03  1.939802034E+03  1.250000000E+02  0.00000E+00  9.000E+00
      21     1     1     2   512   501 -6.642846771E+01 -8.130698565E+01 -1.047799305E+02  1.483320635E+02  1.907348633E-06  0.00000E+00  9.000E+00
#rwgt            1           1   9.2962203609590732E-002           2      326340           0
</event>
<event>
      5   9999  3.19816E-02  4.83644E+01 -1.00000E+00  1.39905E-01
       2    -1     0     0   502     0  0.000000000E+00  0.000000000E+00  1.223003583E+03  1.223003583E+03  0.000000000E+00  0.00000E+00  9.000E+00
      21    -1     0     0   501   502  0.000000000E+00  0.000000000E+00 -9.651923606E+01  9.651923606E+01  0.000000000E+00  0.00000E+00  9.000E+00
      25     1     1     2     0     0 -3.414778081E+01 -1.844003042E+02  6.891083290E+02  7.250274700E+02  1.250000000E+02  0.00000E+00  9.000E+00
      25     1     1     2     0     0  6.648048418E+01  2.203684956E+02  1.474845547E+02  3.005971100E+02  1.250000000E+02  0.00000E+00  9.000E+00
       2     1     1     2   501     0 -3.233270338E+01 -3.596819139E+01  2.898914629E+02  2.938982387E+02  3.814697266E-06  0.00000E+00  9.000E+00
#rwgt            1           1   3.2881884285165482E-002           2      326392           0
</event>
<event>
      5   9999  3.19816E-02  3.89951E+01 -1.00000E+00  1.45529E-01
      21    -1     0     0   511   501  0.000000000E+00  0.000000000E+00  6.512538431E+01  6.512538431E+01  0.000000000E+00  0.00000E+00  9.000E+00
      21    -1     0     0   501   502  0.000000000E+00  0.000000000E+00 -1.875919236E+03  1.875919236E+03  0.000000000E+00  0.00000E+00  9.000E+00
      25     1     1     2     0     0  7.897794879E+00  2.869534246E+02 -1.152979364E+03  1.194734723E+03  1.250000000E+02  0.00000E+00  9.000E+00
      25     1     1     2     0     0  4.336053153E+00 -2.499270579E+02 -6.485865190E+02  7.062377845E+02  1.250000000E+02  0.00000E+00  9.000E+00
      21     1     1     2   511   502 -1.223384803E+01 -3.702636672E+01 -9.227968671E+00  4.007211344E+01  4.460403188E-07  0.00000E+00  9.000E+00
#rwgt            1           1   2.6892668134677816E-002           2      326485           0
</event>
<event>
      5   9999  3.57306E-02  3.91970E+01 -1.00000E+00  1.45389E-01
      21    -1     0     0   502   501  0.000000000E+00  0.000000000E+00  5.431935921E+01  5.431935921E+01  0.000000000E+00  0.00000E+00  9.000E+00
      21    -1     0     0   512   502  0.000000000E+00  0.000000000E+00 -9.665429751E+02  9.665429751E+02  0.000000000E+00  0.00000E+00  9.000E+00
      25     1     1     2     0     0  8.766626699E+01 -4.961893003E+01 -2.124875012E+02  2.663143833E+02  1.250000000E+02  0.00000E+00  9.000E+00
      25     1     1     2     0     0 -6.232682845E+01  7.952401138E+01 -2.160655209E+02  2.692916843E+02  1.250000000E+02  0.00000E+00  9.000E+00
      21     1     1     2   512   501 -2.533943854E+01 -2.990508135E+01 -4.836705938E+02  4.852562667E+02  5.394796609E-06  0.00000E+00  9.000E+00
#rwgt            1           1   9.4779295350293141E-002           2      326600           0
</event>
<event>
      5   9999  3.19816E-02  4.33591E+01 -1.00000E+00  1.42701E-01
      21    -1     0     0   502   501  0.000000000E+00  0.000000000E+00  3.680243605E+02  3.680243605E+02  0.000000000E+00  0.00000E+00  9.000E+00
      21    -1     0     0   511   502  0.000000000E+00  0.000000000E+00 -7.386306735E+02  7.386306735E+02  0.000000000E+00  0.00000E+00  9.000E+00
      25     1     1     2     0     0 -1.479370291E+02 -2.491196566E+02  2.311693442E+02  3.911652254E+02  1.250000000E+02  0.00000E+00  9.000E+00
      25     1     1     2     0     0  1.296779351E+02  2.884467333E+02 -5.606931182E+02  6.557588411E+02  1.250000000E+02  0.00000E+00  9.000E+00
      21     1     1     2   511   501  1.825909400E+01 -3.932707670E+01 -4.108253897E+01  5.973096754E+01  4.768371582E-07  0.00000E+00  9.000E+00
#rwgt            1           1   3.0606957708373884E-002           2      326691           0
</event>
<event>
      5   9999  3.19816E-02  5.51065E+01 -1.00000E+00  1.36708E-01
      21    -1     0     0   502   501  0.000000000E+00  0.000000000E+00  3.604983011E+02  3.604983011E+02  0.000000000E+00  0.00000E+00  9.000E+00
      21    -1     0     0   501   512  0.000000000E+00  0.000000000E+00 -7.641460797E+02  7.641460797E+02  0.000000000E+00  0.00000E+00  9.000E+00
      25     1     1     2     0     0 -3.217600434E+02  7.376397115E+01  1.909076526E+02  4.012996147E+02  1.250000000E+02  0.00000E+00  9.000E+00
      25     1     1     2     0     0  3.116530663E+02 -1.959221345E+01 -4.077443593E+02  5.285753977E+02  1.250000000E+02  0.00000E+00  9.000E+00
      21     1     1     2   502   512  1.010697711E+01 -5.417175771E+01 -1.868110718E+02  1.947693684E+02  2.697398305E-06  0.00000E+00  9.000E+00
#rwgt            1           1   2.6934924960321464E-002           2      326877           0
</event>
<event>
      5   9999  3.19816E-02  6.68995E+01 -1.00000E+00  1.32225E-01
      21    -1     0     0   502   501  0.000000000E+00  0.000000000E+00  3.662848976E+02  3.662848976E+02  0.000000000E+00  0.00000E+00  9.000E+00
      21    -1     0     0   501   511  0.000000000E+00  0.000000000E+00 -4.995506353E+02  4.995506353E+02  0.000000000E+00  0.00000E+00  9.000E+00
      25     1     1     2     0     0  3.567538953E+01  3.731447391E+02 -1.065596449E+02  4.092550399E+02  1.250000000E+02  0.00000E+00  9.000E+00
      25     1     1     2     0     0 -9.700090686E+01 -3.464104163E+02  8.610875219E+00  3.809310957E+02  1.250000000E+02  0.00000E+00  9.000E+00
      21     1     1     2   502   511  6.132551732E+01 -2.673432281E+01 -3.531696805E+01  7.564939738E+01  6.743495762E-07  0.00000E+00  9.000E+00
#rwgt            1           1   2.7336308797177831E-002           2      327005           0
</event>
<event>
      5   9999  3.19816E-02  3.26012E+02 -1.00000E+00  1.04432E-01
      21    -1     0     0   502   501  0.000000000E+00  0.000000000E+00  3.590393657E+02  3.590393657E+02  0.000000000E+00  0.00000E+00  9.000E+00
       1    -1     0     0   501     0  0.000000000E+00  0.000000000E+00 -1.556821004E+03  1.556821004E+03  0.000000000E+00  0.00000E+00  9.000E+00
      25     1     1     2     0     0 -1.746897396E+02  2.445079177E+02  1.275026162E+01  3.257118299E+02  1.250000000E+02  0.00000E+00  9.000E+00
      25     1     1     2     0     0  1.168977209E+02 -5.653569473E+02 -1.095195250E+03  1.244335642E+03  1.250000000E+02  0.00000E+00  9.000E+00
       1     1     1     2   502     0  5.779201873E+01  3.208490295E+02 -1.153366497E+02  3.458128973E+02  4.473129043E-06  0.00000E+00  9.000E+00
#rwgt            1           1   3.0325831733829894E-002           2      327105           0
</event>
<event>
      5   9999  3.19816E-02  1.22073E+02 -1.00000E+00  1.20053E-01
      21    -1     0     0   502   501  0.000000000E+00  0.000000000E+00  6.979091207E+02  6.979091207E+02  0.000000000E+00  0.00000E+00  9.000E+00
      21    -1     0     0   501   511  0.000000000E+00  0.000000000E+00 -4.746412065E+02  4.746412065E+02  0.000000000E+00  0.00000E+00  9.000E+00
      25     1     1     2     0     0 -9.853229334E+01  1.677640760E+02  3.306376116E+02  4.034843594E+02  1.250000000E+02  0.00000E+00  9.000E+00
      25     1     1     2     0     0  1.130231996E+01 -8.236623171E+01  3.044951620E+02  3.394911520E+02  1.250000000E+02  0.00000E+00  9.000E+00
      21     1     1     2   502   511  8.722997338E+01 -8.539784424E+01 -4.118648595E+02  4.295748160E+02  5.394796609E-06  0.00000E+00  9.000E+00
#rwgt            1           1   2.7775194523618017E-002           2      327149           0
</event>
<event>
      5   9999  3.19816E-02  3.64302E+01 -1.00000E+00  1.47404E-01
      21    -1     0     0   502   501  0.000000000E+00  0.000000000E+00  1.099949036E+02  1.099949036E+02  0.000000000E+00  0.00000E+00  9.000E+00
       2    -1     0     0   501     0  0.000000000E+00  0.000000000E+00 -1.014156706E+03  1.014156706E+03  0.000000000E+00  0.00000E+00  9.000E+00
      25     1     1     2     0     0 -1.878499733E+02 -8.017655790E+01 -1.181516006E+02  2.670218973E+02  1.250000000E+02  0.00000E+00  9.000E+00
      25     1     1     2     0     0  2.156010152E+02  5.657489534E+01 -4.371236578E+02  5.063463328E+02  1.250000000E+02  0.00000E+00  9.000E+00
       2     1     1     2   502     0 -2.775104183E+01  2.360166256E+01 -3.488865436E+02  3.507833792E+02  3.814697266E-06  0.00000E+00  9.000E+00
#rwgt            1           1   2.9925832328236781E-002           2      327199           0
</event>
<event>
      5   9999  3.19816E-02  1.18599E+02 -1.00000E+00  1.20585E-01
      21    -1     0     0   502   501  0.000000000E+00  0.000000000E+00  2.980002959E+02  2.980002959E+02  0.000000000E+00  0.00000E+00  9.000E+00
      21    -1     0     0   511   502  0.000000000E+00  0.000000000E+00 -1.277791064E+03  1.277791064E+03  0.000000000E+00  0.00000E+00  9.000E+00
      25     1     1     2     0     0  2.047374267E+02 -2.214451053E+02 -8.246411369E+02  8.869122579E+02  1.250000000E+02  0.00000E+00  9.000E+00
      25     1     1     2     0     0 -1.740976216E+02  3.360183938E+02  9.703885184E+01  4.101949312E+02  1.250000000E+02  0.00000E+00  9.000E+00
      21     1     1     2   511   501 -3.063980510E+01 -1.145732885E+02 -2.521884831E+02  2.786841709E+02  4.672030912E-06  0.00000E+00  9.000E+00
#rwgt            1           1   3.0071984487913435E-002           2      327271           0
</event>
<event>
      5   9999  3.19816E-02  7.65625E+01 -1.00000E+00  1.29280E-01
      21    -1     0     0   502   501  0.000000000E+00  0.000000000E+00  6.877544061E+02  6.877544061E+02  0.000000000E+00  0.00000E+00  9.000E+00
      21    -1     0     0   501   512  0.000000000E+00  0.000000000E+00 -6.370524508E+02  6.370524508E+02  0.000000000E+00  0.00000E+00  9.000E+00
      25     1     1     2     0     0  1.495322802E+02  4.856016237E+01  2.598737803E+02  3.284469119E+02  1.250000000E+02  0.00000E+00  9.000E+00
      25     1     1     2     0     0 -1.346159384E+02 -1.236555358E+02  3.596781444E+02  4.223807642E+02  1.250000000E+02  0.00000E+00  9.000E+00
      21     1     1     2   502   512 -1.491634180E+01  7.509537346E+01 -5.688499694E+02  5.739791809E+02  7.629394531E-06  0.00000E+00  9.000E+00
#rwgt            1           1   3.1129999503852052E-002           2      327321           0
</event>
<event>
      5   9999  3.19816E-02  1.97143E+02 -1.00000E+00  1.11876E-01
      21    -1     0     0   502   501  0.000000000E+00  0.000000000E+00  1.966524208E+03  1.966524208E+03  0.000000000E+00  0.00000E+00  9.000E+00
      21    -1     0     0   501   511  0.000000000E+00  0.000000000E+00 -9.468424968E+02  9.468424968E+02  0.000000000E+00  0.00000E+00  9.000E+00
      25     1     1     2     0     0  3.198114530E+02 -4.467242171E+02  3.397133712E+02  6.579301378E+02  1.250000000E+02  0.00000E+00  9.000E+00
      25     1     1     2     0     0 -1.872483994E+02  5.926429279E+02  1.385086014E+03  1.523278001E+03  1.250000000E+02  0.00000E+00  9.000E+00
      21     1     1     2   502   511 -1.325630536E+02 -1.459187108E+02 -7.051176732E+02  7.321585665E+02  7.629394531E-06  0.00000E+00  9.000E+00
#rwgt            1           1   2.7857383306984139E-002           2      327391           0
</event>
<event>
      5   9999  3.19816E-02  4.35225E+01 -1.00000E+00  1.42603E-01
      21    -1     0     0   502   501  0.000000000E+00  0.000000000E+00  2.046449416E+02  2.046449416E+02  0.000000000E+00  0.00000E+00  9.000E+00
      21    -1     0     0   501   512  0.000000000E+00  0.000000000E+00 -5.582106509E+02  5.582106509E+02  0.000000000E+00  0.00000E+00  9.000E+00
      25     1     1     2     0     0 -2.129563127E+02 -9.811896736E+00 -3.483159894E+02  4.270780876E+02  1.250000000E+02  0.00000E+00  9.000E+00
      25     1     1     2     0     0  1.769246989E+02 -1.459985129E+01  8.690266282E+01  2.338644427E+02  1.250000000E+02  0.00000E+00  9.000E+00
      21     1     1     2   502   512  3.603161376E+01  2.441174803E+01 -9.215238270E+01  1.019130623E+02  0.000000000E+00  0.00000E+00  9.000E+00
#rwgt            1           1   2.3542111522715271E-002           2      327435           0
</event>
<event>
      5   9999  3.19816E-02  5.77014E+01 -1.00000E+00  1.35616E-01
      21    -1     0     0   511   501  0.000000000E+00  0.000000000E+00  7.318592581E+02  7.318592581E+02  0.000000000E+00  0.00000E+00  9.000E+00
      21    -1     0     0   501   502  0.000000000E+00  0.000000000E+00 -9.670947991E+02  9.670947991E+02  0.000000000E+00  0.00000E+00  9.000E+00
      25     1     1     2     0     0 -3.094218428E+01  2.150710558E+02 -5.474177609E+02  6.020832026E+02  1.250000000E+02  0.00000E+00  9.000E+00
      25     1     1     2     0     0  7.710280505E+01 -1.804495367E+02 -3.564996819E+02  4.257040064E+02  1.250000000E+02  0.00000E+00  9.000E+00
      21     1     1     2   511   502 -4.616062077E+01 -3.462151910E+01  6.686819018E+02  6.711668483E+02  0.000000000E+00  0.00000E+00  9.000E+00
#rwgt            1           1   2.9213831753594731E-002           2      327587           0
</event>
<event>
      5   9999  3.19816E-02  3.08948E+01 -1.00000E+00  1.52159E-01
      21    -1     0     0   512   501  0.000000000E+00  0.000000000E+00  3.539187524E+02  3.539187524E+02  0.000000000E+00  0.00000E+00  9.000E+00
      21    -1     0     0   501   502  0.000000000E+00  0.000000000E+00 -9.030006597E+02  9.030006597E+02  0.000000000E+00  0.00000E+00  9.000E+00
      25     1     1     2     0     0  7.443898643E+01 -4.284045590E+01 -8.627460761E+02  8.759750335E+02  1.250000000E+02  0.00000E+00  9.000E+00
      25     1     1     2     0     0 -6.243519405E+01  1.437296655E+01  3.199425869E+02  3.494180798E+02  1.250000000E+02  0.00000E+00  9.000E+00
      21     1     1     2   512   502 -1.200379237E+01  2.846748935E+01 -6.278418094E+00  3.152629878E+01  4.616955931E-07  0.00000E+00  9.000E+00
#rwgt            1           1   2.9764287623286114E-002           2      327673           0
</event>
<event>
      5   9999  3.19816E-02  9.45607E+01 -1.00000E+00  1.24930E-01
      21    -1     0     0   502   511  0.000000000E+00  0.000000000E+00  4.501313591E+01  4.501313591E+01  0.000000000E+00  0.00000E+00  9.000E+00
      21    -1     0     0   501   502  0.000000000E+00  0.000000000E+00 -4.194048615E+03  4.194048615E+03  0.000000000E+00  0.00000E+00  9.000E+00
      25     1     1     2     0     0  2.479111229E+01 -2.441226950E+02 -6.471700103E+02  7.033239024E+02  1.250000000E+02  0.00000E+00  9.000E+00
      25     1     1     2     0     0 -8.868235039E+01  3.138338184E+02 -3.209813549E+03  3.228758933E+03  1.250000000E+02  0.00000E+00  9.000E+00
      21     1     1     2   501   511  6.389123810E+01 -6.971112340E+01 -2.920519196E+02  3.069789158E+02  3.814697266E-06  0.00000E+00  9.000E+00
#rwgt            1           1   9.4093241757844878E-003           2      327868           0
</event>
<event>
      5   9999  3.19816E-02  3.66631E+01 -1.00000E+00  1.47226E-01
      21    -1     0     0   502   501  0.000000000E+00  0.000000000E+00  7.563859993E+02  7.563859993E+02  0.000000000E+00  0.00000E+00  9.000E+00
      21    -1     0     0   512   502  0.000000000E+00  0.000000000E+00 -4.174862540E+02  4.174862540E+02  0.000000000E+00  0.00000E+00  9.000E+00
      25     1     1     2     0     0 -1.539760718E+02 -2.626315666E+02 -2.481125646E+02  4.121514469E+02  1.250000000E+02  0.00000E+00  9.000E+00
      25     1     1     2     0     0  1.454571516E+02  2.982911925E+02  6.187884665E+02  7.132037470E+02  1.250000000E+02  0.00000E+00  9.000E+00
      21     1     1     2   512   501  8.518920145E+00 -3.565962586E+01 -3.177615657E+01  4.851705930E+01  3.371747881E-07  0.00000E+00  9.000E+00
#rwgt            2          11   3.3703917361489746E-003           2      327992           0
</event>
<event>
      5   9999  3.19816E-02  2.59757E+01 -1.00000E+00  1.57515E-01
      21    -1     0     0   502   501  0.000000000E+00  0.000000000E+00  5.903501681E+01  5.903501681E+01  0.000000000E+00  0.00000E+00  9.000E+00
       1    -1     0     0   501     0  0.000000000E+00  0.000000000E+00 -2.350247066E+03  2.350247066E+03  0.000000000E+00  0.00000E+00  9.000E+00
      25     1     1     2     0     0 -8.382602974E+01 -1.834804076E+02 -8.907556262E+02  9.218256065E+02  1.250000000E+02  0.00000E+00  9.000E+00
      25     1     1     2     0     0  7.081675763E+01  2.059636631E+02 -3.203813956E+02  4.070691370E+02  1.250000000E+02  0.00000E+00  9.000E+00
       1     1     1     2   502     0  1.300927211E+01 -2.248325552E+01 -1.080075027E+03  1.080387339E+03  1.525878906E-05  0.00000E+00  9.000E+00
#rwgt            1           1   2.7616952078400328E-002           2      328012           0
</event>
<event>
      5   9999  3.19816E-02  1.23854E+02 -1.00000E+00  1.19788E-01
      21    -1     0     0   502   501  0.000000000E+00  0.000000000E+00  6.192144753E+02  6.192144753E+02  0.000000000E+00  0.00000E+00  9.000E+00
      21    -1     0     0   511   502  0.000000000E+00  0.000000000E+00 -1.093462464E+03  1.093462464E+03  0.000000000E+00  0.00000E+00  9.000E+00
      25     1     1     2     0     0  9.672592326E+01 -6.780840177E+01 -9.131811169E+02  9.292355116E+02  1.250000000E+02  0.00000E+00  9.000E+00
      25     1     1     2     0     0 -1.873234120E+02  1.522595486E+02  5.522753516E+02  6.155534866E+02  1.250000000E+02  0.00000E+00  9.000E+00
      21     1     1     2   511   501  9.059748879E+01 -8.445114688E+01 -1.133422235E+02  1.678879413E+02  1.907348633E-06  0.00000E+00  9.000E+00
#rwgt            1           1   2.0960903265159547E-002           2      328165           0
</event>
<event>
      5   9999  3.19816E-02  2.67014E+01 -1.00000E+00  1.56639E-01
       1    -1     0     0   502     0  0.000000000E+00  0.000000000E+00  1.638123671E+02  1.638123671E+02  0.000000000E+00  0.00000E+00  9.000E+00
      21    -1     0     0   501   502  0.000000000E+00  0.000000000E+00 -1.748891060E+03  1.748891060E+03  0.000000000E+00  0.00000E+00  9.000E+00
      25     1     1     2     0     0 -1.035355819E+02 -1.660700692E+02 -2.325829854E+02  3.286620296E+02  1.250000000E+02  0.00000E+00  9.000E+00
      25     1     1     2     0     0  1.295651999E+02  1.720216735E+02 -1.456004843E+03  1.477143764E+03  1.250000000E+02  0.00000E+00  9.000E+00
       1     1     1     2   501     0 -2.602961798E+01 -5.951604336E+00  1.035091361E+02  1.068976327E+02  3.568322551E-06  0.00000E+00  9.000E+00
#rwgt            1           1   3.4511992094451716E-002           2      328241           0
</event>
<event>
      5   9999  3.19816E-02  4.51978E+01 -1.00000E+00  1.41625E-01
      21    -1     0     0   511   501  0.000000000E+00  0.000000000E+00  5.617859948E+02  5.617859948E+02  0.000000000E+00  0.00000E+00  9.000E+00
      21    -1     0     0   501   502  0.000000000E+00  0.000000000E+00 -1.317453700E+02  1.317453700E+02  0.000000000E+00  0.00000E+00  9.000E+00
      25     1     1     2     0     0  1.120966529E+02 -1.376842175E+02  5.087478320E+01  2.230153513E+02  1.250000000E+02  0.00000E+00  9.000E+00
      25     1     1     2     0     0 -1.543630129E+02  1.216717240E+02  3.272303200E+02  4.016673132E+02  1.250000000E+02  0.00000E+00  9.000E+00
      21     1     1     2   511   502  4.226635991E+01  1.601249342E+01  5.193552154E+01  6.884870023E+01  9.536743164E-07  0.00000E+00  9.000E+00
#rwgt            1           1   2.5583788537524427E-002           2      328385           0
</event>
<event>
      5   9999  3.19816E-02  4.83433E+01 -1.00000E+00  1.39916E-01
      21    -1     0     0   502   512  0.000000000E+00  0.000000000E+00  1.905629324E+03  1.905629324E+03  0.000000000E+00  0.00000E+00  9.000E+00
      21    -1     0     0   501   502  0.000000000E+00  0.000000000E+00 -3.155034292E+02  3.155034292E+02  0.000000000E+00  0.00000E+00  9.000E+00
      25     1     1     2     0     0 -4.051742694E+02 -2.067282343E+00  4.396098081E+02  6.107800304E+02  1.250000000E+02  0.00000E+00  9.000E+00
      25     1     1     2     0     0  4.266328511E+02  4.538709734E+01 -1.179731462E+01  4.470344001E+02  1.250000000E+02  0.00000E+00  9.000E+00
      21     1     1     2   501   512 -2.145858170E+01 -4.331981500E+01  1.162313402E+03  1.163318323E+03  2.157918644E-05  0.00000E+00  9.000E+00
#rwgt            1           1   2.8009950670429436E-002           2      328528           0
</event>
<event>
      5   9999  3.19816E-02  3.25439E+01 -1.00000E+00  1.50625E-01
      21    -1     0     0   511   501  0.000000000E+00  0.000000000E+00  8.778353554E+01  8.778353554E+01  0.000000000E+00  0.00000E+00  9.000E+00
      21    -1     0     0   501   502  0.000000000E+00  0.000000000E+00 -2.772030476E+03  2.772030476E+03  0.000000000E+00  0.00000E+00  9.000E+00
      25     1     1     2     0     0  2.435217875E+02  1.221758670E+02 -2.399302789E+02  3.839548700E+02  1.250000000E+02  0.00000E+00  9.000E+00
      25     1     1     2     0     0 -2.647454844E+02 -1.468469560E+02 -2.391472166E+03  2.413797489E+03  1.250000000E+02  0.00000E+00  9.000E+00
      21     1     1     2   511   502  2.122369682E+01  2.467108905E+01 -5.284449624E+01  6.206165261E+01  6.743495762E-07  0.00000E+00  9.000E+00
#rwgt            1           1   7.5298172600156948E-002           2      328679           0
</event>
<event>
      5   9999  3.19816E-02  7.73549E+01 -1.00000E+00  1.29060E-01
      21    -1     0     0   502   501  0.000000000E+00  0.000000000E+00  7.896109792E+02  7.896109792E+02  0.000000000E+00  0.00000E+00  9.000E+00
      21    -1     0     0   501   512  0.000000000E+00  0.000000000E+00 -8.505918061E+02  8.505918061E+02  0.000000000E+00  0.00000E+00  9.000E+00
      25     1     1     2     0     0 -3.715489208E+01 -2.145983298E+02  4.844256609E+02  5.456428778E+02  1.250000000E+02  0.00000E+00  9.000E+00
      25     1     1     2     0     0 -2.290801791E+01  1.658516925E+02  2.326301412E+02  3.126872940E+02  1.250000000E+02  0.00000E+00  9.000E+00
      21     1     1     2   502   512  6.006290999E+01  4.874663730E+01 -7.780366290E+02  7.818726136E+02  1.525878906E-05  0.00000E+00  9.000E+00
#rwgt            1           1   2.4732725494124874E-002           2      328816           0
</event>
<event>
      5   9999  3.19816E-02  4.18544E+01 -1.00000E+00  1.43630E-01
      21    -1     0     0   502   501  0.000000000E+00  0.000000000E+00  1.241580902E+03  1.241580902E+03  0.000000000E+00  0.00000E+00  9.000E+00
       2    -1     0     0   501     0  0.000000000E+00  0.000000000E+00 -2.116938557E+02  2.116938557E+02  0.000000000E+00  0.00000E+00  9.000E+00
      25     1     1     2     0     0  2.666747447E+01  2.973816386E+01 -1.408649055E+02  1.925186593E+02  1.250000000E+02  0.00000E+00  9.000E+00
      25     1     1     2     0     0 -6.384219271E+01 -1.050710549E+01  1.200934088E+03  1.209154212E+03  1.250000000E+02  0.00000E+00  9.000E+00
       2     1     1     2   502     0  3.717471824E+01 -1.923105837E+01 -3.018213638E+01  5.160188600E+01  1.261592536E-06  0.00000E+00  9.000E+00
#rwgt            1           1   2.7285682650020692E-002           2      328921           0
</event>
<event>
      5   9999  3.19816E-02  8.33158E+01 -1.00000E+00  1.27502E-01
      21    -1     0     0   502   501  0.000000000E+00  0.000000000E+00  2.150763381E+02  2.150763381E+02  0.000000000E+00  0.00000E+00  9.000E+00
      21    -1     0     0   511   502  0.000000000E+00  0.000000000E+00 -2.894536670E+02  2.894536670E+02  0.000000000E+00  0.00000E+00  9.000E+00
      25     1     1     2     0     0  3.782063401E+01  1.397774803E+02 -7.188279527E+01  2.043533230E+02  1.250000000E+02  0.00000E+00  9.000E+00
      25     1     1     2     0     0 -1.192093292E+02 -1.219614863E+02  2.386367775E+01  2.127908443E+02  1.250000000E+02  0.00000E+00  9.000E+00
      21     1     1     2   511   501  8.138869517E+01 -1.781599401E+01 -2.635821147E+01  8.738583784E+01  2.431401974E-06  0.00000E+00  9.000E+00
#rwgt            1           1   2.6485634599873173E-002           2      329021           0
</event>
<event>
      5   9999  3.19816E-02  2.57337E+01 -1.00000E+00  1.57816E-01
      21    -1     0     0   502   501  0.000000000E+00  0.000000000E+00  2.170189318E+02  2.170189318E+02  0.000000000E+00  0.00000E+00  9.000E+00
      21    -1     0     0   501   512  0.000000000E+00  0.000000000E+00 -1.198285203E+03  1.198285203E+03  0.000000000E+00  0.00000E+00  9.000E+00
      25     1     1     2     0     0  3.805034303E+00 -3.990827223E+02 -1.230214014E+02  4.359366499E+02  1.250000000E+02  0.00000E+00  9.000E+00
      25     1     1     2     0     0 -2.874412960E+00  4.247996072E+02 -7.791722516E+02  8.962127907E+02  1.250000000E+02  0.00000E+00  9.000E+00
      21     1     1     2   502   512 -9.306213432E-01 -2.571688489E+01 -7.907261816E+01  8.315469419E+01  1.348699152E-06  0.00000E+00  9.000E+00
#rwgt            1           1   2.7024547904078842E-002           2      329083           0
</event>
<event>
      5   9999  3.19816E-02  2.49501E+02 -1.00000E+00  1.08260E-01
      21    -1     0     0   502   501  0.000000000E+00  0.000000000E+00  1.248675200E+02  1.248675200E+02  0.000000000E+00  0.00000E+00  9.000E+00
       1    -1     0     0   501     0  0.000000000E+00  0.000000000E+00 -2.564917997E+03  2.564917997E+03  0.000000000E+00  0.00000E+00  9.000E+00
      25     1     1     2     0     0  3.081362290E+02 -2.281015931E+02 -5.541909561E+02  6.853691620E+02  1.250000000E+02  0.00000E+00  9.000E+00
      25     1     1     2     0     0 -7.547479214E+01  1.379931103E+02 -1.500214142E+02  2.507388431E+02  1.250000000E+02  0.00000E+00  9.000E+00
       1     1     1     2   502     0 -2.326614369E+02  9.010848286E+01 -1.735838107E+03  1.753677512E+03  2.157918644E-05  0.00000E+00  9.000E+00
#rwgt            1           1   2.9316797071922193E-002           2      329241           0
</event>
<event>
      5   9999  3.19816E-02  1.17866E+01 -1.00000E+00  1.87851E-01
      21    -1     0     0   502   501  0.000000000E+00  0.000000000E+00  1.728341440E+02  1.728341440E+02  0.000000000E+00  0.00000E+00  9.000E+00
      21    -1     0     0   501   511  0.000000000E+00  0.000000000E+00 -2.606199058E+03  2.606199058E+03  0.000000000E+00  0.00000E+00  9.000E+00
      25     1     1     2     0     0 -5.006383899E+02 -9.191935995E+01 -3.513797975E+02  6.310156324E+02  1.250000000E+02  0.00000E+00  9.000E+00
      25     1     1     2     0     0  4.937351959E+02  8.236583935E+01 -2.014918152E+03  2.079922772E+03  1.250000000E+02  0.00000E+00  9.000E+00
      21     1     1     2   502   511  6.903194070E+00  9.553520596E+00 -6.706696417E+01  6.809479809E+01  1.651812370E-06  0.00000E+00  9.000E+00
#rwgt            1           1   1.8408788640081209E-002           2      329278           0
</event>
<event>
      5   9999  3.19816E-02  9.87671E+01 -1.00000E+00  1.24071E-01
      21    -1     0     0   502   501  0.000000000E+00  0.000000000E+00  1.297754536E+02  1.297754536E+02  0.000000000E+00  0.00000E+00  9.000E+00
      21    -1     0     0   501   512  0.000000000E+00  0.000000000E+00 -7.613027220E+02  7.613027220E+02  0.000000000E+00  0.00000E+00  9.000E+00
      25     1     1     2     0     0  1.605814873E+02 -3.294991221E+01 -1.396780860E+02  2.490122055E+02  1.250000000E+02  0.00000E+00  9.000E+00
      25     1     1     2     0     0 -2.588259230E+02  4.309750913E+01 -2.596437097E+02  3.897282511E+02  1.250000000E+02  0.00000E+00  9.000E+00
      21     1     1     2   502   512  9.824443569E+01 -1.014759692E+01 -2.322054727E+02  2.523377190E+02  2.697398305E-06  0.00000E+00  9.000E+00
#rwgt            1           1   2.3684232279170891E-002           2      329506           0
</event>
<event>
      5   9999  3.19816E-02  4.10054E+01 -1.00000E+00  1.44175E-01
      21    -1     0     0   502   501  0.000000000E+00  0.000000000E+00  6.703989463E+02  6.703989463E+02  0.000000000E+00  0.00000E+00  9.000E+00
      21    -1     0     0   501   511  0.000000000E+00  0.000000000E+00 -9.846123296E+01  9.846123296E+01  0.000000000E+00  0.00000E+00  9.000E+00
      25     1     1     2     0     0 -1.860604731E+02 -9.026223466E+01  1.756632199E+02  2.987446024E+02  1.250000000E+02  0.00000E+00  9.000E+00
      25     1     1     2     0     0  1.452928540E+02  8.585300331E+01  3.510032929E+02  4.090343057E+02  1.250000000E+02  0.00000E+00  9.000E+00
      21     1     1     2   502   511  4.076761911E+01  4.409231347E+00  4.527120055E+01  6.108127117E+01  9.536743164E-07  0.00000E+00  9.000E+00
#rwgt            1           1   2.8790669136927721E-002           2      329570           0
</event>
<event>
      5   9999  3.19816E-02  1.11630E+01 -1.00000E+00  1.90391E-01
      21    -1     0     0   502   501  0.000000000E+00  0.000000000E+00  5.273235323E+02  5.273235323E+02  0.000000000E+00  0.00000E+00  9.000E+00
      21    -1     0     0   512   502  0.000000000E+00  0.000000000E+00 -8.882035001E+02  8.882035001E+02  0.000000000E+00  0.00000E+00  9.000E+00
      25     1     1     2     0     0 -1.702559610E+02 -2.851051770E+02  6.887553355E+01  3.614427940E+02  1.250000000E+02  0.00000E+00  9.000E+00
      25     1     1     2     0     0  1.798716470E+02  2.907754574E+02  2.059613694E+02  4.182693650E+02  1.250000000E+02  0.00000E+00  9.000E+00
      21     1     1     2   512   501 -9.615686014E+00 -5.670280455E+00 -6.357168708E+02  6.358148734E+02  7.629394531E-06  0.00000E+00  9.000E+00
#rwgt            1           1   2.7594783649117518E-002           2      329679           0
</event>
<event>
      5   9999  3.19816E-02  6.71031E+01 -1.00000E+00  1.32157E-01
      21    -1     0     0   502   501  0.000000000E+00  0.000000000E+00  1.054287642E+02  1.054287642E+02  0.000000000E+00  0.00000E+00  9.000E+00
      21    -1     0     0   501   511  0.000000000E+00  0.000000000E+00 -6.272144199E+02  6.272144199E+02  0.000000000E+00  0.00000E+00  9.000E+00
      25     1     1     2     0     0  3.197723705E+01 -1.362846359E+02 -2.916273921E+02  3.467961670E+02  1.250000000E+02  0.00000E+00  9.000E+00
      25     1     1     2     0     0  3.407697519E+01  1.244667847E+02 -3.981274164E+01  1.840197683E+02  1.250000000E+02  0.00000E+00  9.000E+00
      21     1     1     2   502   511 -6.605421224E+01  1.181785112E+01 -1.903455221E+02  2.018272487E+02  2.697398305E-06  0.00000E+00  9.000E+00
#rwgt            1           1   2.5833468742859366E-002           2      329932           0
</event>
<event>
      5   9999  3.19816E-02  2.00144E+02 -1.00000E+00  1.11637E-01
      21    -1     0     0   502   501  0.000000000E+00  0.000000000E+00  4.879644050E+01  4.879644050E+01  0.000000000E+00  0.00000E+00  9.000E+00
      21    -1     0     0   512   502  0.000000000E+00  0.000000000E+00 -2.762866684E+03  2.762866684E+03  0.000000000E+00  0.00000E+00  9.000E+00
      25     1     1     2     0     0 -1.275290147E+02 -1.791716896E+01 -8.716615773E+02  8.899458297E+02  1.250000000E+02  0.00000E+00  9.000E+00
      25     1     1     2     0     0 -6.969859878E+01 -1.612414721E+01 -1.192805705E+02  1.870046451E+02  1.250000000E+02  0.00000E+00  9.000E+00
      21     1     1     2   512   501  1.972276134E+02  3.404131617E+01 -1.723128096E+03  1.734712650E+03  2.157918644E-05  0.00000E+00  9.000E+00
#rwgt            1           1   3.1749900680974413E-002           2      330062           0
</event>
<event>
      5   9999  3.19816E-02  2.97098E+01 -1.00000E+00  1.53334E-01
       2    -1     0     0   502     0  0.000000000E+00  0.000000000E+00  1.861831655E+03  1.861831655E+03  0.000000000E+00  0.00000E+00  9.000E+00
      21    -1     0     0   501   502  0.000000000E+00  0.000000000E+00 -3.306417890E+02  3.306417890E+02  0.000000000E+00  0.00000E+00  9.000E+00
      25     1     1     2     0     0 -2.264758446E+02  1.266711662E+02 -2.157790744E+02  3.598923471E+02  1.250000000E+02  0.00000E+00  9.000E+00
      25     1     1     2     0     0  2.561715606E+02 -1.275864499E+02  5.293837279E+02  6.146334697E+02  1.250000000E+02  0.00000E+00  9.000E+00
       2     1     1     2   501     0 -2.969571600E+01  9.152837088E-01  1.217585213E+03  1.217947628E+03  1.525878906E-05  0.00000E+00  9.000E+00
#rwgt            1           1   3.0035041957260370E-002           2      330107           0
</event>
<event>
      5   9999  3.19816E-02  1.68966E+01 -1.00000E+00  1.72647E-01
      21    -1     0     0   502   501  0.000000000E+00  0.000000000E+00  5.838972252E+02  5.838972252E+02  0.000000000E+00  0.00000E+00  9.000E+00
      21    -1     0     0   511   502  0.000000000E+00  0.000000000E+00 -2.959348644E+02  2.959348644E+02  0.000000000E+00  0.00000E+00  9.000E+00
      25     1     1     2     0     0 -1.155668810E+01  2.652294530E+02 -1.288445841E+02  3.204779971E+02  1.250000000E+02  0.00000E+00  9.000E+00
      25     1     1     2     0     0  2.285194181E+01 -2.526630790E+02  4.445400188E+02  5.268791807E+02  1.250000000E+02  0.00000E+00  9.000E+00
      21     1     1     2   511   501 -1.129525371E+01 -1.256637405E+01 -2.773307382E+01  3.247491180E+01  6.743495762E-07  0.00000E+00  9.000E+00
#rwgt            1           1   2.8779333067129018E-002           2      330255           0
</event>
<event>
      5   9999  3.70218E-02  2.19956E+02 -1.00000E+00  1.10165E-01
      21    -1     0     0   502   501  0.000000000E+00  0.000000000E+00  2.415476535E+03  2.415476535E+03  0.000000000E+00  0.00000E+00  9.000E+00
      21    -1     0     0   512   502  0.000000000E+00  0.000000000E+00 -1.900531574E+02  1.900531574E+02  0.000000000E+00  0.00000E+00  9.000E+00
      25     1     1     2     0     0 -3.720983496E+01  7.493755576E+01  2.396698669E+02  2.829608704E+02  1.250000000E+02  0.00000E+00  9.000E+00
      25     1     1     2     0     0  2.284788639E+01 -2.944238764E+02  2.064262558E+03  2.089021865E+03  1.250000000E+02  0.00000E+00  9.000E+00
      21     1     1     2   512   501  1.436194857E+01  2.194863207E+02 -7.850904729E+01  2.335469568E+02  2.861022949E-06  0.00000E+00  9.000E+00
#rwgt            1           1  0.10660446440170093                2      330424           0
</event>
<event>
      5   9999  3.19816E-02  5.66991E+01 -1.00000E+00  1.36030E-01
      21    -1     0     0   511   501  0.000000000E+00  0.000000000E+00  4.461527830E+01  4.461527830E+01  0.000000000E+00  0.00000E+00  9.000E+00
      21    -1     0     0   501   502  0.000000000E+00  0.000000000E+00 -1.802390650E+03  1.802390650E+03  0.000000000E+00  0.00000E+00  9.000E+00
      25     1     1     2     0     0  1.685825824E+02 -9.553817739E+01 -6.609733030E+02  7.000416685E+02  1.250000000E+02  0.00000E+00  9.000E+00
      25     1     1     2     0     0 -2.252298041E+02  9.796368613E+01 -9.626631501E+02  1.001334454E+03  1.250000000E+02  0.00000E+00  9.000E+00
      21     1     1     2   511   502  5.664722166E+01 -2.425508743E+00 -1.341389190E+02  1.456298060E+02  1.907348633E-06  0.00000E+00  9.000E+00
#rwgt            1           1   2.8034824888919788E-002           2      330477           0
</event>
<event>
      5   9999  3.19816E-02  6.45596E+01 -1.00000E+00  1.33025E-01
      21    -1     0     0   502   501  0.000000000E+00  0.000000000E+00  9.166493372E+01  9.166493372E+01  0.000000000E+00  0.00000E+00  9.000E+00
      21    -1     0     0   512   502  0.000000000E+00  0.000000000E+00 -4.188192298E+02  4.188192298E+02  0.000000000E+00  0.00000E+00  9.000E+00
      25     1     1     2     0     0 -6.690811387E+01 -9.432936228E+00 -8.791112873E+01  1.670899235E+02  1.250000000E+02  0.00000E+00  9.000E+00
      25     1     1     2     0     0  1.287994693E+02  2.780145792E+01 -1.817792383E+02  2.569648144E+02  1.250000000E+02  0.00000E+00  9.000E+00
      21     1     1     2   512   501 -6.189135545E+01 -1.836852169E+01 -5.746392905E+01  8.642942560E+01  1.168007728E-06  0.00000E+00  9.000E+00
#rwgt            1           1   2.0902394633248684E-002           2      330594           0
</event>
<event>
      5   9999  3.19816E-02  2.51903E+02 -1.00000E+00  1.08118E-01
      21    -1     0     0   511   501  0.000000000E+00  0.000000000E+00  5.834088697E+02  5.834088697E+02  0.000000000E+00  0.00000E+00  9.000E+00
      21    -1     0     0   501   502  0.000000000E+00  0.000000000E+00 -9.657910989E+02  9.657910989E+02  0.000000000E+00  0.00000E+00  9.000E+00
      25     1     1     2     0     0  4.435386809E+02 -1.703216976E+02 -2.088142361E+02  5.338205947E+02  1.250000000E+02  0.00000E+00  9.000E+00
      25     1     1     2     0     0 -6.519951636E+02  2.889653534E+01 -3.051116872E+02  7.311982254E+02  1.250000000E+02  0.00000E+00  9.000E+00
      21     1     1     2   511   502  2.084564827E+02  1.414251623E+02  1.315436942E+02  2.841811485E+02  1.907348633E-06  0.00000E+00  9.000E+00
#rwgt            2          11   3.9267221524471848E-003           2      330792           0
</event>
<event>
      5   9999  3.19816E-02  5.94727E+01 -1.00000E+00  1.34909E-01
      21    -1     0     0   512   501  0.000000000E+00  0.000000000E+00  9.141834179E+02  9.141834179E+02  0.000000000E+00  0.00000E+00  9.000E+00
      21    -1     0     0   501   502  0.000000000E+00  0.000000000E+00 -1.049208306E+02  1.049208306E+02  0.000000000E+00  0.00000E+00  9.000E+00
      25     1     1     2     0     0  2.309105734E+01  1.544307984E+02  5.988668121E+02  6.313861948E+02  1.250000000E+02  0.00000E+00  9.000E+00
      25     1     1     2     0     0 -4.104520320E+01 -2.111286716E+02  1.121607499E+02  2.728828659E+02  1.250000000E+02  0.00000E+00  9.000E+00
      21     1     1     2   512   502  1.795414586E+01  5.669787317E+01  9.823502529E+01  1.148351879E+02  0.000000000E+00  0.00000E+00  9.000E+00
#rwgt            1           1   2.4140337088295018E-002           2      330842           0
</event>
<event>
      5   9999  3.19816E-02  4.14259E+02 -1.00000E+00  1.01230E-01
      21    -1     0     0   511   501  0.000000000E+00  0.000000000E+00  8.817515376E+02  8.817515376E+02  0.000000000E+00  0.00000E+00  9.000E+00
      21    -1     0     0   501   502  0.000000000E+00  0.000000000E+00 -4.498065824E+02  4.498065824E+02  0.000000000E+00  0.00000E+00  9.000E+00
      25     1     1     2     0     0 -8.838877191E+01  2.421025264E+02  1.876339663E+02  3.424291366E+02  1.250000000E+02  0.00000E+00  9.000E+00
      25     1     1     2     0     0  2.816021626E+02  1.243383875E+02 -1.950519922E+02  3.852662615E+02  1.250000000E+02  0.00000E+00  9.000E+00
      21     1     1     2   511   502 -1.932133907E+02 -3.664409139E+02  4.393629811E+02  6.038627219E+02  9.344061824E-06  0.00000E+00  9.000E+00
#rwgt            1           1   2.3339620720473062E-002           2      330967           0
</event>
<event>
      5   9999  3.19816E-02  6.85838E+02 -1.00000E+00  9.51032E-02
      21    -1     0     0   502   501  0.000000000E+00  0.000000000E+00  1.165336378E+03  1.165336378E+03  0.000000000E+00  0.00000E+00  9.000E+00
       4    -1     0     0   501     0  0.000000000E+00  0.000000000E+00 -5.746817386E+02  5.746817386E+02  0.000000000E+00  0.00000E+00  9.000E+00
      25     1     1     2     0     0  3.583035067E+02  1.119979990E+02 -1.003102819E+01  3.957910764E+02  1.250000000E+02  0.00000E+00  9.000E+00
      25     1     1     2     0     0  1.159833713E+02  3.834059642E+02  4.972363191E+02  6.506314109E+02  1.250000000E+02  0.00000E+00  9.000E+00
       4     1     1     2   502     0 -4.742868779E+02 -4.954039632E+02  1.034493487E+02  6.935956294E+02  1.612809613E-05  0.00000E+00  9.000E+00
#rwgt            2          15   2.2407513048742190E-005           2      331100           0
</event>
<event>
      5   9999  3.19816E-02  1.73756E+02 -1.00000E+00  1.13918E-01
      21    -1     0     0   511   501  0.000000000E+00  0.000000000E+00  2.993392760E+02  2.993392760E+02  0.000000000E+00  0.00000E+00  9.000E+00
      21    -1     0     0   501   502  0.000000000E+00  0.000000000E+00 -2.769133929E+02  2.769133929E+02  0.000000000E+00  0.00000E+00  9.000E+00
      25     1     1     2     0     0 -3.622995704E+00 -4.013795469E+00 -1.108997480E+02  1.671914793E+02  1.250000000E+02  0.00000E+00  9.000E+00
      25     1     1     2     0     0  7.568541080E+01 -1.540944433E+02  8.467610611E+01  2.286228812E+02  1.250000000E+02  0.00000E+00  9.000E+00
      21     1     1     2   511   502 -7.206241510E+01  1.581082388E+02  4.864952506E+01  1.804383084E+02  2.697398305E-06  0.00000E+00  9.000E+00
#rwgt            2          11   2.9342028999036021E-003           2      331134           0
</event>
<event>
      5   9999  3.19816E-02  1.05096E+02 -1.00000E+00  1.22865E-01
      21    -1     0     0   502   512  0.000000000E+00  0.000000000E+00  1.518581690E+03  1.518581690E+03  0.000000000E+00  0.00000E+00  9.000E+00
      21    -1     0     0   501   502  0.000000000E+00  0.000000000E+00 -1.780642050E+03  1.780642050E+03  0.000000000E+00  0.00000E+00  9.000E+00
      25     1     1     2     0     0  7.223686484E+01  1.361440676E+03 -1.013088887E+03  1.703147959E+03  1.250000000E+02  0.00000E+00  9.000E+00
      25     1     1     2     0     0 -1.190226700E+02 -1.267332549E+03  6.017576646E+02  1.413518826E+03  1.250000000E+02  0.00000E+00  9.000E+00
      21     1     1     2   501   512  4.678580512E+01 -9.410812732E+01  1.492708620E+02  1.825569540E+02  0.000000000E+00  0.00000E+00  9.000E+00
#rwgt            1           1   2.5036177585110588E-002           2      331169           0
</event>
<event>
      5   9999  3.19816E-02  7.09247E+01 -1.00000E+00  1.30933E-01
      21    -1     0     0   502   511  0.000000000E+00  0.000000000E+00  8.099109355E+02  8.099109355E+02  0.000000000E+00  0.00000E+00  9.000E+00
      21    -1     0     0   501   502  0.000000000E+00  0.000000000E+00 -1.662813449E+02  1.662813449E+02  0.000000000E+00  0.00000E+00  9.000E+00
      25     1     1     2     0     0 -1.819462595E+01 -6.935905501E+01 -1.123222522E+02  1.827101838E+02  1.250000000E+02  0.00000E+00  9.000E+00
      25     1     1     2     0     0  8.898709924E+01  7.368735851E+01  5.355973686E+02  5.619947259E+02  1.250000000E+02  0.00000E+00  9.000E+00
      21     1     1     2   501   511 -7.079247330E+01 -4.328303501E+00  2.203544742E+02  2.314873707E+02  3.814697266E-06  0.00000E+00  9.000E+00
#rwgt            1           1   2.7959332388634774E-002           2      331303           0
</event>
<event>
      5   9999  3.19816E-02  3.04208E+02 -1.00000E+00  1.05396E-01
      21    -1     0     0   502   512  0.000000000E+00  0.000000000E+00  8.135778593E+02  8.135778593E+02  0.000000000E+00  0.00000E+00  9.000E+00
      21    -1     0     0   501   502  0.000000000E+00  0.000000000E+00 -2.086892877E+03  2.086892877E+03  0.000000000E+00  0.00000E+00  9.000E+00
      25     1     1     2     0     0 -6.519035920E+02 -6.994950979E+02 -5.867139710E+02  1.128773657E+03  1.250000000E+02  0.00000E+00  9.000E+00
      25     1     1     2     0     0  9.404450942E+02  6.031281024E+02 -8.655102057E+02  1.418778841E+03  1.250000000E+02  0.00000E+00  9.000E+00
      21     1     1     2   501   512 -2.885415022E+02  9.636699553E+01  1.789091584E+02  3.529182388E+02  8.529922400E-06  0.00000E+00  9.000E+00
#rwgt            2          11   5.1859272659925786E-003           2      331696           0
</event>
<event>
      5   9999  3.19816E-02  3.71599E+01 -1.00000E+00  1.46852E-01
      21    -1     0     0   511   501  0.000000000E+00  0.000000000E+00  4.965866715E+02  4.965866715E+02  0.000000000E+00  0.00000E+00  9.000E+00
      21    -1     0     0   501   502  0.000000000E+00  0.000000000E+00 -9.168733236E+02  9.168733236E+02  0.000000000E+00  0.00000E+00  9.000E+00
      25     1     1     2     0     0 -3.887100637E+02 -3.053606336E+02 -1.855101707E+02  5.425676489E+02  1.250000000E+02  0.00000E+00  9.000E+00
      25     1     1     2     0     0  4.158637108E+02  2.799925193E+02 -4.299727470E+02  6.721904492E+02  1.250000000E+02  0.00000E+00  9.000E+00
      21     1     1     2   511   502 -2.715364711E+01  2.536811439E+01  1.951962657E+02  1.987018971E+02  3.814697266E-06  0.00000E+00  9.000E+00
#rwgt            1           1   2.7639416664359186E-002           2      331716           0
</event>
<event>
      5   9999  3.19816E-02  1.57824E+02 -1.00000E+00  1.15525E-01
      21    -1     0     0   512   501  0.000000000E+00  0.000000000E+00  5.891886721E+02  5.891886721E+02  0.000000000E+00  0.00000E+00  9.000E+00
      21    -1     0     0   501   502  0.000000000E+00  0.000000000E+00 -5.976915040E+02  5.976915040E+02  0.000000000E+00  0.00000E+00  9.000E+00
      25     1     1     2     0     0 -2.920796884E+01 -1.373966428E+02 -4.721199511E+02  5.081861776E+02  1.250000000E+02  0.00000E+00  9.000E+00
      25     1     1     2     0     0  1.861528019E+02  1.207602890E+02  8.498105477E+01  2.684822019E+02  1.250000000E+02  0.00000E+00  9.000E+00
      21     1     1     2   512   502 -1.569448331E+02  1.663635378E+01  3.786360643E+02  4.102117966E+02  7.629394531E-06  0.00000E+00  9.000E+00
#rwgt            1           1   2.8016744451089721E-002           2      331872           0
</event>
<event>
      5   9999  3.19816E-02  1.99619E+02 -1.00000E+00  1.11678E-01
      21    -1     0     0   511   501  0.000000000E+00  0.000000000E+00  3.491727469E+02  3.491727469E+02  0.000000000E+00  0.00000E+00  9.000E+00
      21    -1     0     0   501   502  0.000000000E+00  0.000000000E+00 -4.979306888E+02  4.979306888E+02  0.000000000E+00  0.00000E+00  9.000E+00
      25     1     1     2     0     0 -4.349580099E+01 -2.712493499E+02 -3.208128949E+02  4.404702125E+02  1.250000000E+02  0.00000E+00  9.000E+00
      25     1     1     2     0     0  2.841769134E+01  7.220102142E+01  1.425312692E+02  2.048431482E+02  1.250000000E+02  0.00000E+00  9.000E+00
      21     1     1     2   511   502  1.507810964E+01  1.990483285E+02  2.952368384E+01  2.017900750E+02  2.739220927E-06  0.00000E+00  9.000E+00
#rwgt            1           1   2.7292825940766128E-002           2      331948           0
</event>
<event>
      5   9999  3.19816E-02  4.52000E+01 -1.00000E+00  1.41623E-01
      21    -1     0     0   502   501  0.000000000E+00  0.000000000E+00  8.303258546E+02  8.303258546E+02  0.000000000E+00  0.00000E+00  9.000E+00
      21    -1     0     0   512   502  0.000000000E+00  0.000000000E+00 -1.068244770E+02  1.068244770E+02  0.000000000E+00  0.00000E+00  9.000E+00
      25     1     1     2     0     0  1.438010424E+02 -2.102327115E+02  3.480890866E+02  4.490740974E+02  1.250000000E+02  0.00000E+00  9.000E+00
      25     1     1     2     0     0 -9.870773219E+01  2.133369163E+02  3.299675028E+02  4.239804349E+02  1.250000000E+02  0.00000E+00  9.000E+00
      21     1     1     2   512   501 -4.509331020E+01 -3.104204784E+00  4.544478816E+01  6.409579927E+01  6.743495762E-07  0.00000E+00  9.000E+00
#rwgt            1           1   2.5861431486034807E-002           2      331992           0
</event>
<event>
      5   9999  3.19816E-02  1.71198E+01 -1.00000E+00  1.72141E-01
      21    -1     0     0   502   511  0.000000000E+00  0.000000000E+00  1.408819332E+03  1.408819332E+03  0.000000000E+00  0.00000E+00  9.000E+00
      21    -1     0     0   501   502  0.000000000E+00  0.000000000E+00 -6.764956594E+02  6.764956594E+02  0.000000000E+00  0.00000E+00  9.000E+00
      25     1     1     2     0     0  7.444787912E+02 -1.229982552E+02  9.699133929E+02  1.235206149E+03  1.250000000E+02  0.00000E+00  9.000E+00
      25     1     1     2     0     0 -7.365935249E+02  1.381940225E+02 -2.757464335E+02  8.082875135E+02  1.250000000E+02  0.00000E+00  9.000E+00
      21     1     1     2   501   511 -7.885266336E+00 -1.519576735E+01  3.815671367E+01  4.182132911E+01  6.743495762E-07  0.00000E+00  9.000E+00
#rwgt            1           1   3.8469007684521335E-002           2      332060           0
</event>
<event>
      5   9999  3.19816E-02  7.74102E+01 -1.00000E+00  1.29045E-01
      21    -1     0     0   502   501  0.000000000E+00  0.000000000E+00  3.553201281E+02  3.553201281E+02  0.000000000E+00  0.00000E+00  9.000E+00
      21    -1     0     0   512   502  0.000000000E+00  0.000000000E+00 -1.961309426E+02  1.961309426E+02  0.000000000E+00  0.00000E+00  9.000E+00
      25     1     1     2     0     0  3.275648256E+01 -8.772046257E+01 -2.379589735E+01  1.579845291E+02  1.250000000E+02  0.00000E+00  9.000E+00
      25     1     1     2     0     0  3.345867701E+01  4.762193766E+01  2.536164504E+02  2.886756587E+02  1.250000000E+02  0.00000E+00  9.000E+00
      21     1     1     2   512   501 -6.621515957E+01  4.009852492E+01 -7.063136753E+01  1.047908829E+02  9.536743164E-07  0.00000E+00  9.000E+00
#rwgt            2          11   1.9105141088939675E-003           2      332247           0
</event>
<event>
      5   9999  3.19816E-02  2.62059E+01 -1.00000E+00  1.57234E-01
      21    -1     0     0   502   501  0.000000000E+00  0.000000000E+00  1.184460314E+03  1.184460314E+03  0.000000000E+00  0.00000E+00  9.000E+00
      21    -1     0     0   511   502  0.000000000E+00  0.000000000E+00 -2.536226975E+02  2.536226975E+02  0.000000000E+00  0.00000E+00  9.000E+00
      25     1     1     2     0     0  2.079022419E+02 -3.475568445E+02  8.721317861E+02  9.696689923E+02  1.250000000E+02  0.00000E+00  9.000E+00
      25     1     1     2     0     0 -1.818788288E+02  3.444697695E+02  9.847502912E+01  4.207869554E+02  1.250000000E+02  0.00000E+00  9.000E+00
      21     1     1     2   511   501 -2.602341311E+01  3.087074997E+00 -3.976919856E+01  4.762706390E+01  1.066240300E-06  0.00000E+00  9.000E+00
#rwgt            1           1   2.9121554448350628E-002           2      332267           0
</event>
<event>
      5   9999  3.19816E-02  4.51072E+01 -1.00000E+00  1.41676E-01
      21    -1     0     0   512   501  0.000000000E+00  0.000000000E+00  9.113866988E+02  9.113866988E+02  0.000000000E+00  0.00000E+00  9.000E+00
      21    -1     0     0   501   502  0.000000000E+00  0.000000000E+00 -1.668161518E+02  1.668161518E+02  0.000000000E+00  0.00000E+00  9.000E+00
      25     1     1     2     0     0 -3.059522939E+02  1.367412264E+02  4.606705465E+02  5.832215030E+02  1.250000000E+02  0.00000E+00  9.000E+00
      25     1     1     2     0     0  2.651505640E+02 -1.559735296E+02  1.711937462E+02  3.735838089E+02  1.250000000E+02  0.00000E+00  9.000E+00
      21     1     1     2   512   502  4.080172988E+01  1.923230325E+01  1.127062543E+02  1.213975387E+02  0.000000000E+00  0.00000E+00  9.000E+00
#rwgt            1           1   2.7582609131356437E-002           2      332356           0
</event>
<event>
      5   9999  3.19816E-02  6.73815E+01 -1.00000E+00  1.32065E-01
      21    -1     0     0   502   501  0.000000000E+00  0.000000000E+00  1.571199059E+02  1.571199059E+02  0.000000000E+00  0.00000E+00  9.000E+00
      21    -1     0     0   511   502  0.000000000E+00  0.000000000E+00 -4.893522009E+02  4.893522009E+02  0.000000000E+00  0.00000E+00  9.000E+00
      25     1     1     2     0     0 -1.898913660E+02 -5.564690447E+01 -1.760826765E+02  2.928914779E+02  1.250000000E+02  0.00000E+00  9.000E+00
      25     1     1     2     0     0  1.408874361E+02  1.018950164E+02 -3.788512649E+01  2.174675765E+02  1.250000000E+02  0.00000E+00  9.000E+00
      21     1     1     2   511   501  4.900392989E+01 -4.624811190E+01 -1.182644919E+02  1.361130525E+02  1.907348633E-06  0.00000E+00  9.000E+00
#rwgt            1           1   2.9652604873169619E-002           2      332493           0
</event>
<event>
      5   9999  3.19816E-02  1.78521E+01 -1.00000E+00  1.70546E-01
      21    -1     0     0   502   512  0.000000000E+00  0.000000000E+00  6.884236371E+01  6.884236371E+01  0.000000000E+00  0.00000E+00  9.000E+00
      21    -1     0     0   501   502  0.000000000E+00  0.000000000E+00 -9.225406216E+02  9.225406216E+02  0.000000000E+00  0.00000E+00  9.000E+00
      25     1     1     2     0     0  1.781767325E+02  8.037508489E+01 -5.854163225E+02  6.297176931E+02  1.250000000E+02  0.00000E+00  9.000E+00
      25     1     1     2     0     0 -1.663127693E+02 -6.703546766E+01 -2.649954739E+02  3.435131618E+02  1.250000000E+02  0.00000E+00  9.000E+00
      21     1     1     2   501   512 -1.186396315E+01 -1.333961722E+01 -3.286461431E+00  1.815213040E+01  4.214684851E-08  0.00000E+00  9.000E+00
#rwgt            1           1   2.6759696328445094E-002           2      332618           0
</event>
<event>
      5   9999  3.19816E-02  9.36668E+01 -1.00000E+00  1.25120E-01
      21    -1     0     0   502   501  0.000000000E+00  0.000000000E+00  1.055334951E+03  1.055334951E+03  0.000000000E+00  0.00000E+00  9.000E+00
      21    -1     0     0   511   502  0.000000000E+00  0.000000000E+00 -8.035425015E+02  8.035425015E+02  0.000000000E+00  0.00000E+00  9.000E+00
      25     1     1     2     0     0  7.770801669E+02 -1.805216913E+02 -2.608404782E+01  8.079276233E+02  1.250000000E+02  0.00000E+00  9.000E+00
      25     1     1     2     0     0 -8.325683182E+02  1.050595481E+02  3.644575626E+02  9.233968962E+02  1.250000000E+02  0.00000E+00  9.000E+00
      21     1     1     2   511   501  5.548815125E+01  7.546214322E+01 -8.658106498E+01  1.275529333E+02  0.000000000E+00  0.00000E+00  9.000E+00
#rwgt            1           1   3.4085001007458177E-002           2      332787           0
</event>
<event>
      5   9999  3.19816E-02  1.26979E+01 -1.00000E+00  1.84483E-01
      21    -1     0     0   512   501  0.000000000E+00  0.000000000E+00  3.402525601E+02  3.402525601E+02  0.000000000E+00  0.00000E+00  9.000E+00
      21    -1     0     0   501   502  0.000000000E+00  0.000000000E+00 -3.620930650E+02  3.620930650E+02  0.000000000E+00  0.00000E+00  9.000E+00
      25     1     1     2     0     0  3.208156413E+02 -5.562962922E+01  1.281111347E+01  3.490078165E+02  1.250000000E+02  0.00000E+00  9.000E+00
      25     1     1     2     0     0 -3.091317928E+02  5.065714546E+01 -3.984424264E+01  3.396191623E+02  1.250000000E+02  0.00000E+00  9.000E+00
      21     1     1     2   512   502 -1.168384842E+01  4.972483763E+00  5.192624329E+00  1.371864629E+01  2.528810911E-07  0.00000E+00  9.000E+00
#rwgt            1           1   2.7847098949604677E-002           2      332895           0
</event>
<event>
      5   9999  3.19816E-02  1.17246E+02 -1.00000E+00  1.20798E-01
      21    -1     0     0   511   501  0.000000000E+00  0.000000000E+00  1.242714033E+03  1.242714033E+03  0.000000000E+00  0.00000E+00  9.000E+00
      21    -1     0     0   501   502  0.000000000E+00  0.000000000E+00 -8.364786084E+02  8.364786084E+02  0.000000000E+00  0.00000E+00  9.000E+00
      25     1     1     2     0     0  5.278746703E+02  7.044362567E+02  3.155666918E+02  9.434455174E+02  1.250000000E+02  0.00000E+00  9.000E+00
      25     1     1     2     0     0 -4.497431399E+02 -7.918553399E+02 -8.653786680E+01  9.232646282E+02  1.250000000E+02  0.00000E+00  9.000E+00
      21     1     1     2   511   502 -7.813153040E+01  8.741908325E+01  1.772065998E+02  2.124824962E+02  3.303624740E-06  0.00000E+00  9.000E+00
#rwgt            1           1   3.1289477053691110E-002           2      333137           0
</event>
<event>
      5   9999  3.19816E-02  2.94354E+01 -1.00000E+00  1.53615E-01
      21    -1     0     0   502   512  0.000000000E+00  0.000000000E+00  1.690617629E+03  1.690617629E+03  0.000000000E+00  0.00000E+00  9.000E+00
      21    -1     0     0   501   502  0.000000000E+00  0.000000000E+00 -1.301425399E+03  1.301425399E+03  0.000000000E+00  0.00000E+00  9.000E+00
      25     1     1     2     0     0 -2.229196642E+02 -1.384441991E+03  5.460889263E+02  1.510036727E+03  1.250000000E+02  0.00000E+00  9.000E+00
      25     1     1     2     0     0  2.364611072E+02  1.410577639E+03 -1.766777189E+02  1.446541789E+03  1.250000000E+02  0.00000E+00  9.000E+00
      21     1     1     2   501   512 -1.354144304E+01 -2.613564779E+01  1.978102248E+01  3.546451206E+01  9.233911863E-07  0.00000E+00  9.000E+00
#rwgt            1           1   4.7250659136435044E-002           2      333256           0
</event>
<event>
      5   9999  3.19816E-02  1.73822E+02 -1.00000E+00  1.13912E-01
      21    -1     0     0   502   501  0.000000000E+00  0.000000000E+00  2.221740369E+02  2.221740369E+02  0.000000000E+00  0.00000E+00  9.000E+00
      21    -1     0     0   511   502  0.000000000E+00  0.000000000E+00 -2.719142692E+03  2.719142692E+03  0.000000000E+00  0.00000E+00  9.000E+00
      25     1     1     2     0     0 -7.591513493E+01 -2.209055276E+02  6.311895549E+01  2.723441984E+02  1.250000000E+02  0.00000E+00  9.000E+00
      25     1     1     2     0     0  4.593559823E+01  4.968861572E+01 -4.675027882E+01  1.496316353E+02  1.250000000E+02  0.00000E+00  9.000E+00
      21     1     1     2   511   501  2.997953671E+01  1.712169119E+02 -2.513337332E+03  2.519340895E+03  0.000000000E+00  0.00000E+00  9.000E+00
#rwgt            1           1   3.0264848584285447E-002           2      333449           0
</event>
<event>
      5   9999  3.19816E-02  5.37682E+01 -1.00000E+00  1.37299E-01
      21    -1     0     0   502   501  0.000000000E+00  0.000000000E+00  3.955912465E+02  3.955912465E+02  0.000000000E+00  0.00000E+00  9.000E+00
      21    -1     0     0   501   512  0.000000000E+00  0.000000000E+00 -2.113377950E+03  2.113377950E+03  0.000000000E+00  0.00000E+00  9.000E+00
      25     1     1     2     0     0 -1.136215054E+02 -1.301779772E+02 -1.123673377E+03  1.143732054E+03  1.250000000E+02  0.00000E+00  9.000E+00
      25     1     1     2     0     0  6.322932267E+01  1.489303306E+02  3.576443055E+02  4.119619398E+02  1.250000000E+02  0.00000E+00  9.000E+00
      21     1     1     2   502   512  5.039218275E+01 -1.875235335E+01 -9.517576323E+02  9.532752034E+02  1.525878906E-05  0.00000E+00  9.000E+00
#rwgt            1           1   3.5579534972114905E-002           2      333500           0
</event>
<event>
      5   9999  3.19816E-02  1.28168E+01 -1.00000E+00  1.84070E-01
       1    -1     0     0   502     0  0.000000000E+00  0.000000000E+00  3.214584664E+03  3.214584664E+03  0.000000000E+00  0.00000E+00  9.000E+00
      21    -1     0     0   501   502  0.000000000E+00  0.000000000E+00 -2.108632917E+03  2.108632917E+03  0.000000000E+00  0.00000E+00  9.000E+00
      25     1     1     2     0     0 -1.512003872E+02  1.672094886E+01 -8.408103099E+02  8.635555133E+02  1.250000000E+02  0.00000E+00  9.000E+00
      25     1     1     2     0     0  1.525643437E+02 -2.946500614E+01 -1.248524090E+03  1.264350216E+03  1.250000000E+02  0.00000E+00  9.000E+00
       1     1     1     2   501     0 -1.363956524E+00  1.274405728E+01  3.195286147E+03  3.195311852E+03  6.103515625E-05  0.00000E+00  9.000E+00
#rwgt            1           1   7.5396797510306868E-002           2      333610           0
</event>
<event>
      5   9999  3.19816E-02  4.54584E+01 -1.00000E+00  1.41477E-01
      21    -1     0     0   502   501  0.000000000E+00  0.000000000E+00  3.485397184E+02  3.485397184E+02  0.000000000E+00  0.00000E+00  9.000E+00
      21    -1     0     0   501   511  0.000000000E+00  0.000000000E+00 -1.472670834E+03  1.472670834E+03  0.000000000E+00  0.00000E+00  9.000E+00
      25     1     1     2     0     0  1.852491311E+02  6.786627604E+01 -2.019502351E+01  2.344267710E+02  1.250000000E+02  0.00000E+00  9.000E+00
      25     1     1     2     0     0 -1.970838716E+02 -1.117571497E+02  1.715672308E+02  3.104706550E+02  1.250000000E+02  0.00000E+00  9.000E+00
      21     1     1     2   502   511  1.183474049E+01  4.389087363E+01 -1.275503323E+03  1.276313127E+03  1.525878906E-05  0.00000E+00  9.000E+00
#rwgt            1           1   2.3028261359591989E-002           2      333793           0
</event>
<event>
      5   9999  3.19816E-02  9.62007E+00 -1.00000E+00  1.97722E-01
      21    -1     0     0   512   501  0.000000000E+00  0.000000000E+00  2.843163318E+02  2.843163318E+02  0.000000000E+00  0.00000E+00  9.000E+00
      21    -1     0     0   501   502  0.000000000E+00  0.000000000E+00 -4.286700082E+02  4.286700082E+02  0.000000000E+00  0.00000E+00  9.000E+00
      25     1     1     2     0     0  1.445092143E+02  2.617594088E+02  3.048077402E+01  3.255072636E+02  1.250000000E+02  0.00000E+00  9.000E+00
      25     1     1     2     0     0 -1.421331309E+02 -2.710814207E+02 -1.801186729E+02  3.765032535E+02  1.250000000E+02  0.00000E+00  9.000E+00
      21     1     1     2   512   502 -2.376083466E+00  9.322011982E+00  5.284222498E+00  1.097582286E+01  1.576990671E-07  0.00000E+00  9.000E+00
#rwgt            1           1   2.0359981596404855E-002           2      333911           0
</event>
<event>
      5   9999  3.19816E-02  1.79150E+01 -1.00000E+00  1.70413E-01
      21    -1     0     0   502   511  0.000000000E+00  0.000000000E+00  3.405874334E+02  3.405874334E+02  0.000000000E+00  0.00000E+00  9.000E+00
      21    -1     0     0   501   502  0.000000000E+00  0.000000000E+00 -7.476820840E+02  7.476820840E+02  0.000000000E+00  0.00000E+00  9.000E+00
      25     1     1     2     0     0 -1.643165914E+02 -2.919134903E+02 -1.049929188E+02  3.726418401E+02  1.250000000E+02  0.00000E+00  9.000E+00
      25     1     1     2     0     0  1.474089755E+02  2.978363434E+02 -4.463104878E+02  5.703103936E+02  1.250000000E+02  0.00000E+00  9.000E+00
      21     1     1     2   501   511  1.690761589E+01 -5.922853086E+00  1.442087560E+02  1.453172838E+02  2.697398305E-06  0.00000E+00  9.000E+00
#rwgt            1           1   2.8105807507439625E-002           2      334242           0
</event>
<event>
      5   9999  3.19816E-02  3.30191E+01 -1.00000E+00  1.50203E-01
      21    -1     0     0   502   501  0.000000000E+00  0.000000000E+00  2.435051190E+02  2.435051190E+02  0.000000000E+00  0.00000E+00  9.000E+00
      21    -1     0     0   501   512  0.000000000E+00  0.000000000E+00 -1.660376066E+02  1.660376066E+02  0.000000000E+00  0.00000E+00  9.000E+00
      25     1     1     2     0     0 -8.480565157E+01  1.017572690E+02 -1.790341243E+01  1.830083947E+02  1.250000000E+02  0.00000E+00  9.000E+00
      25     1     1     2     0     0  5.566669784E+01 -8.622719580E+01  1.041478449E+02  1.923686153E+02  1.250000000E+02  0.00000E+00  9.000E+00
      21     1     1     2   502   512  2.913895373E+01 -1.553007322E+01 -8.776920075E+00  3.416571563E+01  2.064765462E-07  0.00000E+00  9.000E+00
#rwgt            1           1   3.3847991053678944E-002           2      334442           0
</event>
<event>
      5   9999  3.19816E-02  1.78246E+01 -1.00000E+00  1.70604E-01
      21    -1     0     0   502   511  0.000000000E+00  0.000000000E+00  1.148756746E+02  1.148756746E+02  0.000000000E+00  0.00000E+00  9.000E+00
      21    -1     0     0   501   502  0.000000000E+00  0.000000000E+00 -5.942837220E+02  5.942837220E+02  0.000000000E+00  0.00000E+00  9.000E+00
      25     1     1     2     0     0  1.813597720E+02 -4.633864606E+00 -7.067178667E+01  2.313705708E+02  1.250000000E+02  0.00000E+00  9.000E+00
      25     1     1     2     0     0 -1.665263184E+02 -5.249624701E+00 -4.100478387E+02  4.599160829E+02  1.250000000E+02  0.00000E+00  9.000E+00
      21     1     1     2   501   511 -1.483345357E+01  9.883489306E+00  1.311577918E+00  1.787274300E+01  3.981706266E-07  0.00000E+00  9.000E+00
#rwgt            1           1   3.0222557580111983E-002           2      334548           0
</event>
<event>
      5   9999  3.19816E-02  5.08277E+01 -1.00000E+00  1.38670E-01
      21    -1     0     0   512   501  0.000000000E+00  0.000000000E+00  1.049444682E+02  1.049444682E+02  0.000000000E+00  0.00000E+00  9.000E+00
      21    -1     0     0   501   502  0.000000000E+00  0.000000000E+00 -4.440067906E+02  4.440067906E+02  0.000000000E+00  0.00000E+00  9.000E+00
      25     1     1     2     0     0 -3.470585543E+01  1.259253339E+02 -2.266577695E+02  2.899317689E+02  1.250000000E+02  0.00000E+00  9.000E+00
      25     1     1     2     0     0 -1.574951247E+01 -1.320659648E+02 -8.883595042E+01  2.029933307E+02  1.250000000E+02  0.00000E+00  9.000E+00
      21     1     1     2   512   502  5.045536790E+01  6.140630925E+00 -2.356860250E+01  5.602615926E+01  1.261592536E-06  0.00000E+00  9.000E+00
#rwgt            1           1   2.8557523786209724E-002           2      334681           0
</event>
<event>
      5   9999  3.19816E-02  4.71589E+01 -1.00000E+00  1.40541E-01
      21    -1     0     0   502   501  0.000000000E+00  0.000000000E+00  1.611681832E+02  1.611681832E+02  0.000000000E+00  0.00000E+00  9.000E+00
      21    -1     0     0   501   511  0.000000000E+00  0.000000000E+00 -1.462714877E+03  1.462714877E+03  0.000000000E+00  0.00000E+00  9.000E+00
      25     1     1     2     0     0 -8.752993701E+01 -1.040552935E+02 -4.111138115E+02  4.506978589E+02  1.250000000E+02  0.00000E+00  9.000E+00
      25     1     1     2     0     0  9.396278776E+01  5.733723183E+01  9.155686355E+01  1.900637338E+02  1.250000000E+02  0.00000E+00  9.000E+00
      21     1     1     2   502   511 -6.432850749E+00  4.671806169E+01 -9.819897458E+02  9.831214674E+02  2.157918644E-05  0.00000E+00  9.000E+00
#rwgt            1           1   2.8183378602663962E-002           2      334723           0
</event>
<event>
      5   9999  3.19816E-02  7.60108E+01 -1.00000E+00  1.29434E-01
      21    -1     0     0   502   501  0.000000000E+00  0.000000000E+00  3.760441469E+02  3.760441469E+02  0.000000000E+00  0.00000E+00  9.000E+00
       1    -1     0     0   501     0  0.000000000E+00  0.000000000E+00 -1.318979992E+03  1.318979992E+03  0.000000000E+00  0.00000E+00  9.000E+00
      25     1     1     2     0     0  2.227940985E+02  1.031424290E+02  2.156141672E+02  3.498428791E+02  1.250000000E+02  0.00000E+00  9.000E+00
      25     1     1     2     0     0 -2.236161347E+02 -1.791487915E+02 -1.741345163E+02  3.578355697E+02  1.250000000E+02  0.00000E+00  9.000E+00
       1     1     1     2   502     0  8.220362093E-01  7.600636250E+01 -9.844154956E+02  9.873456896E+02  1.078959322E-05  0.00000E+00  9.000E+00
#rwgt            1           1   2.5382693666863337E-002           2      334812           0
</event>
<event>
      5   9999  3.19816E-02  3.98526E+01 -1.00000E+00  1.44940E-01
      21    -1     0     0   502   501  0.000000000E+00  0.000000000E+00  5.557776788E+02  5.557776788E+02  0.000000000E+00  0.00000E+00  9.000E+00
      21    -1     0     0   511   502  0.000000000E+00  0.000000000E+00 -1.276141278E+02  1.276141278E+02  0.000000000E+00  0.00000E+00  9.000E+00
      25     1     1     2     0     0 -6.358463448E+01 -1.268035865E+02  1.582760845E+01  1.897305155E+02  1.250000000E+02  0.00000E+00  9.000E+00
      25     1     1     2     0     0  4.152594009E+01  1.599946092E+02  4.023370134E+02  4.525734759E+02  1.250000000E+02  0.00000E+00  9.000E+00
      21     1     1     2   511   501  2.205869439E+01 -3.319102269E+01  9.998929064E+00  4.108781532E+01  5.057621821E-07  0.00000E+00  9.000E+00
#rwgt            1           1   2.5171803800510376E-002           2      334931           0
</event>
<event>
      5   9999  3.19816E-02  3.43581E+01 -1.00000E+00  1.49058E-01
      21    -1     0     0   502   512  0.000000000E+00  0.000000000E+00  4.286133468E+02  4.286133468E+02  0.000000000E+00  0.00000E+00  9.000E+00
      21    -1     0     0   501   502  0.000000000E+00  0.000000000E+00 -2.731533127E+02  2.731533127E+02  0.000000000E+00  0.00000E+00  9.000E+00
      25     1     1     2     0     0  1.201489205E+02  5.455274784E+01  2.924642371E+02  3.443429909E+02  1.250000000E+02  0.00000E+00  9.000E+00
      25     1     1     2     0     0 -1.439351098E+02 -2.975963557E+01 -2.048279788E+02  2.813937680E+02  1.250000000E+02  0.00000E+00  9.000E+00
      21     1     1     2   501   512  2.378618936E+01 -2.479311227E+01  6.782377578E+01  7.602990058E+01  9.536743164E-07  0.00000E+00  9.000E+00
#rwgt            1           1   2.8063592988171286E-002           2      334984           0
</event>
<event>
      5   9999  3.19816E-02  1.30379E+01 -1.00000E+00  1.83318E-01
      21    -1     0     0   502   511  0.000000000E+00  0.000000000E+00  4.304306558E+02  4.304306558E+02  0.000000000E+00  0.00000E+00  9.000E+00
      21    -1     0     0   501   502  0.000000000E+00  0.000000000E+00 -2.368859094E+02  2.368859094E+02  0.000000000E+00  0.00000E+00  9.000E+00
      25     1     1     2     0     0  9.553420857E+01 -9.275232286E+01  1.684574748E+02  2.484606593E+02  1.250000000E+02  0.00000E+00  9.000E+00
      25     1     1     2     0     0 -8.939783080E+01  1.042558650E+02 -1.528026168E+02  2.404888713E+02  1.250000000E+02  0.00000E+00  9.000E+00
      21     1     1     2   501   511 -6.136377772E+00 -1.150354212E+01  1.778898885E+02  1.783670346E+02  3.303624740E-06  0.00000E+00  9.000E+00
#rwgt            1           1   2.8698365933682878E-002           2      335188           0
</event>
<event>
      5   9999  3.19816E-02  1.34167E+02 -1.00000E+00  1.18346E-01
      21    -1     0     0   502   501  0.000000000E+00  0.000000000E+00  4.370674953E+02  4.370674953E+02  0.000000000E+00  0.00000E+00  9.000E+00
      21    -1     0     0   512   502  0.000000000E+00  0.000000000E+00 -4.689794370E+02  4.689794370E+02  0.000000000E+00  0.00000E+00  9.000E+00
      25     1     1     2     0     0  2.021602890E+02  8.558114711E+01  2.145280259E+02  3.314214674E+02  1.250000000E+02  0.00000E+00  9.000E+00
      25     1     1     2     0     0 -1.604070282E+02 -2.130859309E+02 -5.947640983E-01  2.945528516E+02  1.250000000E+02  0.00000E+00  9.000E+00
      21     1     1     2   512   501 -4.175326071E+01  1.275047837E+02 -2.458452035E+02  2.800726134E+02  2.697398305E-06  0.00000E+00  9.000E+00
#rwgt            2          11   3.0114705280962109E-003           2      335405           0
</event>
<event>
      5   9999  3.19816E-02  6.68930E+01 -1.00000E+00  1.32227E-01
      21    -1     0     0   511   501  0.000000000E+00  0.000000000E+00  5.437497083E+02  5.437497083E+02  0.000000000E+00  0.00000E+00  9.000E+00
      21    -1     0     0   501   502  0.000000000E+00  0.000000000E+00 -3.905615449E+02  3.905615449E+02  0.000000000E+00  0.00000E+00  9.000E+00
      25     1     1     2     0     0 -1.152634955E+01  2.899482804E+02  2.902847389E+02  4.290607086E+02  1.250000000E+02  0.00000E+00  9.000E+00
      25     1     1     2     0     0  1.168008015E+01 -3.568410689E+02 -1.868223563E+02  4.218999473E+02  1.250000000E+02  0.00000E+00  9.000E+00
      21     1     1     2   511   502 -1.537306032E-01  6.689278845E+01  4.972578085E+01  8.335059724E+01  0.000000000E+00  0.00000E+00  9.000E+00
#rwgt            1           1   3.0388214640182081E-002           2      335485           0
</event>
<event>
      5   9999  3.19816E-02  3.04858E+01 -1.00000E+00  1.52557E-01
      21    -1     0     0   502   512  0.000000000E+00  0.000000000E+00  2.882493485E+02  2.882493485E+02  0.000000000E+00  0.00000E+00  9.000E+00
      21    -1     0     0   501   502  0.000000000E+00  0.000000000E+00 -4.692553558E+02  4.692553558E+02  0.000000000E+00  0.00000E+00  9.000E+00
      25     1     1     2     0     0  1.098090068E+02 -1.561949934E+02 -3.567512097E+02  4.234989015E+02  1.250000000E+02  0.00000E+00  9.000E+00
      25     1     1     2     0     0 -1.138502895E+02  1.864116990E+02  1.438194489E+02  2.898624567E+02  1.250000000E+02  0.00000E+00  9.000E+00
      21     1     1     2   501   512  4.041282621E+00 -3.021670564E+01  3.192575359E+01  4.414334613E+01  4.768371582E-07  0.00000E+00  9.000E+00
#rwgt            1           1   2.7825988759145381E-002           2      335591           0
</event>
<event>
      5   9999  3.19816E-02  1.50749E+01 -1.00000E+00  1.77180E-01
      21    -1     0     0   502   501  0.000000000E+00  0.000000000E+00  1.138358012E+02  1.138358012E+02  0.000000000E+00  0.00000E+00  9.000E+00
      21    -1     0     0   501   511  0.000000000E+00  0.000000000E+00 -2.671135674E+03  2.671135674E+03  0.000000000E+00  0.00000E+00  9.000E+00
      25     1     1     2     0     0  5.141475464E+02  9.377703136E+01 -1.235216546E+03  1.347043707E+03  1.250000000E+02  0.00000E+00  9.000E+00
      25     1     1     2     0     0 -4.991524652E+02 -9.532652649E+01 -1.130485979E+03  1.245738286E+03  1.250000000E+02  0.00000E+00  9.000E+00
      21     1     1     2   502   511 -1.499508116E+01  1.549495129E+00 -1.915973476E+02  1.921894820E+02  2.697398305E-06  0.00000E+00  9.000E+00
#rwgt            1           1   2.4674276830052053E-002           2      335757           0
</event>
<event>
      5   9999  3.19816E-02  1.37919E+02 -1.00000E+00  1.17857E-01
      21    -1     0     0   502   501  0.000000000E+00  0.000000000E+00  8.753821469E+02  8.753821469E+02  0.000000000E+00  0.00000E+00  9.000E+00
      -1    -1     0     0     0   502  0.000000000E+00  0.000000000E+00 -1.531270666E+02  1.531270666E+02  0.000000000E+00  0.00000E+00  9.000E+00
      25     1     1     2     0     0  1.636989037E+02 -4.159236176E+01  2.895378067E+01  2.121098231E+02  1.250000000E+02  0.00000E+00  9.000E+00
      25     1     1     2     0     0 -1.303220206E+02 -9.222752176E+01  6.351338125E+02  6.667156100E+02  1.250000000E+02  0.00000E+00  9.000E+00
      -1     1     1     2     0   501 -3.337688310E+01  1.338198835E+02  5.816748708E+01  1.496837804E+02  2.336015456E-06  0.00000E+00  9.000E+00
#rwgt            1           1   3.2871163567686129E-002           2      335917           0
</event>
<event>
      5   9999  3.27445E-02  1.75649E+01 -1.00000E+00  1.71160E-01
      21    -1     0     0   511   501  0.000000000E+00  0.000000000E+00  1.808737886E+02  1.808737886E+02  0.000000000E+00  0.00000E+00  9.000E+00
      21    -1     0     0   501   502  0.000000000E+00  0.000000000E+00 -3.612275106E+02  3.612275106E+02  0.000000000E+00  0.00000E+00  9.000E+00
      25     1     1     2     0     0  6.538248554E+01  1.320499693E+02 -2.300273899E+02  3.004158184E+02  1.250000000E+02  0.00000E+00  9.000E+00
      25     1     1     2     0     0 -5.320551446E+01 -1.193911354E+02 -8.359533032E+00  1.810523454E+02  1.250000000E+02  0.00000E+00  9.000E+00
      21     1     1     2   511   502 -1.217697109E+01 -1.265883393E+01  5.803320096E+01  6.063313545E+01  6.743495762E-07  0.00000E+00  9.000E+00
#rwgt            1           1   3.1673484655897949E-002           2      335954           0
</event>
<event>
      5   9999  3.19816E-02  2.43067E+02 -1.00000E+00  1.08649E-01
      21    -1     0     0   502   501  0.000000000E+00  0.000000000E+00  4.662156344E+02  4.662156344E+02  0.000000000E+00  0.00000E+00  9.000E+00
       1    -1     0     0   501     0  0.000000000E+00  0.000000000E+00 -1.433282531E+03  1.433282531E+03  0.000000000E+00  0.00000E+00  9.000E+00
      25     1     1     2     0     0 -3.030806369E+02  2.798402799E+02  2.417208652E+02  4.941886597E+02  1.250000000E+02  0.00000E+00  9.000E+00
      25     1     1     2     0     0  6.315864179E+01 -2.408650318E+02 -1.449772673E+02  3.140834055E+02  1.250000000E+02  0.00000E+00  9.000E+00
       1     1     1     2   502     0  2.399219951E+02 -3.897524811E+01 -1.063810494E+03  1.091226100E+03  0.000000000E+00  0.00000E+00  9.000E+00
#rwgt            1           1   2.5923962164282520E-002           2      336123           0
</event>
<event>
      5   9999  3.19816E-02  1.05317E+01 -1.00000E+00  1.93192E-01
      21    -1     0     0   511   501  0.000000000E+00  0.000000000E+00  3.276597999E+02  3.276597999E+02  0.000000000E+00  0.00000E+00  9.000E+00
      21    -1     0     0   501   502  0.000000000E+00  0.000000000E+00 -3.690367116E+02  3.690367116E+02  0.000000000E+00  0.00000E+00  9.000E+00
      25     1     1     2     0     0  1.262703699E+02 -1.190110160E+02  2.334273720E+02  3.165772674E+02  1.250000000E+02  0.00000E+00  9.000E+00
      25     1     1     2     0     0 -1.305800041E+02  1.094014802E+02 -2.917146228E+02  3.601975049E+02  1.250000000E+02  0.00000E+00  9.000E+00
      21     1     1     2   511   502  4.309634236E+00  9.609535843E+00  1.691033911E+01  1.992173926E+01  3.371747881E-07  0.00000E+00  9.000E+00
#rwgt            1           1   2.5529857433699323E-002           2      336165           0
</event>
<event>
      5   9999  3.19816E-02  1.33998E+02 -1.00000E+00  1.18369E-01
      21    -1     0     0   512   501  0.000000000E+00  0.000000000E+00  5.298688950E+02  5.298688950E+02  0.000000000E+00  0.00000E+00  9.000E+00
      21    -1     0     0   501   502  0.000000000E+00  0.000000000E+00 -6.418293249E+02  6.418293249E+02  0.000000000E+00  0.00000E+00  9.000E+00
      25     1     1     2     0     0  5.468683592E+02  1.097444467E+02 -8.305587942E+01  5.776089724E+02  1.250000000E+02  0.00000E+00  9.000E+00
      25     1     1     2     0     0 -4.175880559E+02 -1.449856108E+02 -2.401555445E+01  4.600025637E+02  1.250000000E+02  0.00000E+00  9.000E+00
      21     1     1     2   512   502 -1.292803033E+02  3.524116411E+01 -4.888996010E+00  1.340866838E+02  2.494153494E-06  0.00000E+00  9.000E+00
#rwgt            1           1   3.1682322607936242E-002           2      336378           0
</event>
<event>
      5   9999  3.19816E-02  1.45065E+02 -1.00000E+00  1.16972E-01
      21    -1     0     0   502   511  0.000000000E+00  0.000000000E+00  1.388069625E+03  1.388069625E+03  0.000000000E+00  0.00000E+00  9.000E+00
      21    -1     0     0   501   502  0.000000000E+00  0.000000000E+00 -4.451841880E+02  4.451841880E+02  0.000000000E+00  0.00000E+00  9.000E+00
      25     1     1     2     0     0  1.172869542E+02  2.870999499E+02 -3.126511604E+02  4.577754460E+02  1.250000000E+02  0.00000E+00  9.000E+00
      25     1     1     2     0     0  1.767642603E+01 -3.402851546E+02  5.773942400E+02  6.819938056E+02  1.250000000E+02  0.00000E+00  9.000E+00
      21     1     1     2   501   511 -1.349633802E+02  5.318520469E+01  6.781423577E+02  6.934845617E+02  1.078959322E-05  0.00000E+00  9.000E+00
#rwgt            2          11   2.3224774687712045E-003           2      336454           0
</event>
<event>
      5   9999  3.19816E-02  5.42899E+01 -1.00000E+00  1.37066E-01
      21    -1     0     0   502   501  0.000000000E+00  0.000000000E+00  4.104210927E+02  4.104210927E+02  0.000000000E+00  0.00000E+00  9.000E+00
      21    -1     0     0   512   502  0.000000000E+00  0.000000000E+00 -1.768191460E+03  1.768191460E+03  0.000000000E+00  0.00000E+00  9.000E+00
      25     1     1     2     0     0 -1.126609791E+02 -1.645707069E+02  2.506176580E+02  3.438171379E+02  1.250000000E+02  0.00000E+00  9.000E+00
      25     1     1     2     0     0  1.089158507E+02  2.187312445E+02 -5.433147763E+01  2.797908671E+02  1.250000000E+02  0.00000E+00  9.000E+00
      21     1     1     2   512   501  3.745128451E+00 -5.416053758E+01 -1.554056548E+03  1.555004548E+03  3.051757812E-05  0.00000E+00  9.000E+00
#rwgt            1           1   2.4576914660995208E-002           2      336534           0
</event>
<event>
      5   9999  3.19816E-02  3.55079E+02 -1.00000E+00  1.03267E-01
      -4    -1     0     0     0   501  0.000000000E+00  0.000000000E+00  5.719930906E+02  5.719930906E+02  0.000000000E+00  0.00000E+00  9.000E+00
      21    -1     0     0   501   502  0.000000000E+00  0.000000000E+00 -1.617329014E+03  1.617329014E+03  0.000000000E+00  0.00000E+00  9.000E+00
      25     1     1     2     0     0 -5.654387639E+02  1.249965135E+02 -2.048864777E+02  6.268561181E+02  1.250000000E+02  0.00000E+00  9.000E+00
      25     1     1     2     0     0  9.203954482E+02 -1.156895675E+02 -4.630841870E+02  1.044310213E+03  1.250000000E+02  0.00000E+00  9.000E+00
      -4     1     1     2     0   502 -3.549566843E+02 -9.306946062E+00 -3.773652589E+02  5.181557735E+02  7.629394531E-06  0.00000E+00  9.000E+00
#rwgt            2           2   7.5921275959718813E-006           2      336649           0
</event>
<event>
      5   9999  3.19816E-02  5.64861E+01 -1.00000E+00  1.36119E-01
      21    -1     0     0   502   511  0.000000000E+00  0.000000000E+00  3.678507431E+01  3.678507431E+01  0.000000000E+00  0.00000E+00  9.000E+00
      21    -1     0     0   501   502  0.000000000E+00  0.000000000E+00 -3.371349727E+03  3.371349727E+03  0.000000000E+00  0.00000E+00  9.000E+00
      25     1     1     2     0     0  1.654177366E+02  1.664264982E+02 -6.763049393E+02  7.266871251E+02  1.250000000E+02  0.00000E+00  9.000E+00
      25     1     1     2     0     0 -2.119851575E+02 -1.344553867E+02 -2.437398207E+03  2.453477324E+03  1.250000000E+02  0.00000E+00  9.000E+00
      21     1     1     2   501   511  4.656742094E+01 -3.197111146E+01 -2.208615064E+02  2.279703526E+02  2.697398305E-06  0.00000E+00  9.000E+00
#rwgt            1           1   2.6872932811687612E-002           2      336713           0
</event>
<event>
      5   9999  3.19816E-02  8.42297E+01 -1.00000E+00  1.27276E-01
      21    -1     0     0   502   501  0.000000000E+00  0.000000000E+00  6.225977569E+02  6.225977569E+02  0.000000000E+00  0.00000E+00  9.000E+00
      21    -1     0     0   501   512  0.000000000E+00  0.000000000E+00 -6.690944510E+02  6.690944510E+02  0.000000000E+00  0.00000E+00  9.000E+00
      25     1     1     2     0     0  1.022127616E+02 -1.354496538E+02  8.474470895E+01  2.271579253E+02  1.250000000E+02  0.00000E+00  9.000E+00
      25     1     1     2     0     0 -1.275845965E+02  5.513208445E+01  4.447397251E+02  4.824269884E+02  1.250000000E+02  0.00000E+00  9.000E+00
      21     1     1     2   502   512  2.537183496E+01  8.031756933E+01 -5.759811282E+02  5.821072942E+02  7.629394531E-06  0.00000E+00  9.000E+00
#rwgt            1           1   3.0959488517352390E-002           2      336879           0
</event>
<event>
      5   9999  3.19816E-02  2.49613E+02 -1.00000E+00  1.08253E-01
      21    -1     0     0   511   501  0.000000000E+00  0.000000000E+00  2.181527194E+03  2.181527194E+03  0.000000000E+00  0.00000E+00  9.000E+00
      21    -1     0     0   501   502  0.000000000E+00  0.000000000E+00 -1.952403442E+02  1.952403442E+02  0.000000000E+00  0.00000E+00  9.000E+00
      25     1     1     2     0     0 -2.243534870E+02 -4.674640261E+02  4.438113588E+02  6.938664317E+02  1.250000000E+02  0.00000E+00  9.000E+00
      25     1     1     2     0     0  3.171946478E+02  2.357587485E+02  8.256813171E+02  9.238881260E+02  1.250000000E+02  0.00000E+00  9.000E+00
      21     1     1     2   511   502 -9.284116082E+01  2.317052775E+02  7.167941737E+02  7.590129803E+02  0.000000000E+00  0.00000E+00  9.000E+00
#rwgt            1           1   2.8410894061534211E-002           2      336930           0
</event>
<event>
      5   9999  3.19816E-02  3.72112E+01 -1.00000E+00  1.46814E-01
      21    -1     0     0   512   501  0.000000000E+00  0.000000000E+00  9.882689767E+02  9.882689767E+02  0.000000000E+00  0.00000E+00  9.000E+00
      21    -1     0     0   501   502  0.000000000E+00  0.000000000E+00 -1.530901979E+02  1.530901979E+02  0.000000000E+00  0.00000E+00  9.000E+00
      25     1     1     2     0     0 -1.004374935E+02  1.032212547E+02  4.362325562E+02  4.760946971E+02  1.250000000E+02  0.00000E+00  9.000E+00
      25     1     1     2     0     0  8.624342035E+01 -1.376189155E+02 -5.308267268E+01  2.117065506E+02  1.250000000E+02  0.00000E+00  9.000E+00
      21     1     1     2   512   502  1.419407312E+01  3.439766080E+01  4.520288954E+02  4.535579269E+02  7.629394531E-06  0.00000E+00  9.000E+00
#rwgt            1           1   2.2818277280320928E-002           2      336974           0
</event>
<event>
      5   9999  3.19816E-02  1.04170E+02 -1.00000E+00  1.23035E-01
      21    -1     0     0   502   511  0.000000000E+00  0.000000000E+00  3.910525523E+02  3.910525523E+02  0.000000000E+00  0.00000E+00  9.000E+00
      21    -1     0     0   501   502  0.000000000E+00  0.000000000E+00 -6.872677454E+02  6.872677454E+02  0.000000000E+00  0.00000E+00  9.000E+00
      25     1     1     2     0     0 -5.936293803E+01 -8.907047092E+01 -6.073210640E+02  6.292228397E+02  1.250000000E+02  0.00000E+00  9.000E+00
      25     1     1     2     0     0  1.470945934E+02  3.290472167E+01  1.151275064E+02  2.271538748E+02  1.250000000E+02  0.00000E+00  9.000E+00
      21     1     1     2   501   511 -8.773165541E+01  5.616574925E+01  1.959783645E+02  2.219435832E+02  3.814697266E-06  0.00000E+00  9.000E+00
#rwgt            1           1   3.3418425192144302E-002           2      337100           0
</event>
<event>
      5   9999  3.19816E-02  1.29665E+01 -1.00000E+00  1.83559E-01
      21    -1     0     0   502   501  0.000000000E+00  0.000000000E+00  2.572996772E+02  2.572996772E+02  0.000000000E+00  0.00000E+00  9.000E+00
      21    -1     0     0   501   512  0.000000000E+00  0.000000000E+00 -2.179990110E+03  2.179990110E+03  0.000000000E+00  0.00000E+00  9.000E+00
      25     1     1     2     0     0  4.123062112E+01  4.732847061E+02 -5.949126231E+01  4.948359197E+02  1.250000000E+02  0.00000E+00  9.000E+00
      25     1     1     2     0     0 -5.402078538E+01 -4.711533960E+02 -1.482159312E+03  1.561193451E+03  1.250000000E+02  0.00000E+00  9.000E+00
      21     1     1     2   502   512  1.279016426E+01 -2.131310157E+00 -3.810398591E+02  3.812604163E+02  0.000000000E+00  0.00000E+00  9.000E+00
#rwgt            1           1   3.3651834444921362E-002           2      337164           0
</event>
<event>
      5   9999  3.19816E-02  2.94259E+01 -1.00000E+00  1.53625E-01
       2    -1     0     0   502     0  0.000000000E+00  0.000000000E+00  3.559274061E+03  3.559274061E+03  0.000000000E+00  0.00000E+00  9.000E+00
      21    -1     0     0   501   502  0.000000000E+00  0.000000000E+00 -2.799586801E+02  2.799586801E+02  0.000000000E+00  0.00000E+00  9.000E+00
      25     1     1     2     0     0 -8.608244144E+01 -1.944702718E+02  1.885059620E+03  1.901132201E+03  1.250000000E+02  0.00000E+00  9.000E+00
      25     1     1     2     0     0  5.667131649E+01  1.935368455E+02 -2.200079747E+02  3.235686289E+02  1.250000000E+02  0.00000E+00  9.000E+00
       2     1     1     2   501     0  2.941112495E+01  9.334263682E-01  1.614263735E+03  1.614531911E+03  2.157918644E-05  0.00000E+00  9.000E+00
#rwgt            1           1   2.8458988401684763E-002           2      337413           0
</event>
<event>
      5   9999  3.19816E-02  8.12919E+01 -1.00000E+00  1.28014E-01
      21    -1     0     0   502   501  0.000000000E+00  0.000000000E+00  1.606569436E+03  1.606569436E+03  0.000000000E+00  0.00000E+00  9.000E+00
      21    -1     0     0   511   502  0.000000000E+00  0.000000000E+00 -1.655182320E+02  1.655182320E+02  0.000000000E+00  0.00000E+00  9.000E+00
      25     1     1     2     0     0 -1.479840481E+02 -2.373239459E+02  1.232395596E+03  1.269899932E+03  1.250000000E+02  0.00000E+00  9.000E+00
      25     1     1     2     0     0  1.742228558E+02  1.603831030E+02  2.847233364E+02  3.908563950E+02  1.250000000E+02  0.00000E+00  9.000E+00
      21     1     1     2   511   501 -2.623880762E+01  7.694084284E+01 -7.606772764E+01  1.113313411E+02  3.303624740E-06  0.00000E+00  9.000E+00
#rwgt            1           1   2.5627402178823123E-002           2      337595           0
</event>
<event>
      5   9999  3.19816E-02  4.44878E+01 -1.00000E+00  1.42033E-01
      21    -1     0     0   502   501  0.000000000E+00  0.000000000E+00  1.205397416E+03  1.205397416E+03  0.000000000E+00  0.00000E+00  9.000E+00
      21    -1     0     0   512   502  0.000000000E+00  0.000000000E+00 -4.966337431E+01  4.966337431E+01  0.000000000E+00  0.00000E+00  9.000E+00
      25     1     1     2     0     0 -1.613760523E+02 -1.228114156E+01  3.338910811E+02  3.915371129E+02  1.250000000E+02  0.00000E+00  9.000E+00
      25     1     1     2     0     0  1.348908130E+02  4.802599983E+01  7.786660695E+02  8.015284623E+02  1.250000000E+02  0.00000E+00  9.000E+00
      21     1     1     2   512   501  2.648523928E+01 -3.574485827E+01  4.317689146E+01  6.199521553E+01  1.261592536E-06  0.00000E+00  9.000E+00
#rwgt            1           1   3.6716062527625465E-002           2      337697           0
</event>
<event>
      5   9999  3.19816E-02  3.50288E+01 -1.00000E+00  1.48508E-01
      21    -1     0     0   502   501  0.000000000E+00  0.000000000E+00  1.006242558E+02  1.006242558E+02  0.000000000E+00  0.00000E+00  9.000E+00
      21    -1     0     0   501   511  0.000000000E+00  0.000000000E+00 -6.083847955E+02  6.083847955E+02  0.000000000E+00  0.00000E+00  9.000E+00
      25     1     1     2     0     0 -1.395030299E+02 -4.662323404E+01 -1.231936398E+02  2.289901618E+02  1.250000000E+02  0.00000E+00  9.000E+00
      25     1     1     2     0     0  1.682433411E+02  6.664850910E+01 -2.175040813E+02  3.093232467E+02  1.250000000E+02  0.00000E+00  9.000E+00
      21     1     1     2   502   511 -2.874031121E+01 -2.002527506E+01 -1.670628185E+02  1.706956428E+02  2.697398305E-06  0.00000E+00  9.000E+00
#rwgt            1           1   2.8794032713083156E-002           2      337772           0
</event>
<event>
      5   9999  3.19816E-02  1.67706E+02 -1.00000E+00  1.14505E-01
      21    -1     0     0   502   501  0.000000000E+00  0.000000000E+00  3.325438924E+02  3.325438924E+02  0.000000000E+00  0.00000E+00  9.000E+00
       2    -1     0     0   501     0  0.000000000E+00  0.000000000E+00 -3.078526749E+03  3.078526749E+03  0.000000000E+00  0.00000E+00  9.000E+00
      25     1     1     2     0     0 -7.223553561E+02  3.634597001E+02 -4.154503794E+02  9.176732707E+02  1.250000000E+02  0.00000E+00  9.000E+00
      25     1     1     2     0     0  6.436382654E+02 -2.153752854E+02 -2.083437109E+03  2.194764661E+03  1.250000000E+02  0.00000E+00  9.000E+00
       2     1     1     2   502     0  7.871709076E+01 -1.480844147E+02 -2.470953687E+02  2.986327100E+02  3.814697266E-06  0.00000E+00  9.000E+00
#rwgt            1           1   1.7629902341294180E-002           2      337862           0
</event>
<event>
      5   9999  3.19816E-02  6.22203E+02 -1.00000E+00  9.62271E-02
      21    -1     0     0   502   501  0.000000000E+00  0.000000000E+00  1.147389959E+03  1.147389959E+03  0.000000000E+00  0.00000E+00  9.000E+00
      21    -1     0     0   511   502  0.000000000E+00  0.000000000E+00 -1.594186200E+03  1.594186200E+03  0.000000000E+00  0.00000E+00  9.000E+00
      25     1     1     2     0     0  6.936647432E+02 -9.409470977E+02  3.905549471E+02  1.238834284E+03  1.250000000E+02  0.00000E+00  9.000E+00
      25     1     1     2     0     0 -2.387610211E+02  5.164482869E+02 -2.101829704E+02  6.192960030E+02  1.250000000E+02  0.00000E+00  9.000E+00
      21     1     1     2   511   501 -4.549037221E+02  4.244988108E+02 -6.271682175E+02  8.834458726E+02  1.525878906E-05  0.00000E+00  9.000E+00
#rwgt            2          11   1.6619561917335861E-003           2      338027           0
</event>
<event>
      5   9999  3.19816E-02  2.42306E+02 -1.00000E+00  1.08696E-01
       2    -1     0     0   502     0  0.000000000E+00  0.000000000E+00  1.841227031E+03  1.841227031E+03  0.000000000E+00  0.00000E+00  9.000E+00
      21    -1     0     0   501   502  0.000000000E+00  0.000000000E+00 -1.021172286E+03  1.021172286E+03  0.000000000E+00  0.00000E+00  9.000E+00
      25     1     1     2     0     0 -9.392306588E+02 -4.170490569E+02 -3.897294148E+02  1.106163714E+03  1.250000000E+02  0.00000E+00  9.000E+00
      25     1     1     2     0     0  1.000432156E+03  1.825992877E+02  9.066015858E+02  1.368122229E+03  1.250000000E+02  0.00000E+00  9.000E+00
       2     1     1     2   501     0 -6.120149738E+01  2.344497692E+02  3.031825736E+02  3.881133733E+02  5.394796609E-06  0.00000E+00  9.000E+00
#rwgt            2          18   1.4147608607910696E-003           2      338062           0
</event>
<event>
      5   9999  3.19816E-02  9.62529E+01 -1.00000E+00  1.24579E-01
      21    -1     0     0   502   501  0.000000000E+00  0.000000000E+00  1.273191090E+02  1.273191090E+02  0.000000000E+00  0.00000E+00  9.000E+00
      21    -1     0     0   501   511  0.000000000E+00  0.000000000E+00 -1.533593121E+03  1.533593121E+03  0.000000000E+00  0.00000E+00  9.000E+00
      25     1     1     2     0     0 -9.077120720E+01  5.172857968E+01  4.759110913E+01  1.697208640E+02  1.250000000E+02  0.00000E+00  9.000E+00
      25     1     1     2     0     0  9.206309645E+01 -1.479728318E+02 -7.268048658E+02  7.577874937E+02  1.250000000E+02  0.00000E+00  9.000E+00
      21     1     1     2   502   511 -1.291889251E+00  9.624425211E+01 -7.270602555E+02  7.334038725E+02  1.078959322E-05  0.00000E+00  9.000E+00
#rwgt            1           1   2.5340857075469028E-002           2      338081           0
</event>
<event>
      5   9999  3.19816E-02  1.03847E+02 -1.00000E+00  1.23095E-01
      21    -1     0     0   502   501  0.000000000E+00  0.000000000E+00  2.800891476E+02  2.800891476E+02  0.000000000E+00  0.00000E+00  9.000E+00
      21    -1     0     0   501   512  0.000000000E+00  0.000000000E+00 -7.972511520E+02  7.972511520E+02  0.000000000E+00  0.00000E+00  9.000E+00
      25     1     1     2     0     0  8.430039976E+00 -2.624056144E+02 -5.544560338E+02  6.260784819E+02  1.250000000E+02  0.00000E+00  9.000E+00
      25     1     1     2     0     0  9.463102569E+01  2.496569258E+02  1.202146289E+02  3.183711177E+02  1.250000000E+02  0.00000E+00  9.000E+00
      21     1     1     2   502   512 -1.030610657E+02  1.274868859E+01 -8.292059947E+01  1.328907000E+02  2.132480600E-06  0.00000E+00  9.000E+00
#rwgt            1           1   2.8537096441335313E-002           2      338137           0
</event>
<event>
      5   9999  3.19816E-02  5.50336E+01 -1.00000E+00  1.36740E-01
      21    -1     0     0   511   501  0.000000000E+00  0.000000000E+00  5.307174697E+02  5.307174697E+02  0.000000000E+00  0.00000E+00  9.000E+00
      21    -1     0     0   501   502  0.000000000E+00  0.000000000E+00 -4.242053436E+02  4.242053436E+02  0.000000000E+00  0.00000E+00  9.000E+00
      25     1     1     2     0     0 -2.696821334E+02  2.606442606E+02 -1.560939664E+02  4.250343633E+02  1.250000000E+02  0.00000E+00  9.000E+00
      25     1     1     2     0     0  3.123306871E+02 -2.258620585E+02  2.317870740E+02  4.668129981E+02  1.250000000E+02  0.00000E+00  9.000E+00
      21     1     1     2   511   502 -4.264855372E+01 -3.478220210E+01  3.081901852E+01  6.307545180E+01  7.539457465E-07  0.00000E+00  9.000E+00
#rwgt            1           1   2.8708181755003538E-002           2      338230           0
</event>
<event>
      5   9999  3.19816E-02  3.28814E+01 -1.00000E+00  1.50324E-01
      21    -1     0     0   512   501  0.000000000E+00  0.000000000E+00  8.052685616E+02  8.052685616E+02  0.000000000E+00  0.00000E+00  9.000E+00
      21    -1     0     0   501   502  0.000000000E+00  0.000000000E+00 -6.552539146E+02  6.552539146E+02  0.000000000E+00  0.00000E+00  9.000E+00
      25     1     1     2     0     0  6.025683263E+02  2.317366161E+02 -1.279881847E+02  6.699226989E+02  1.250000000E+02  0.00000E+00  9.000E+00
      25     1     1     2     0     0 -5.816195094E+02 -2.063923514E+02  1.351690242E+02  6.440300626E+02  1.250000000E+02  0.00000E+00  9.000E+00
      21     1     1     2   512   502 -2.094881695E+01 -2.534426471E+01  1.428338075E+02  1.465697147E+02  0.000000000E+00  0.00000E+00  9.000E+00
#rwgt            1           1   2.9777660533263459E-002           2      338343           0
</event>
<event>
      5   9999  3.19816E-02  8.04897E+01 -1.00000E+00  1.28221E-01
      21    -1     0     0   502   501  0.000000000E+00  0.000000000E+00  6.311924390E+02  6.311924390E+02  0.000000000E+00  0.00000E+00  9.000E+00
      -1    -1     0     0     0   502  0.000000000E+00  0.000000000E+00 -1.099705685E+03  1.099705685E+03  0.000000000E+00  0.00000E+00  9.000E+00
      25     1     1     2     0     0  3.742128118E+02 -1.648491834E+02  1.604479761E+02  4.567045378E+02  1.250000000E+02  0.00000E+00  9.000E+00
      25     1     1     2     0     0 -4.546673801E+02  1.672285940E+02  1.252074153E+02  5.157419180E+02  1.250000000E+02  0.00000E+00  9.000E+00
      -1     1     1     2     0   501  8.045456827E+01 -2.379410592E+00 -7.541686373E+02  7.584516679E+02  0.000000000E+00  0.00000E+00  9.000E+00
#rwgt            1           1   2.6676491050933452E-002           2      338487           0
</event>
<event>
      5   9999  3.19816E-02  4.22400E+00 -1.00000E+00  2.58016E-01
      21    -1     0     0   502   501  0.000000000E+00  0.000000000E+00  1.140275202E+02  1.140275202E+02  0.000000000E+00  0.00000E+00  9.000E+00
       4    -1     0     0   501     0  0.000000000E+00  0.000000000E+00 -3.727335073E+02  3.727335073E+02  0.000000000E+00  0.00000E+00  9.000E+00
      25     1     1     2     0     0  7.535766597E+01  1.327751707E+02 -6.883265891E+01  2.089759764E+02  1.250000000E+02  0.00000E+00  9.000E+00
      25     1     1     2     0     0 -7.949849466E+01 -1.319410546E+02 -1.841718822E+02  2.706893695E+02  1.250000000E+02  0.00000E+00  9.000E+00
       4     1     1     2   502     0  4.140828697E+00 -8.341161190E-01 -5.701446010E+00  7.095681688E+00  1.192092896E-07  0.00000E+00  9.000E+00
#rwgt            1           1   2.3984137130665634E-002           2      338542           0
</event>
<event>
      5   9999  3.19816E-02  1.09043E+01 -1.00000E+00  1.91509E-01
      21    -1     0     0   502   501  0.000000000E+00  0.000000000E+00  1.025619540E+02  1.025619540E+02  0.000000000E+00  0.00000E+00  9.000E+00
      21    -1     0     0   501   511  0.000000000E+00  0.000000000E+00 -2.227418174E+02  2.227418174E+02  0.000000000E+00  0.00000E+00  9.000E+00
      25     1     1     2     0     0  3.699795691E+01  7.004073560E+01 -6.012243638E+01  1.597318403E+02  1.250000000E+02  0.00000E+00  9.000E+00
      25     1     1     2     0     0 -2.755404187E+01 -6.458947746E+01 -5.516384168E+01  1.536199051E+02  1.250000000E+02  0.00000E+00  9.000E+00
      21     1     1     2   502   511 -9.443915045E+00 -5.451258143E+00 -4.893585298E+00  1.195202593E+01  8.429369702E-08  0.00000E+00  9.000E+00
#rwgt            1           1   3.1899014478199192E-002           2      338861           0
</event>
<event>
      5   9999  3.19816E-02  3.09389E+01 -1.00000E+00  1.52116E-01
      21    -1     0     0   502   501  0.000000000E+00  0.000000000E+00  1.420576728E+03  1.420576728E+03  0.000000000E+00  0.00000E+00  9.000E+00
      21    -1     0     0   512   502  0.000000000E+00  0.000000000E+00 -5.440902704E+01  5.440902704E+01  0.000000000E+00  0.00000E+00  9.000E+00
      25     1     1     2     0     0 -9.546396777E+01 -9.617111526E+01  1.914910485E+02  2.658121032E+02  1.250000000E+02  0.00000E+00  9.000E+00
      25     1     1     2     0     0  1.263891831E+02  9.525060132E+01  1.155073643E+03  1.172547237E+03  1.250000000E+02  0.00000E+00  9.000E+00
      21     1     1     2   512   501 -3.092521531E+01  9.205139405E-01  1.960300997E+01  3.662641517E+01  8.596304120E-07  0.00000E+00  9.000E+00
#rwgt            1           1   2.7634536592956584E-002           2      338994           0
</event>
<event>
      5   9999  3.19816E-02  8.23937E+01 -1.00000E+00  1.27733E-01
      21    -1     0     0   511   501  0.000000000E+00  0.000000000E+00  4.138420425E+02  4.138420425E+02  0.000000000E+00  0.00000E+00  9.000E+00
      21    -1     0     0   501   502  0.000000000E+00  0.000000000E+00 -5.128970655E+02  5.128970655E+02  0.000000000E+00  0.00000E+00  9.000E+00
      25     1     1     2     0     0  2.022076362E+02 -8.450012375E+01 -3.710597032E+02  4.487075912E+02  1.250000000E+02  0.00000E+00  9.000E+00
      25     1     1     2     0     0 -2.558090162E+02  2.192532255E+01  2.738060787E+02  3.956181761E+02  1.250000000E+02  0.00000E+00  9.000E+00
      21     1     1     2   511   502  5.360137996E+01  6.257480120E+01 -1.801398481E+00  8.241334064E+01  6.640636908E-07  0.00000E+00  9.000E+00
#rwgt            1           1   2.4493959052812601E-002           2      339124           0
</event>
<event>
      5   9999  3.22278E-02  2.05532E+01 -1.00000E+00  1.65397E-01
      21    -1     0     0   502   501  0.000000000E+00  0.000000000E+00  8.650424670E+02  8.650424670E+02  0.000000000E+00  0.00000E+00  9.000E+00
      21    -1     0     0   501   512  0.000000000E+00  0.000000000E+00 -1.383390338E+02  1.383390338E+02  0.000000000E+00  0.00000E+00  9.000E+00
      25     1     1     2     0     0 -1.737964629E+02  2.272896718E+02  5.345217923E+02  6.190350167E+02  1.250000000E+02  0.00000E+00  9.000E+00
      25     1     1     2     0     0  1.562458945E+02 -2.379859573E+02  1.710612770E+02  3.548761135E+02  1.250000000E+02  0.00000E+00  9.000E+00
      21     1     1     2   502   512  1.755056842E+01  1.069628550E+01  2.112036379E+01  2.947037058E+01  3.371747881E-07  0.00000E+00  9.000E+00
#rwgt            1           1   2.9310436979299536E-002           2      339202           0
</event>
<event>
      5   9999  3.19816E-02  1.22977E+02 -1.00000E+00  1.19918E-01
      21    -1     0     0   502   501  0.000000000E+00  0.000000000E+00  2.298236460E+02  2.298236460E+02  0.000000000E+00  0.00000E+00  9.000E+00
      21    -1     0     0   501   511  0.000000000E+00  0.000000000E+00 -1.371634391E+03  1.371634391E+03  0.000000000E+00  0.00000E+00  9.000E+00
      25     1     1     2     0     0 -3.982917206E+01  1.753531850E+02  4.560821132E+01  2.236966950E+02  1.250000000E+02  0.00000E+00  9.000E+00
      25     1     1     2     0     0 -8.168065392E+01 -1.942906219E+02 -7.174335956E+01  2.553285817E+02  1.250000000E+02  0.00000E+00  9.000E+00
      21     1     1     2   502   511  1.215098260E+02  1.893743692E+01 -1.115675597E+03  1.122432761E+03  1.525878906E-05  0.00000E+00  9.000E+00
#rwgt            1           1   2.5963285364618668E-002           2      339333           0
</event>
<event>
      5   9999  3.19816E-02  3.59950E+01 -1.00000E+00  1.47740E-01
      21    -1     0     0   502   501  0.000000000E+00  0.000000000E+00  3.942245365E+02  3.942245365E+02  0.000000000E+00  0.00000E+00  9.000E+00
      21    -1     0     0   512   502  0.000000000E+00  0.000000000E+00 -1.038234542E+02  1.038234542E+02  0.000000000E+00  0.00000E+00  9.000E+00
      25     1     1     2     0     0  5.663801724E+01 -1.685110692E+01  7.607691681E+01  1.578116665E+02  1.250000000E+02  0.00000E+00  9.000E+00
      25     1     1     2     0     0 -2.858245674E+01 -5.699399942E+00  2.552676655E+02  2.857201796E+02  1.250000000E+02  0.00000E+00  9.000E+00
      21     1     1     2   512   501 -2.805556050E+01  2.255050687E+01 -4.094350003E+01  5.451614467E+01  0.000000000E+00  0.00000E+00  9.000E+00
#rwgt            1           1   3.2650206422321928E-002           2      339414           0
</event>
<event>
      5   9999  3.19816E-02  1.98686E+01 -1.00000E+00  1.66606E-01
      21    -1     0     0   502   501  0.000000000E+00  0.000000000E+00  8.588761919E+01  8.588761919E+01  0.000000000E+00  0.00000E+00  9.000E+00
      21    -1     0     0   511   502  0.000000000E+00  0.000000000E+00 -2.131869045E+03  2.131869045E+03  0.000000000E+00  0.00000E+00  9.000E+00
      25     1     1     2     0     0  3.039777545E+02  2.435416126E+02 -8.577655865E+02  9.503166807E+02  1.250000000E+02  0.00000E+00  9.000E+00
      25     1     1     2     0     0 -3.176486609E+02 -2.291239982E+02 -1.046869842E+03  1.124704381E+03  1.250000000E+02  0.00000E+00  9.000E+00
      21     1     1     2   511   501  1.367090634E+01 -1.441761447E+01 -1.413459972E+02  1.427356025E+02  3.303624740E-06  0.00000E+00  9.000E+00
#rwgt            1           1   2.6617224596348969E-002           2      339501           0
</event>
<event>
      5   9999  3.19816E-02  4.51988E+01 -1.00000E+00  1.41624E-01
      21    -1     0     0   502   501  0.000000000E+00  0.000000000E+00  1.352597120E+02  1.352597120E+02  0.000000000E+00  0.00000E+00  9.000E+00
      21    -1     0     0   512   502  0.000000000E+00  0.000000000E+00 -1.348725077E+03  1.348725077E+03  0.000000000E+00  0.00000E+00  9.000E+00
      25     1     1     2     0     0 -2.048048500E+02 -1.863741645E+02 -8.313020835E+02  8.850810753E+02  1.250000000E+02  0.00000E+00  9.000E+00
      25     1     1     2     0     0  2.445257671E+02  2.079422058E+02 -1.740561159E+02  3.859447411E+02  1.250000000E+02  0.00000E+00  9.000E+00
      21     1     1     2   512   501 -3.972091707E+01 -2.156804134E+01 -2.081071660E+02  2.129589731E+02  2.697398305E-06  0.00000E+00  9.000E+00
#rwgt            1           1   2.7947294480994457E-002           2      339635           0
</event>
<event>
      5   9999  3.19816E-02  5.47454E+01 -1.00000E+00  1.36865E-01
      21    -1     0     0   511   501  0.000000000E+00  0.000000000E+00  5.952441808E+02  5.952441808E+02  0.000000000E+00  0.00000E+00  9.000E+00
      21    -1     0     0   501   502  0.000000000E+00  0.000000000E+00 -1.059009134E+02  1.059009134E+02  0.000000000E+00  0.00000E+00  9.000E+00
      25     1     1     2     0     0 -1.809967179E+02  1.124709514E+01  1.132799680E+02  2.476765233E+02  1.250000000E+02  0.00000E+00  9.000E+00
      25     1     1     2     0     0  1.433476810E+02 -5.099137237E+01  2.708325075E+02  3.348491075E+02  1.250000000E+02  0.00000E+00  9.000E+00
      21     1     1     2   511   502  3.764903693E+01  3.974427723E+01  1.052307918E+02  1.186194634E+02  0.000000000E+00  0.00000E+00  9.000E+00
#rwgt            1           1   3.1078725498774822E-002           2      339746           0
</event>
<event>
      5   9999  3.19816E-02  3.57232E+01 -1.00000E+00  1.47953E-01
      21    -1     0     0   502   501  0.000000000E+00  0.000000000E+00  4.955681087E+02  4.955681087E+02  0.000000000E+00  0.00000E+00  9.000E+00
       2    -1     0     0   501     0  0.000000000E+00  0.000000000E+00 -9.157278153E+02  9.157278153E+02  0.000000000E+00  0.00000E+00  9.000E+00
      25     1     1     2     0     0  2.356392401E+02 -1.212465069E+02  3.054530042E+02  4.232648162E+02  1.250000000E+02  0.00000E+00  9.000E+00
      25     1     1     2     0     0 -2.540299793E+02  9.062095667E+01 -3.822499602E+01  2.997157629E+02  1.250000000E+02  0.00000E+00  9.000E+00
       2     1     1     2   502     0  1.839073922E+01  3.062555027E+01 -6.873877148E+02  6.883153449E+02  7.629394531E-06  0.00000E+00  9.000E+00
#rwgt            1           1   3.4790427865177831E-002           2      339837           0
</event>
<event>
      5   9999  3.19816E-02  4.67079E+01 -1.00000E+00  1.40785E-01
      21    -1     0     0   511   501  0.000000000E+00  0.000000000E+00  1.276809474E+02  1.276809474E+02  0.000000000E+00  0.00000E+00  9.000E+00
      21    -1     0     0   501   502  0.000000000E+00  0.000000000E+00 -4.218634606E+02  4.218634606E+02  0.000000000E+00  0.00000E+00  9.000E+00
      25     1     1     2     0     0 -4.884032038E+00  1.006323077E+02 -2.685458411E+02  3.128779058E+02  1.250000000E+02  0.00000E+00  9.000E+00
      25     1     1     2     0     0 -2.268998549E+01 -1.383324085E+02 -2.802520619E+01  1.898976115E+02  1.250000000E+02  0.00000E+00  9.000E+00
      21     1     1     2   511   502  2.757401753E+01  3.770010077E+01  2.388534074E+00  4.676889069E+01  1.314008694E-06  0.00000E+00  9.000E+00
#rwgt            1           1   2.9304618326506361E-002           2      339964           0
</event>
<event>
      5   9999  3.19816E-02  2.50538E+01 -1.00000E+00  1.58681E-01
      21    -1     0     0   502   501  0.000000000E+00  0.000000000E+00  8.800342566E+01  8.800342566E+01  0.000000000E+00  0.00000E+00  9.000E+00
      21    -1     0     0   501   512  0.000000000E+00  0.000000000E+00 -7.640840290E+02  7.640840290E+02  0.000000000E+00  0.00000E+00  9.000E+00
      25     1     1     2     0     0  1.067841451E+01 -1.505518632E+02 -5.179383222E+02  5.537734173E+02  1.250000000E+02  0.00000E+00  9.000E+00
      25     1     1     2     0     0 -1.293874756E+01  1.755035325E+02 -1.060293063E+02  2.404914030E+02  1.250000000E+02  0.00000E+00  9.000E+00
      21     1     1     2   502   512  2.260333054E+00 -2.495166933E+01 -5.211297483E+01  5.782263444E+01  9.536743164E-07  0.00000E+00  9.000E+00
#rwgt            1           1   3.0252404523317646E-002           2      340044           0
</event>
<event>
      5   9999  3.19816E-02  3.40816E+01 -1.00000E+00  1.49289E-01
      21    -1     0     0   502   501  0.000000000E+00  0.000000000E+00  5.608491974E+02  5.608491974E+02  0.000000000E+00  0.00000E+00  9.000E+00
      -3    -1     0     0     0   502  0.000000000E+00  0.000000000E+00 -7.354141107E+02  7.354141107E+02  0.000000000E+00  0.00000E+00  9.000E+00
      25     1     1     2     0     0  5.361240369E+01 -4.413515875E+02  2.067104797E+01  4.622962317E+02  1.250000000E+02  0.00000E+00  9.000E+00
      25     1     1     2     0     0 -8.685788342E+01  4.338487193E+02  1.526204612E+02  4.844450519E+02  1.250000000E+02  0.00000E+00  9.000E+00
      -3     1     1     2     0   501  3.324547974E+01  7.502868173E+00 -3.478564225E+02  3.495220245E+02  3.814697266E-06  0.00000E+00  9.000E+00
#rwgt            1           1   2.4558187533670863E-002           2      340186           0
</event>
<event>
      5   9999  3.19816E-02  1.55190E+02 -1.00000E+00  1.15811E-01
      -4    -1     0     0     0   501  0.000000000E+00  0.000000000E+00  8.824289399E+02  8.824289399E+02  0.000000000E+00  0.00000E+00  9.000E+00
      21    -1     0     0   501   502  0.000000000E+00  0.000000000E+00 -1.940118024E+02  1.940118024E+02  0.000000000E+00  0.00000E+00  9.000E+00
      25     1     1     2     0     0  6.328323998E+01  2.441953063E+02 -2.093358564E+00  2.815412904E+02  1.250000000E+02  0.00000E+00  9.000E+00
      25     1     1     2     0     0 -1.538411661E+02 -1.181665955E+02  4.875357066E+02  5.393945809E+02  1.250000000E+02  0.00000E+00  9.000E+00
      -4     1     1     2     0   502  9.055792616E+01 -1.260287108E+02  2.029747895E+02  2.555048710E+02  3.814697266E-06  0.00000E+00  9.000E+00
#rwgt            1           1   3.0191898056410926E-002           2      340353           0
</event>
<event>
      5   9999  3.26099E-02  2.81271E+01 -1.00000E+00  1.55010E-01
      21    -1     0     0   502   501  0.000000000E+00  0.000000000E+00  1.986860055E+03  1.986860055E+03  0.000000000E+00  0.00000E+00  9.000E+00
      21    -1     0     0   501   511  0.000000000E+00  0.000000000E+00 -9.256654850E+01  9.256654850E+01  0.000000000E+00  0.00000E+00  9.000E+00
      25     1     1     2     0     0 -4.668744815E+01  1.423148772E+02  5.493432927E+02  5.829547970E+02  1.250000000E+02  0.00000E+00  9.000E+00
      25     1     1     2     0     0  7.454399078E+01 -1.462068735E+02  1.410309154E+03  1.425317567E+03  1.250000000E+02  0.00000E+00  9.000E+00
      21     1     1     2   502   511 -2.785654263E+01  3.891996318E+00 -6.535894080E+01  7.115423912E+01  2.336015456E-06  0.00000E+00  9.000E+00
#rwgt            1           1   8.9536375040262309E-002           2      340390           0
</event>
<event>
      5   9999  3.19816E-02  1.35578E+02 -1.00000E+00  1.18161E-01
      21    -1     0     0   502   501  0.000000000E+00  0.000000000E+00  1.146538626E+02  1.146538626E+02  0.000000000E+00  0.00000E+00  9.000E+00
      21    -1     0     0   501   512  0.000000000E+00  0.000000000E+00 -7.082528086E+02  7.082528086E+02  0.000000000E+00  0.00000E+00  9.000E+00
      25     1     1     2     0     0  4.734000236E+01 -8.061180225E+01 -3.646759651E+02  3.966773223E+02  1.250000000E+02  0.00000E+00  9.000E+00
      25     1     1     2     0     0 -1.700431934E+02  2.294730677E+01 -8.547438098E+01  2.288495932E+02  1.250000000E+02  0.00000E+00  9.000E+00
      21     1     1     2   502   512  1.227031911E+02  5.766449548E+01 -1.434485998E+02  1.973797556E+02  2.697398305E-06  0.00000E+00  9.000E+00
#rwgt            1           1   2.6215831635199076E-002           2      340457           0
</event>
<event>
      5   9999  3.19816E-02  1.19373E+02 -1.00000E+00  1.20465E-01
      21    -1     0     0   502   501  0.000000000E+00  0.000000000E+00  2.496831550E+02  2.496831550E+02  0.000000000E+00  0.00000E+00  9.000E+00
      21    -1     0     0   501   511  0.000000000E+00  0.000000000E+00 -2.876419997E+02  2.876419997E+02  0.000000000E+00  0.00000E+00  9.000E+00
      25     1     1     2     0     0  2.844826525E+00  4.046668529E+01 -3.091977915E+00  1.314541973E+02  1.250000000E+02  0.00000E+00  9.000E+00
      25     1     1     2     0     0 -5.743681382E+01  6.569185411E+01  1.313520997E+02  2.012281824E+02  1.250000000E+02  0.00000E+00  9.000E+00
      21     1     1     2   502   511  5.459198730E+01 -1.061585394E+02 -1.662189665E+02  2.046427751E+02  3.303624740E-06  0.00000E+00  9.000E+00
#rwgt            1           1   2.4373451603215884E-002           2      340525           0
</event>
<event>
      5   9999  3.19816E-02  5.26498E+01 -1.00000E+00  1.37808E-01
      21    -1     0     0   502   501  0.000000000E+00  0.000000000E+00  7.157831706E+01  7.157831706E+01  0.000000000E+00  0.00000E+00  9.000E+00
       2    -1     0     0   501     0  0.000000000E+00  0.000000000E+00 -1.638729948E+03  1.638729948E+03  0.000000000E+00  0.00000E+00  9.000E+00
      25     1     1     2     0     0  2.689656000E+02 -7.055062193E+01 -1.138349888E+03  1.178467374E+03  1.250000000E+02  0.00000E+00  9.000E+00
      25     1     1     2     0     0 -2.166756846E+02  7.669566529E+01 -3.476127051E+02  4.350749017E+02  1.250000000E+02  0.00000E+00  9.000E+00
       2     1     1     2   502     0 -5.228991541E+01 -6.145043369E+00 -8.118903779E+01  9.676598922E+01  1.348699152E-06  0.00000E+00  9.000E+00
#rwgt            1           1   2.7631102410464570E-002           2      340573           0
</event>
<event>
      5   9999  3.19816E-02  1.70349E+01 -1.00000E+00  1.72332E-01
      21    -1     0     0   511   501  0.000000000E+00  0.000000000E+00  7.247882437E+02  7.247882437E+02  0.000000000E+00  0.00000E+00  9.000E+00
      21    -1     0     0   501   502  0.000000000E+00  0.000000000E+00 -5.755469252E+01  5.755469252E+01  0.000000000E+00  0.00000E+00  9.000E+00
      25     1     1     2     0     0  9.809123133E+01  4.607236718E+01  1.612786465E+02  2.310418890E+02  1.250000000E+02  0.00000E+00  9.000E+00
      25     1     1     2     0     0 -1.059420567E+02 -6.119036537E+01  3.209703039E+02  3.655337414E+02  1.250000000E+02  0.00000E+00  9.000E+00
      21     1     1     2   511   502  7.850825330E+00  1.511799819E+01  1.849846009E+02  1.857673058E+02  2.697398305E-06  0.00000E+00  9.000E+00
#rwgt            1           1   2.6391704215149216E-002           2      340677           0
</event>
<event>
      5   9999  3.19816E-02  1.78950E+01 -1.00000E+00  1.70455E-01
      21    -1     0     0   502   512  0.000000000E+00  0.000000000E+00  4.977085151E+02  4.977085151E+02  0.000000000E+00  0.00000E+00  9.000E+00
      21    -1     0     0   501   502  0.000000000E+00  0.000000000E+00 -2.112744258E+02  2.112744258E+02  0.000000000E+00  0.00000E+00  9.000E+00
      25     1     1     2     0     0 -3.096040440E+00  1.331290631E+02  1.406500492E+02  2.305219496E+02  1.250000000E+02  0.00000E+00  9.000E+00
      25     1     1     2     0     0  1.592225151E+01 -1.456078407E+02 -1.101912629E+02  2.218609380E+02  1.250000000E+02  0.00000E+00  9.000E+00
      21     1     1     2   501   512 -1.282621107E+01  1.247877760E+01  2.559753030E+02  2.566000533E+02  2.697398305E-06  0.00000E+00  9.000E+00
#rwgt            1           1   2.9739565839066690E-002           2      340812           0
</event>
<event>
      5   9999  3.19816E-02  4.40580E+01 -1.00000E+00  1.42285E-01
      21    -1     0     0   502   511  0.000000000E+00  0.000000000E+00  6.399616761E+02  6.399616761E+02  0.000000000E+00  0.00000E+00  9.000E+00
      21    -1     0     0   501   502  0.000000000E+00  0.000000000E+00 -5.072483374E+02  5.072483374E+02  0.000000000E+00  0.00000E+00  9.000E+00
      25     1     1     2     0     0 -1.511311554E+02  7.215314518E+01  4.737719156E+02  5.178141853E+02  1.250000000E+02  0.00000E+00  9.000E+00
      25     1     1     2     0     0  1.579605661E+02 -1.156786574E+02 -4.530064094E+02  5.090902662E+02  1.250000000E+02  0.00000E+00  9.000E+00
      21     1     1     2   501   511 -6.829410713E+00  4.352551223E+01  1.119478325E+02  1.203055621E+02  0.000000000E+00  0.00000E+00  9.000E+00
#rwgt            1           1   2.9696801522612986E-002           2      341021           0
</event>
<event>
      5   9999  3.19816E-02  6.53734E+01 -1.00000E+00  1.32743E-01
      21    -1     0     0   512   501  0.000000000E+00  0.000000000E+00  1.091331446E+03  1.091331446E+03  0.000000000E+00  0.00000E+00  9.000E+00
      21    -1     0     0   501   502  0.000000000E+00  0.000000000E+00 -5.117096247E+02  5.117096247E+02  0.000000000E+00  0.00000E+00  9.000E+00
      25     1     1     2     0     0  4.727764406E+02 -3.179160011E+02 -1.870925469E+02  6.125494002E+02  1.250000000E+02  0.00000E+00  9.000E+00
      25     1     1     2     0     0 -4.447099119E+02  2.588740791E+02  5.472819709E+02  7.615282334E+02  1.250000000E+02  0.00000E+00  9.000E+00
      21     1     1     2   512   502 -2.806652867E+01  5.904192197E+01  2.194323976E+02  2.289634374E+02  0.000000000E+00  0.00000E+00  9.000E+00
#rwgt            1           1   2.7606247435145101E-002           2      341182           0
</event>
<event>
      5   9999  3.19816E-02  6.08845E+01 -1.00000E+00  1.34365E-01
      21    -1     0     0   511   501  0.000000000E+00  0.000000000E+00  1.206715512E+02  1.206715512E+02  0.000000000E+00  0.00000E+00  9.000E+00
      21    -1     0     0   501   502  0.000000000E+00  0.000000000E+00 -6.618143251E+02  6.618143251E+02  0.000000000E+00  0.00000E+00  9.000E+00
      25     1     1     2     0     0  1.103555219E+02  1.231759861E+02 -4.796908561E+02  5.225695956E+02  1.250000000E+02  0.00000E+00  9.000E+00
      25     1     1     2     0     0 -1.086607040E+02 -6.231509570E+01 -8.283070931E+01  1.953874258E+02  1.250000000E+02  0.00000E+00  9.000E+00
      21     1     1     2   511   502 -1.694817878E+00 -6.086089044E+01  2.137879151E+01  6.452885494E+01  9.830249847E-07  0.00000E+00  9.000E+00
#rwgt            1           1   2.8818030547048876E-002           2      341260           0
</event>
<event>
      5   9999  3.19816E-02  1.21516E+02 -1.00000E+00  1.20137E-01
       1    -1     0     0   502     0  0.000000000E+00  0.000000000E+00  1.765821871E+03  1.765821871E+03  0.000000000E+00  0.00000E+00  9.000E+00
      21    -1     0     0   501   502  0.000000000E+00  0.000000000E+00 -8.988424687E+02  8.988424687E+02  0.000000000E+00  0.00000E+00  9.000E+00
      25     1     1     2     0     0 -7.623479322E+02 -6.342705218E+02 -7.472402530E+01  1.002338338E+03  1.250000000E+02  0.00000E+00  9.000E+00
      25     1     1     2     0     0  8.046717566E+02  5.203633575E+02  3.038888760E+02  1.013039046E+03  1.250000000E+02  0.00000E+00  9.000E+00
       1     1     1     2   501     0 -4.232382432E+01  1.139071643E+02  6.378145517E+02  6.492869555E+02  7.629394531E-06  0.00000E+00  9.000E+00
#rwgt            1           1   3.5612986724564651E-002           2      341366           0
</event>
<event>
      5   9999  3.19816E-02  1.53066E+02 -1.00000E+00  1.16046E-01
       2    -1     0     0   502     0  0.000000000E+00  0.000000000E+00  2.084416621E+03  2.084416621E+03  0.000000000E+00  0.00000E+00  9.000E+00
      21    -1     0     0   501   502  0.000000000E+00  0.000000000E+00 -3.819191855E+02  3.819191855E+02  0.000000000E+00  0.00000E+00  9.000E+00
      25     1     1     2     0     0  1.778281556E+02  2.293929377E+02  2.396234056E+02  3.965959522E+02  1.250000000E+02  0.00000E+00  9.000E+00
      25     1     1     2     0     0 -1.548804456E+02 -3.807287839E+02 -1.458916534E+02  4.537088646E+02  1.250000000E+02  0.00000E+00  9.000E+00
       2     1     1     2   501     0 -2.294771001E+01  1.513358462E+02  1.608765684E+03  1.616030990E+03  3.051757812E-05  0.00000E+00  9.000E+00
#rwgt            1           1   2.1311703987377185E-002           2      341481           0
</event>
<event>
      5   9999  3.19816E-02  1.64225E+01 -1.00000E+00  1.73755E-01
      -1    -1     0     0     0   501  0.000000000E+00  0.000000000E+00  5.673888784E+02  5.673888784E+02  0.000000000E+00  0.00000E+00  9.000E+00
      21    -1     0     0   501   502  0.000000000E+00  0.000000000E+00 -1.610880740E+02  1.610880740E+02  0.000000000E+00  0.00000E+00  9.000E+00
      25     1     1     2     0     0  8.889363414E+01 -1.388909682E+01 -9.997710818E+01  1.836175573E+02  1.250000000E+02  0.00000E+00  9.000E+00
      25     1     1     2     0     0 -8.976698240E+01 -2.510119269E+00  2.931407795E+02  3.310905139E+02  1.250000000E+02  0.00000E+00  9.000E+00
      -1     1     1     2     0   502  8.733482659E-01  1.639921608E+01  2.131371331E+02  2.137688811E+02  0.000000000E+00  0.00000E+00  9.000E+00
#rwgt            1           1   2.6610231171137335E-002           2      341554           0
</event>
<event>
      5   9999  3.19816E-02  1.58870E+02 -1.00000E+00  1.15413E-01
       1    -1     0     0   502     0  0.000000000E+00  0.000000000E+00  3.347855021E+02  3.347855021E+02  0.000000000E+00  0.00000E+00  9.000E+00
      21    -1     0     0   501   502  0.000000000E+00  0.000000000E+00 -4.006776807E+02  4.006776807E+02  0.000000000E+00  0.00000E+00  9.000E+00
      25     1     1     2     0     0  1.688697800E+02  7.565795909E+01  1.540225661E+02  2.712730732E+02  1.250000000E+02  0.00000E+00  9.000E+00
      25     1     1     2     0     0 -7.425003931E+01 -2.032776960E+02 -1.339380941E+02  2.835477087E+02  1.250000000E+02  0.00000E+00  9.000E+00
       1     1     1     2   501     0 -9.461974069E+01  1.276197370E+02 -8.597665063E+01  1.806424010E+02  4.768371582E-06  0.00000E+00  9.000E+00
#rwgt            1           1   2.8094913666335274E-002           2      341699           0
</event>
<event>
      5   9999  3.19816E-02  8.63801E+01 -1.00000E+00  1.26757E-01
      21    -1     0     0   502   501  0.000000000E+00  0.000000000E+00  2.279844189E+02  2.279844189E+02  0.000000000E+00  0.00000E+00  9.000E+00
       1    -1     0     0   501     0  0.000000000E+00  0.000000000E+00 -8.664435233E+02  8.664435233E+02  0.000000000E+00  0.00000E+00  9.000E+00
      25     1     1     2     0     0  2.544564844E+02  6.644884055E+00 -6.137664335E+02  6.761113014E+02  1.250000000E+02  0.00000E+00  9.000E+00
      25     1     1     2     0     0 -2.816891050E+02  7.533011399E+01  2.573661632E+01  3.182934988E+02  1.250000000E+02  0.00000E+00  9.000E+00
       1     1     1     2   502     0  2.723262058E+01 -8.197499805E+01 -5.042928720E+01  1.000231420E+02  9.536743164E-07  0.00000E+00  9.000E+00
#rwgt            1           1   3.0416855430515879E-002           2      341746           0
</event>
<event>
      5   9999  3.19816E-02  2.85351E+02 -1.00000E+00  1.06303E-01
      21    -1     0     0   502   501  0.000000000E+00  0.000000000E+00  6.107292056E+02  6.107292056E+02  0.000000000E+00  0.00000E+00  9.000E+00
      21    -1     0     0   511   502  0.000000000E+00  0.000000000E+00 -6.827538008E+02  6.827538008E+02  0.000000000E+00  0.00000E+00  9.000E+00
      25     1     1     2     0     0  9.924714091E+01  4.100738958E+02  1.961459150E+02  4.817767273E+02  1.250000000E+02  0.00000E+00  9.000E+00
      25     1     1     2     0     0  1.857674230E+02 -3.962255838E+02 -6.122783797E+01  4.592146523E+02  1.250000000E+02  0.00000E+00  9.000E+00
      21     1     1     2   511   501 -2.850145639E+02 -1.384831195E+01 -2.069426722E+02  3.524916268E+02  0.000000000E+00  0.00000E+00  9.000E+00
#rwgt            1           1   2.2310560179822848E-002           2      341839           0
</event>
<event>
      5   9999  3.19816E-02  7.44834E+01 -1.00000E+00  1.29870E-01
      21    -1     0     0   502   512  0.000000000E+00  0.000000000E+00  3.432022644E+02  3.432022644E+02  0.000000000E+00  0.00000E+00  9.000E+00
      21    -1     0     0   501   502  0.000000000E+00  0.000000000E+00 -1.769928607E+03  1.769928607E+03  0.000000000E+00  0.00000E+00  9.000E+00
      25     1     1     2     0     0  1.829704137E+01  8.092142846E+01 -1.390285709E+03  1.398357040E+03  1.250000000E+02  0.00000E+00  9.000E+00
      25     1     1     2     0     0 -3.828860630E+00 -1.539861099E+02 -3.446664420E+02  3.976761729E+02  1.250000000E+02  0.00000E+00  9.000E+00
      21     1     1     2   501   512 -1.446818074E+01  7.306468148E+01  3.082258085E+02  3.170976583E+02  9.344061824E-06  0.00000E+00  9.000E+00
#rwgt            1           1   2.3871454770898207E-002           2      341875           0
</event>
<event>
      5   9999  3.19816E-02  1.61081E+01 -1.00000E+00  1.74516E-01
      21    -1     0     0   502   501  0.000000000E+00  0.000000000E+00  2.083674066E+03  2.083674066E+03  0.000000000E+00  0.00000E+00  9.000E+00
      21    -1     0     0   501   511  0.000000000E+00  0.000000000E+00 -1.663782107E+02  1.663782107E+02  0.000000000E+00  0.00000E+00  9.000E+00
      25     1     1     2     0     0 -3.235871820E+01 -2.640954648E+01  2.000772833E+03  2.005108845E+03  1.250000000E+02  0.00000E+00  9.000E+00
      25     1     1     2     0     0  4.713545745E+01  3.282183770E+01  2.106469740E+01  1.391680490E+02  1.250000000E+02  0.00000E+00  9.000E+00
      21     1     1     2   502   511 -1.477673924E+01 -6.412291213E+00 -1.045416757E+02  1.057753821E+02  0.000000000E+00  0.00000E+00  9.000E+00
#rwgt            1           1   2.4289890942808298E-002           2      341958           0
</event>
<event>
      5   9999  3.19816E-02  5.07409E+01 -1.00000E+00  1.38712E-01
      21    -1     0     0   502   501  0.000000000E+00  0.000000000E+00  1.284788745E+02  1.284788745E+02  0.000000000E+00  0.00000E+00  9.000E+00
      21    -1     0     0   512   502  0.000000000E+00  0.000000000E+00 -8.186775131E+02  8.186775131E+02  0.000000000E+00  0.00000E+00  9.000E+00
      25     1     1     2     0     0  9.991161231E+01  9.012809750E+01 -4.637082498E+02  4.987541931E+02  1.250000000E+02  0.00000E+00  9.000E+00
      25     1     1     2     0     0 -9.270391060E+01 -1.403544996E+02  6.780181523E+00  2.096768263E+02  1.250000000E+02  0.00000E+00  9.000E+00
      21     1     1     2   512   501 -7.207701712E+00  5.022640214E+01 -2.332705703E+02  2.387253682E+02  2.697398305E-06  0.00000E+00  9.000E+00
#rwgt            1           1   2.7272076624670433E-002           2      342163           0
</event>
<event>
      5   9999  3.19816E-02  8.57372E+01 -1.00000E+00  1.26910E-01
      21    -1     0     0   502   501  0.000000000E+00  0.000000000E+00  1.305734514E+02  1.305734514E+02  0.000000000E+00  0.00000E+00  9.000E+00
      21    -1     0     0   501   511  0.000000000E+00  0.000000000E+00 -2.210713031E+03  2.210713031E+03  0.000000000E+00  0.00000E+00  9.000E+00
      25     1     1     2     0     0  2.889326860E+01 -3.201289840E+02 -1.557317701E+03  1.595048842E+03  1.250000000E+02  0.00000E+00  9.000E+00
      25     1     1     2     0     0 -5.753402994E+01  4.009409003E+02 -3.367996892E+02  5.414081647E+02  1.250000000E+02  0.00000E+00  9.000E+00
      21     1     1     2   502   511  2.864076134E+01 -8.081191636E+01 -1.860221889E+02  2.048294749E+02  0.000000000E+00  0.00000E+00  9.000E+00
#rwgt            1           1   3.2969575462553045E-002           2      342305           0
</event>
<event>
      5   9999  3.19816E-02  2.26325E+01 -1.00000E+00  1.62057E-01
      21    -1     0     0   502   501  0.000000000E+00  0.000000000E+00  4.378288588E+02  4.378288588E+02  0.000000000E+00  0.00000E+00  9.000E+00
      21    -1     0     0   501   512  0.000000000E+00  0.000000000E+00 -2.061982800E+02  2.061982800E+02  0.000000000E+00  0.00000E+00  9.000E+00
      25     1     1     2     0     0  8.032402270E+01 -2.172069319E+02  2.033796223E+02  3.325944537E+02  1.250000000E+02  0.00000E+00  9.000E+00
      25     1     1     2     0     0 -9.218574972E+01  2.364820277E+02  4.031834636E+01  2.857840635E+02  1.250000000E+02  0.00000E+00  9.000E+00
      21     1     1     2   502   512  1.186172702E+01 -1.927509587E+01 -1.206738989E+01  2.564862155E+01  3.371747881E-07  0.00000E+00  9.000E+00
#rwgt            1           1   2.7122792831972650E-002           2      342414           0
</event>
<event>
      5   9999  3.19816E-02  1.83023E+02 -1.00000E+00  1.13069E-01
      21    -1     0     0   511   501  0.000000000E+00  0.000000000E+00  8.505873193E+02  8.505873193E+02  0.000000000E+00  0.00000E+00  9.000E+00
      21    -1     0     0   501   502  0.000000000E+00  0.000000000E+00 -7.012645783E+02  7.012645783E+02  0.000000000E+00  0.00000E+00  9.000E+00
      25     1     1     2     0     0 -3.107131944E+02  4.752252317E+02 -3.364094035E+02  6.716978463E+02  1.250000000E+02  0.00000E+00  9.000E+00
      25     1     1     2     0     0  1.285258599E+02 -4.926998904E+02  4.557362282E+02  6.946888428E+02  1.250000000E+02  0.00000E+00  9.000E+00
      21     1     1     2   511   502  1.821873345E+02  1.747465876E+01  2.999591623E+01  1.854652084E+02  4.156969970E-06  0.00000E+00  9.000E+00
#rwgt            2          11   6.6378812751027730E-003           2      342788           0
</event>
<event>
      5   9999  3.19816E-02  2.50549E+02 -1.00000E+00  1.08198E-01
      21    -1     0     0   502   501  0.000000000E+00  0.000000000E+00  8.198949824E+02  8.198949824E+02  0.000000000E+00  0.00000E+00  9.000E+00
      21    -1     0     0   501   512  0.000000000E+00  0.000000000E+00 -5.900448002E+02  5.900448002E+02  0.000000000E+00  0.00000E+00  9.000E+00
      25     1     1     2     0     0 -5.600919965E+02 -1.945160321E+02 -1.636427328E+02  6.276491657E+02  1.250000000E+02  0.00000E+00  9.000E+00
      25     1     1     2     0     0  3.208361162E+02  1.201422860E+02  3.868601285E+02  5.316537797E+02  1.250000000E+02  0.00000E+00  9.000E+00
      21     1     1     2   502   512  2.392558802E+02  7.437374611E+01  6.632786443E+00  2.506368372E+02  3.038083300E-06  0.00000E+00  9.000E+00
#rwgt            1           1   2.7931252060966957E-002           2      342838           0
</event>
<event>
      5   9999  3.19816E-02  8.41347E+01 -1.00000E+00  1.27299E-01
      21    -1     0     0   502   501  0.000000000E+00  0.000000000E+00  9.294710659E+02  9.294710659E+02  0.000000000E+00  0.00000E+00  9.000E+00
      21    -1     0     0   511   502  0.000000000E+00  0.000000000E+00 -2.452209345E+02  2.452209345E+02  0.000000000E+00  0.00000E+00  9.000E+00
      25     1     1     2     0     0 -2.048720020E+02  2.053364872E+02  3.191111770E+02  4.489905939E+02  1.250000000E+02  0.00000E+00  9.000E+00
      25     1     1     2     0     0  1.387809204E+02 -1.532729538E+02  5.065113591E+02  5.611875792E+02  1.250000000E+02  0.00000E+00  9.000E+00
      21     1     1     2   511   501  6.609108157E+01 -5.206353341E+01 -1.413724046E+02  1.645138273E+02  2.697398305E-06  0.00000E+00  9.000E+00
#rwgt            1           1   2.7925829035026450E-002           2      342893           0
</event>
<event>
      5   9999  3.19816E-02  2.69426E+01 -1.00000E+00  1.56354E-01
      21    -1     0     0   502   501  0.000000000E+00  0.000000000E+00  1.014229438E+03  1.014229438E+03  0.000000000E+00  0.00000E+00  9.000E+00
      -2    -1     0     0     0   502  0.000000000E+00  0.000000000E+00 -1.049205410E+02  1.049205410E+02  0.000000000E+00  0.00000E+00  9.000E+00
      25     1     1     2     0     0  8.020076998E+01 -2.315154583E+01  3.643610281E+02  3.941473282E+02  1.250000000E+02  0.00000E+00  9.000E+00
      25     1     1     2     0     0 -9.470530360E+01  4.585666832E+01  6.221429784E+02  6.432408679E+02  1.250000000E+02  0.00000E+00  9.000E+00
      -2     1     1     2     0   501  1.450453362E+01 -2.270512249E+01 -7.719510990E+01  8.176178248E+01  1.348699152E-06  0.00000E+00  9.000E+00
#rwgt            1           1   2.9078227599770131E-002           2      342961           0
</event>
<event>
      5   9999  3.19816E-02  1.42873E+02 -1.00000E+00  1.17238E-01
      21    -1     0     0   502   501  0.000000000E+00  0.000000000E+00  2.218260546E+02  2.218260546E+02  0.000000000E+00  0.00000E+00  9.000E+00
       2    -1     0     0   501     0  0.000000000E+00  0.000000000E+00 -2.009759599E+03  2.009759599E+03  0.000000000E+00  0.00000E+00  9.000E+00
      25     1     1     2     0     0 -3.058343967E+01 -7.296949273E+00 -3.091860949E+02  3.349770642E+02  1.250000000E+02  0.00000E+00  9.000E+00
      25     1     1     2     0     0  1.007322509E+02  1.317634234E+02  1.534149557E+02  2.582048310E+02  1.250000000E+02  0.00000E+00  9.000E+00
       2     1     1     2   502     0 -7.014881121E+01 -1.244664742E+02 -1.632162405E+03  1.638403758E+03  3.051757812E-05  0.00000E+00  9.000E+00
#rwgt            2          13   2.5910369186131627E-003           2      343158           0
</event>
<event>
      5   9999  3.19816E-02  7.93738E+01 -1.00000E+00  1.28515E-01
      21    -1     0     0   511   501  0.000000000E+00  0.000000000E+00  3.560117382E+02  3.560117382E+02  0.000000000E+00  0.00000E+00  9.000E+00
      21    -1     0     0   501   502  0.000000000E+00  0.000000000E+00 -7.530990097E+02  7.530990097E+02  0.000000000E+00  0.00000E+00  9.000E+00
      25     1     1     2     0     0 -1.523022515E+02  4.621216521E+02 -2.812361016E+02  5.757353055E+02  1.250000000E+02  0.00000E+00  9.000E+00
      25     1     1     2     0     0  9.041597485E+01 -4.124195958E+02 -1.095472975E+02  4.537516743E+02  1.250000000E+02  0.00000E+00  9.000E+00
      21     1     1     2   511   502  6.188627664E+01 -4.970205628E+01 -6.303872456E+00  7.962376808E+01  1.212775108E-06  0.00000E+00  9.000E+00
#rwgt            1           1   3.0686688379727864E-002           2      343192           0
</event>
<event>
      5   9999  3.19816E-02  1.70052E+02 -1.00000E+00  1.14274E-01
      21    -1     0     0   502   501  0.000000000E+00  0.000000000E+00  2.118193323E+02  2.118193323E+02  0.000000000E+00  0.00000E+00  9.000E+00
      21    -1     0     0   501   512  0.000000000E+00  0.000000000E+00 -3.420168521E+02  3.420168521E+02  0.000000000E+00  0.00000E+00  9.000E+00
      25     1     1     2     0     0  4.960211054E+01  1.720701941E+02 -1.051551617E+02  2.423863220E+02  1.250000000E+02  0.00000E+00  9.000E+00
      25     1     1     2     0     0 -4.979678486E+01 -2.018541396E+00  1.870073193E+01  1.358621053E+02  1.250000000E+02  0.00000E+00  9.000E+00
      21     1     1     2   502   512  1.946743244E-01 -1.700516527E+02 -4.374309000E+01  1.755877570E+02  9.536743164E-07  0.00000E+00  9.000E+00
#rwgt            1           1   2.7849848216989839E-002           2      343282           0
</event>
<event>
      5   9999  3.19816E-02  6.06942E+01 -1.00000E+00  1.34437E-01
      21    -1     0     0   511   501  0.000000000E+00  0.000000000E+00  8.832524027E+02  8.832524027E+02  0.000000000E+00  0.00000E+00  9.000E+00
      21    -1     0     0   501   502  0.000000000E+00  0.000000000E+00 -9.439003012E+02  9.439003012E+02  0.000000000E+00  0.00000E+00  9.000E+00
      25     1     1     2     0     0 -5.074375421E+02  5.437999110E+02  3.702880570E+02  8.402079788E+02  1.250000000E+02  0.00000E+00  9.000E+00
      25     1     1     2     0     0  5.605559246E+02 -5.731636363E+02 -4.438951967E+02  9.248823948E+02  1.250000000E+02  0.00000E+00  9.000E+00
      21     1     1     2   511   502 -5.311838247E+01  2.936372526E+01  1.295924121E+01  6.206233036E+01  1.238859277E-06  0.00000E+00  9.000E+00
#rwgt            1           1   3.5531829009832754E-002           2      343334           0
</event>
<event>
      5   9999  3.19816E-02  2.91157E+01 -1.00000E+00  1.53948E-01
      21    -1     0     0   502   501  0.000000000E+00  0.000000000E+00  3.385251302E+01  3.385251302E+01  0.000000000E+00  0.00000E+00  9.000E+00
      21    -1     0     0   501   512  0.000000000E+00  0.000000000E+00 -1.695953643E+03  1.695953643E+03  0.000000000E+00  0.00000E+00  9.000E+00
      25     1     1     2     0     0  2.538591162E+01  6.910002537E+01 -1.182999363E+03  1.191860626E+03  1.250000000E+02  0.00000E+00  9.000E+00
      25     1     1     2     0     0  3.700042090E+00 -7.041631972E+01 -1.501470103E+02  2.077047739E+02  1.250000000E+02  0.00000E+00  9.000E+00
      21     1     1     2   502   512 -2.908595371E+01  1.316294349E+00 -3.289547562E+02  3.302407560E+02  6.607249480E-06  0.00000E+00  9.000E+00
#rwgt            1           1   4.3798814462881946E-002           2      343441           0
</event>
<event>
      5   9999  3.19816E-02  4.38577E+01 -1.00000E+00  1.42403E-01
       2    -1     0     0   502     0  0.000000000E+00  0.000000000E+00  1.306521875E+03  1.306521875E+03  0.000000000E+00  0.00000E+00  9.000E+00
      21    -1     0     0   501   502  0.000000000E+00  0.000000000E+00 -1.347824951E+03  1.347824951E+03  0.000000000E+00  0.00000E+00  9.000E+00
      25     1     1     2     0     0  6.145445509E+02  4.669420153E+02 -5.240819623E+02  9.412686938E+02  1.250000000E+02  0.00000E+00  9.000E+00
      25     1     1     2     0     0 -5.908235556E+02 -5.038311861E+02 -3.629697965E+02  8.661930565E+02  1.250000000E+02  0.00000E+00  9.000E+00
       2     1     1     2   501     0 -2.372099529E+01  3.688917081E+01  8.457486828E+02  8.468850755E+02  1.078959322E-05  0.00000E+00  9.000E+00
#rwgt            1           1   3.0015346008465133E-002           2      343527           0
</event>
<event>
      5   9999  3.19816E-02  1.15497E+02 -1.00000E+00  1.21078E-01
      21    -1     0     0   502   511  0.000000000E+00  0.000000000E+00  5.735270963E+02  5.735270963E+02  0.000000000E+00  0.00000E+00  9.000E+00
      21    -1     0     0   501   502  0.000000000E+00  0.000000000E+00 -4.846142670E+02  4.846142670E+02  0.000000000E+00  0.00000E+00  9.000E+00
      25     1     1     2     0     0 -1.893799855E+02 -2.459690328E+02 -3.008439561E+02  4.499973666E+02  1.250000000E+02  0.00000E+00  9.000E+00
      25     1     1     2     0     0  2.610801677E+02  1.554231533E+02  3.629677548E+02  4.895812513E+02  1.250000000E+02  0.00000E+00  9.000E+00
      21     1     1     2   501   511 -7.170018223E+01  9.054587953E+01  2.678903060E+01  1.185627454E+02  0.000000000E+00  0.00000E+00  9.000E+00
#rwgt            1           1   2.9223503239607589E-002           2      343726           0
</event>
<event>
      5   9999  3.19816E-02  1.61385E+02 -1.00000E+00  1.15148E-01
      21    -1     0     0   512   501  0.000000000E+00  0.000000000E+00  9.131595198E+02  9.131595198E+02  0.000000000E+00  0.00000E+00  9.000E+00
      21    -1     0     0   501   502  0.000000000E+00  0.000000000E+00 -4.614554582E+02  4.614554582E+02  0.000000000E+00  0.00000E+00  9.000E+00
      25     1     1     2     0     0 -2.372320803E+02 -1.738828614E+02  1.026566370E+02  3.356749835E+02  1.250000000E+02  0.00000E+00  9.000E+00
      25     1     1     2     0     0  1.495314769E+02  3.840656980E+01 -3.057138309E+02  3.645828761E+02  1.250000000E+02  0.00000E+00  9.000E+00
      21     1     1     2   512   502  8.770060343E+01  1.354762916E+02  6.547612554E+02  6.743571183E+02  1.321449896E-05  0.00000E+00  9.000E+00
#rwgt            2          11   3.0807183690385715E-003           2      343822           0
</event>
<event>
      5   9999  3.19816E-02  1.88158E+01 -1.00000E+00  1.68586E-01
      21    -1     0     0   502   501  0.000000000E+00  0.000000000E+00  9.506566463E+02  9.506566463E+02  0.000000000E+00  0.00000E+00  9.000E+00
      21    -1     0     0   511   502  0.000000000E+00  0.000000000E+00 -1.461484727E+03  1.461484727E+03  0.000000000E+00  0.00000E+00  9.000E+00
      25     1     1     2     0     0 -1.594463097E+02 -1.745633303E+02  9.097355191E+02  9.482295064E+02  1.250000000E+02  0.00000E+00  9.000E+00
      25     1     1     2     0     0  1.603932223E+02  1.557714136E+02 -7.398664153E+02  7.829546804E+02  1.250000000E+02  0.00000E+00  9.000E+00
      21     1     1     2   511   501 -9.469125546E-01  1.879191670E+01 -6.806971842E+02  6.809571861E+02  7.629394531E-06  0.00000E+00  9.000E+00
#rwgt            1           1   3.4869600517048967E-002           2      343842           0
</event>
<event>
      5   9999  3.19816E-02  2.11883E+02 -1.00000E+00  1.10743E-01
      21    -1     0     0   512   501  0.000000000E+00  0.000000000E+00  9.412284493E+02  9.412284493E+02  0.000000000E+00  0.00000E+00  9.000E+00
      21    -1     0     0   501   502  0.000000000E+00  0.000000000E+00 -3.247156884E+02  3.247156884E+02  0.000000000E+00  0.00000E+00  9.000E+00
      25     1     1     2     0     0 -8.265109334E+01 -4.966628781E+02  3.632796575E+02  6.333263986E+02  1.250000000E+02  0.00000E+00  9.000E+00
      25     1     1     2     0     0  1.594431612E+02  2.991849491E+02  1.132180638E+02  3.786516676E+02  1.250000000E+02  0.00000E+00  9.000E+00
      21     1     1     2   512   502 -7.679206789E+01  1.974779290E+02  1.400150396E+02  2.539660714E+02  4.264961200E-06  0.00000E+00  9.000E+00
#rwgt            1           1   2.9941820123209190E-002           2      344107           0
</event>
<event>
      5   9999  3.19816E-02  5.02415E+00 -1.00000E+00  2.38151E-01
      21    -1     0     0   502   511  0.000000000E+00  0.000000000E+00  4.284666227E+02  4.284666227E+02  0.000000000E+00  0.00000E+00  9.000E+00
      21    -1     0     0   501   502  0.000000000E+00  0.000000000E+00 -1.629903334E+02  1.629903334E+02  0.000000000E+00  0.00000E+00  9.000E+00
      25     1     1     2     0     0  2.406579245E+01  8.045613339E+01 -1.072752934E+02  1.848927807E+02  1.250000000E+02  0.00000E+00  9.000E+00
      25     1     1     2     0     0 -2.689141280E+01 -8.461040559E+01  3.342539531E+02  3.677400902E+02  1.250000000E+02  0.00000E+00  9.000E+00
      21     1     1     2   501   511  2.825620346E+00  4.154272195E+00  3.849762957E+01  3.882408518E+01  4.768371582E-07  0.00000E+00  9.000E+00
#rwgt            1           1   2.8890485651800746E-002           2      344155           0
</event>
<event>
      5   9999  3.19816E-02  4.49866E+01 -1.00000E+00  1.41745E-01
      21    -1     0     0   502   501  0.000000000E+00  0.000000000E+00  2.082715240E+03  2.082715240E+03  0.000000000E+00  0.00000E+00  9.000E+00
      21    -1     0     0   501   512  0.000000000E+00  0.000000000E+00 -2.045969369E+01  2.045969369E+01  0.000000000E+00  0.00000E+00  9.000E+00
      25     1     1     2     0     0  2.264693998E+01  3.596985584E+01  2.878434641E+02  3.166789766E+02  1.250000000E+02  0.00000E+00  9.000E+00
      25     1     1     2     0     0 -6.757280930E+01 -3.830616734E+01  1.584877284E+03  1.591695464E+03  1.250000000E+02  0.00000E+00  9.000E+00
      21     1     1     2   502   512  4.492586933E+01  2.336311508E+00  1.895347985E+02  1.948004927E+02  0.000000000E+00  0.00000E+00  9.000E+00
#rwgt            1           1   8.9905379942045172E-002           2      344518           0
</event>
<event>
      5   9999  3.19816E-02  4.37915E+01 -1.00000E+00  1.42442E-01
      21    -1     0     0   502   501  0.000000000E+00  0.000000000E+00  5.968616653E+02  5.968616653E+02  0.000000000E+00  0.00000E+00  9.000E+00
      21    -1     0     0   501   511  0.000000000E+00  0.000000000E+00 -1.498676181E+02  1.498676181E+02  0.000000000E+00  0.00000E+00  9.000E+00
      25     1     1     2     0     0  1.621367629E+02 -2.418981355E+01 -1.081417430E+00  2.061544238E+02  1.250000000E+02  0.00000E+00  9.000E+00
      25     1     1     2     0     0 -1.207569463E+02  3.852168952E+01  4.616036398E+02  4.947414283E+02  1.250000000E+02  0.00000E+00  9.000E+00
      21     1     1     2   502   511 -4.137981668E+01 -1.433187597E+01 -1.352817513E+01  4.583343125E+01  8.085167388E-07  0.00000E+00  9.000E+00
#rwgt            1           1   3.2659337288169561E-002           2      344580           0
</event>
<event>
      5   9999  3.19816E-02  2.45228E+01 -1.00000E+00  1.59380E-01
      21    -1     0     0   502   501  0.000000000E+00  0.000000000E+00  3.899626870E+02  3.899626870E+02  0.000000000E+00  0.00000E+00  9.000E+00
      21    -1     0     0   512   502  0.000000000E+00  0.000000000E+00 -3.302164421E+02  3.302164421E+02  0.000000000E+00  0.00000E+00  9.000E+00
      25     1     1     2     0     0  7.596415818E+01 -1.028480925E+02  1.257993128E+02  2.186292537E+02  1.250000000E+02  0.00000E+00  9.000E+00
      25     1     1     2     0     0 -8.845416283E+01  8.174441786E+01  1.824545894E+02  2.518351961E+02  1.250000000E+02  0.00000E+00  9.000E+00
      21     1     1     2   512   501  1.249000465E+01  2.110367465E+01 -2.485076574E+02  2.497146794E+02  3.814697266E-06  0.00000E+00  9.000E+00
#rwgt            1           1   2.8143723600041508E-002           2      344696           0
</event>
<event>
      5   9999  3.19816E-02  7.89270E+00 -1.00000E+00  2.08440E-01
      21    -1     0     0   502   501  0.000000000E+00  0.000000000E+00  1.580583200E+02  1.580583200E+02  0.000000000E+00  0.00000E+00  9.000E+00
      21    -1     0     0   501   511  0.000000000E+00  0.000000000E+00 -1.197258623E+03  1.197258623E+03  0.000000000E+00  0.00000E+00  9.000E+00
      25     1     1     2     0     0  5.707528131E+01  7.463886845E+01 -3.909543080E+02  4.210686635E+02  1.250000000E+02  0.00000E+00  9.000E+00
      25     1     1     2     0     0 -5.114900939E+01 -7.985174008E+01  9.993678085E+01  1.860238741E+02  1.250000000E+02  0.00000E+00  9.000E+00
      21     1     1     2   502   511 -5.926271919E+00  5.212871629E+00 -7.481827759E+02  7.482244054E+02  1.078959322E-05  0.00000E+00  9.000E+00
#rwgt            1           1   2.8679246715133628E-002           2      344782           0
</event>
<event>
      5   9999  3.19816E-02  2.01223E+01 -1.00000E+00  1.66151E-01
      21    -1     0     0   502   501  0.000000000E+00  0.000000000E+00  2.440033382E+02  2.440033382E+02  0.000000000E+00  0.00000E+00  9.000E+00
      21    -1     0     0   501   512  0.000000000E+00  0.000000000E+00 -1.655160378E+02  1.655160378E+02  0.000000000E+00  0.00000E+00  9.000E+00
      25     1     1     2     0     0  4.875014325E+01 -3.667045619E+01  1.730411675E+02  2.220124872E+02  1.250000000E+02  0.00000E+00  9.000E+00
      25     1     1     2     0     0 -6.304789537E+01  2.251138091E+01 -8.269115900E+01  1.641481866E+02  1.250000000E+02  0.00000E+00  9.000E+00
      21     1     1     2   502   512  1.429775212E+01  1.415907528E+01 -1.186270809E+01  2.335870227E+01  5.331201500E-07  0.00000E+00  9.000E+00
#rwgt            1           1   3.1536290886310700E-002           2      345086           0
</event>
<event>
      5   9999  3.19816E-02  1.07781E+01 -1.00000E+00  1.92069E-01
      21    -1     0     0   511   501  0.000000000E+00  0.000000000E+00  2.329543491E+02  2.329543491E+02  0.000000000E+00  0.00000E+00  9.000E+00
      21    -1     0     0   501   502  0.000000000E+00  0.000000000E+00 -1.128444427E+03  1.128444427E+03  0.000000000E+00  0.00000E+00  9.000E+00
      25     1     1     2     0     0  1.381169715E+02 -5.255101762E+01  1.697937126E+02  2.574739057E+02  1.250000000E+02  0.00000E+00  9.000E+00
      25     1     1     2     0     0 -1.443722696E+02  6.132815912E+01 -1.072409088E+03  1.091004467E+03  1.250000000E+02  0.00000E+00  9.000E+00
      21     1     1     2   511   502  6.255298028E+00 -8.777141501E+00  7.125297262E+00  1.292040353E+01  2.384185791E-07  0.00000E+00  9.000E+00
#rwgt            1           1   2.7945474906687449E-002           2      345189           0
</event>
<event>
      5   9999  3.19816E-02  9.67850E+01 -1.00000E+00  1.24470E-01
      21    -1     0     0   502   501  0.000000000E+00  0.000000000E+00  1.217182145E+02  1.217182145E+02  0.000000000E+00  0.00000E+00  9.000E+00
       2    -1     0     0   501     0  0.000000000E+00  0.000000000E+00 -1.299957735E+03  1.299957735E+03  0.000000000E+00  0.00000E+00  9.000E+00
      25     1     1     2     0     0  4.246556422E+01  2.472332736E+02 -4.182614767E+02  5.034831463E+02  1.250000000E+02  0.00000E+00  9.000E+00
      25     1     1     2     0     0 -4.807678103E+01 -1.506110302E+02 -5.820978550E+01  2.097818829E+02  1.250000000E+02  0.00000E+00  9.000E+00
       2     1     1     2   502     0  5.611216805E+00 -9.662224344E+01 -7.017682580E+02  7.084109201E+02  0.000000000E+00  0.00000E+00  9.000E+00
#rwgt            1           1   2.9792755027393057E-002           2      345530           0
</event>
<event>
      5   9999  3.19816E-02  3.80368E+01 -1.00000E+00  1.46209E-01
      21    -1     0     0   511   501  0.000000000E+00  0.000000000E+00  2.151617439E+02  2.151617439E+02  0.000000000E+00  0.00000E+00  9.000E+00
      21    -1     0     0   501   502  0.000000000E+00  0.000000000E+00 -2.676418824E+02  2.676418824E+02  0.000000000E+00  0.00000E+00  9.000E+00
      25     1     1     2     0     0 -6.265102901E+01 -8.147416652E+01  3.022698882E+01  1.646264320E+02  1.250000000E+02  0.00000E+00  9.000E+00
      25     1     1     2     0     0  7.796183168E+01  1.162933934E+02 -1.504100032E+02  2.405210378E+02  1.250000000E+02  0.00000E+00  9.000E+00
      21     1     1     2   511   502 -1.531080267E+01 -3.481922691E+01  6.770287593E+01  7.765615655E+01  9.536743164E-07  0.00000E+00  9.000E+00
#rwgt            1           1   2.5718908639078979E-002           2      345569           0
</event>
<event>
      5   9999  3.19816E-02  1.44269E+02 -1.00000E+00  1.17068E-01
      21    -1     0     0   502   501  0.000000000E+00  0.000000000E+00  1.562856968E+03  1.562856968E+03  0.000000000E+00  0.00000E+00  9.000E+00
      21    -1     0     0   512   502  0.000000000E+00  0.000000000E+00 -3.710228328E+02  3.710228328E+02  0.000000000E+00  0.00000E+00  9.000E+00
      25     1     1     2     0     0  5.388014480E+02 -1.512308330E+02  2.223982639E+02  6.150315056E+02  1.250000000E+02  0.00000E+00  9.000E+00
      25     1     1     2     0     0 -5.170044962E+02  2.938438323E+02  1.001146761E+03  1.171135212E+03  1.250000000E+02  0.00000E+00  9.000E+00
      21     1     1     2   512   501 -2.179695177E+01 -1.426129993E+02 -3.171088932E+01  1.477130840E+02  3.568322551E-06  0.00000E+00  9.000E+00
#rwgt            1           1   2.5473980701283157E-002           2      345621           0
</event>
<event>
      5   9999  3.19816E-02  6.23652E+01 -1.00000E+00  1.33812E-01
      21    -1     0     0   502   501  0.000000000E+00  0.000000000E+00  4.131824059E+02  4.131824059E+02  0.000000000E+00  0.00000E+00  9.000E+00
      21    -1     0     0   511   502  0.000000000E+00  0.000000000E+00 -2.746305424E+02  2.746305424E+02  0.000000000E+00  0.00000E+00  9.000E+00
      25     1     1     2     0     0 -2.893677365E+02  1.647405167E+01  1.283467315E+02  3.407388513E+02  1.250000000E+02  0.00000E+00  9.000E+00
      25     1     1     2     0     0  2.295281421E+02 -3.404214568E+01  5.631384192E+01  2.695149059E+02  1.250000000E+02  0.00000E+00  9.000E+00
      21     1     1     2   511   501  5.983959440E+01  1.756809401E+01 -4.610871002E+01  7.755919110E+01  1.651812370E-06  0.00000E+00  9.000E+00
#rwgt            1           1   2.8060326522682269E-002           2      345697           0
</event>
<event>
      5   9999  3.19816E-02  2.77497E+02 -1.00000E+00  1.06704E-01
       1    -1     0     0   502     0  0.000000000E+00  0.000000000E+00  9.096139890E+02  9.096139890E+02  0.000000000E+00  0.00000E+00  9.000E+00
      21    -1     0     0   501   502  0.000000000E+00  0.000000000E+00 -7.204190823E+02  7.204190823E+02  0.000000000E+00  0.00000E+00  9.000E+00
      25     1     1     2     0     0  1.588801597E+02  1.926285228E+02 -4.682992924E+02  5.452319508E+02  1.250000000E+02  0.00000E+00  9.000E+00
      25     1     1     2     0     0  9.212379757E+01 -3.109571331E+02 -2.457870791E+01  3.484397302E+02  1.250000000E+02  0.00000E+00  9.000E+00
       1     1     1     2   501     0 -2.510039573E+02  1.183286103E+02  6.820729071E+02  7.363613903E+02  7.629394531E-06  0.00000E+00  9.000E+00
#rwgt            1           1   3.0164835042695536E-002           2      345749           0
</event>
<event>
      5   9999  3.19816E-02  2.64381E+01 -1.00000E+00  1.56953E-01
      21    -1     0     0   502   501  0.000000000E+00  0.000000000E+00  3.046232892E+02  3.046232892E+02  0.000000000E+00  0.00000E+00  9.000E+00
      -2    -1     0     0     0   502  0.000000000E+00  0.000000000E+00 -2.007169797E+02  2.007169797E+02  0.000000000E+00  0.00000E+00  9.000E+00
      25     1     1     2     0     0  1.678208443E+02 -1.127790707E+02  7.525938614E+01  2.493429962E+02  1.250000000E+02  0.00000E+00  9.000E+00
      25     1     1     2     0     0 -1.517261280E+02  9.180443838E+01  4.924342614E+01  2.224832305E+02  1.250000000E+02  0.00000E+00  9.000E+00
      -2     1     1     2     0   501 -1.609471629E+01  2.097463235E+01 -2.059650278E+01  3.351404215E+01  5.331201500E-07  0.00000E+00  9.000E+00
#rwgt            1           1   3.1731333056533750E-002           2      345811           0
</event>
<event>
      5   9999  3.19816E-02  8.52430E+01 -1.00000E+00  1.27029E-01
      21    -1     0     0   502   501  0.000000000E+00  0.000000000E+00  1.823561433E+03  1.823561433E+03  0.000000000E+00  0.00000E+00  9.000E+00
      21    -1     0     0   511   502  0.000000000E+00  0.000000000E+00 -2.864912868E+02  2.864912868E+02  0.000000000E+00  0.00000E+00  9.000E+00
      25     1     1     2     0     0  1.973147057E+02 -3.133814145E+02  1.622449655E+03  1.668864550E+03  1.250000000E+02  0.00000E+00  9.000E+00
      25     1     1     2     0     0 -1.268727093E+02  2.653783149E+02 -1.299293264E+02  3.450057453E+02  1.250000000E+02  0.00000E+00  9.000E+00
      21     1     1     2   511   501 -7.044199637E+01  4.800309959E+01  4.454981683E+01  9.618242356E+01  4.768371582E-07  0.00000E+00  9.000E+00
#rwgt            1           1   2.7907234086202704E-002           2      345927           0
</event>
<event>
      5   9999  3.19816E-02  1.32852E+01 -1.00000E+00  1.82499E-01
      21    -1     0     0   512   501  0.000000000E+00  0.000000000E+00  1.173129376E+02  1.173129376E+02  0.000000000E+00  0.00000E+00  9.000E+00
      21    -1     0     0   501   502  0.000000000E+00  0.000000000E+00 -5.070795198E+02  5.070795198E+02  0.000000000E+00  0.00000E+00  9.000E+00
      25     1     1     2     0     0  8.807381273E+01 -1.041590079E+02 -2.762215796E+02  3.324597065E+02  1.250000000E+02  0.00000E+00  9.000E+00
      25     1     1     2     0     0 -7.765334769E+01  9.591824863E+01 -1.636621388E+02  2.400846694E+02  1.250000000E+02  0.00000E+00  9.000E+00
      21     1     1     2   512   502 -1.042046503E+01  8.240759258E+00  5.011713626E+01  5.184808147E+01  9.536743164E-07  0.00000E+00  9.000E+00
#rwgt            1           1   2.5271102697242604E-002           2      346029           0
</event>
<event>
      5   9999  3.19816E-02  2.42841E+02 -1.00000E+00  1.08663E-01
      21    -1     0     0   502   501  0.000000000E+00  0.000000000E+00  7.717819467E+02  7.717819467E+02  0.000000000E+00  0.00000E+00  9.000E+00
      21    -1     0     0   511   502  0.000000000E+00  0.000000000E+00 -9.222478507E+02  9.222478507E+02  0.000000000E+00  0.00000E+00  9.000E+00
      25     1     1     2     0     0  4.300360639E+02  6.339731823E+02 -4.748598627E+01  7.776457619E+02  1.250000000E+02  0.00000E+00  9.000E+00
      25     1     1     2     0     0 -2.389919653E+02 -4.840601659E+02  1.413810948E+02  5.718784990E+02  1.250000000E+02  0.00000E+00  9.000E+00
      21     1     1     2   511   501 -1.910440986E+02 -1.499130164E+02 -2.443610126E+02  3.445055364E+02  5.394796609E-06  0.00000E+00  9.000E+00
#rwgt            1           1   3.3566417036934401E-002           2      346121           0
</event>
<event>
      5   9999  3.19816E-02  2.48785E+01 -1.00000E+00  1.58910E-01
      21    -1     0     0   502   501  0.000000000E+00  0.000000000E+00  4.361123787E+02  4.361123787E+02  0.000000000E+00  0.00000E+00  9.000E+00
      21    -1     0     0   501   512  0.000000000E+00  0.000000000E+00 -4.430883926E+02  4.430883926E+02  0.000000000E+00  0.00000E+00  9.000E+00
      25     1     1     2     0     0 -2.814737693E+02 -6.236164164E+01  2.993627802E+02  4.340040683E+02  1.250000000E+02  0.00000E+00  9.000E+00
      25     1     1     2     0     0  2.599224699E+02  7.479063943E+01 -2.783046636E+02  4.077153613E+02  1.250000000E+02  0.00000E+00  9.000E+00
      21     1     1     2   502   512  2.155129947E+01 -1.242899780E+01 -2.803413051E+01  3.748134160E+01  0.000000000E+00  0.00000E+00  9.000E+00
#rwgt            1           1   2.9726112496289571E-002           2      346188           0
</event>
<event>
      5   9999  3.19816E-02  2.67023E+02 -1.00000E+00  1.07262E-01
       1    -1     0     0   502     0  0.000000000E+00  0.000000000E+00  1.195451041E+03  1.195451041E+03  0.000000000E+00  0.00000E+00  9.000E+00
      21    -1     0     0   501   502  0.000000000E+00  0.000000000E+00 -4.053070986E+02  4.053070986E+02  0.000000000E+00  0.00000E+00  9.000E+00
      25     1     1     2     0     0 -1.951342928E+02  5.617729070E+01  4.243497757E+02  4.867555981E+02  1.250000000E+02  0.00000E+00  9.000E+00
      25     1     1     2     0     0  8.927263387E+01  1.889645285E+02 -3.060074036E+02  3.910789271E+02  1.250000000E+02  0.00000E+00  9.000E+00
       1     1     1     2   501     0  1.058616589E+02 -2.451418192E+02  6.718015700E+02  7.229236141E+02  1.078959322E-05  0.00000E+00  9.000E+00
#rwgt            1           1   2.8732871532110640E-002           2      346357           0
</event>
<event>
      5   9999  3.19816E-02  7.45381E+01 -1.00000E+00  1.29854E-01
      21    -1     0     0   502   501  0.000000000E+00  0.000000000E+00  1.569653963E+02  1.569653963E+02  0.000000000E+00  0.00000E+00  9.000E+00
      -2    -1     0     0     0   502  0.000000000E+00  0.000000000E+00 -1.539890426E+03  1.539890426E+03  0.000000000E+00  0.00000E+00  9.000E+00
      25     1     1     2     0     0 -1.968094049E+02  2.717470164E+02 -2.491432735E+02  4.362083832E+02  1.250000000E+02  0.00000E+00  9.000E+00
      25     1     1     2     0     0  1.872547302E+02 -1.978238488E+02 -3.017932726E+02  4.253266845E+02  1.250000000E+02  0.00000E+00  9.000E+00
      -2     1     1     2     0   501  9.554674668E+00 -7.392316761E+01 -8.319884836E+02  8.353207548E+02  1.525878906E-05  0.00000E+00  9.000E+00
#rwgt            1           1   2.6659536939470506E-002           2      346396           0
</event>
<event>
      5   9999  3.19816E-02  1.06589E+02 -1.00000E+00  1.22594E-01
      21    -1     0     0   502   501  0.000000000E+00  0.000000000E+00  2.185439308E+02  2.185439308E+02  0.000000000E+00  0.00000E+00  9.000E+00
      21    -1     0     0   511   502  0.000000000E+00  0.000000000E+00 -2.435201501E+03  2.435201501E+03  0.000000000E+00  0.00000E+00  9.000E+00
      25     1     1     2     0     0  1.836122045E+02 -1.737718188E+02 -1.576821496E+03  1.601843037E+03  1.250000000E+02  0.00000E+00  9.000E+00
      25     1     1     2     0     0 -1.894789266E+02  6.734468569E+01  1.331203906E+02  2.716313839E+02  1.250000000E+02  0.00000E+00  9.000E+00
      21     1     1     2   511   501  5.866722093E+00  1.064271331E+02 -7.729564653E+02  7.802710109E+02  0.000000000E+00  0.00000E+00  9.000E+00
#rwgt            1           1   2.6994031033217420E-002           2      346467           0
</event>
<event>
      5   9999  3.19816E-02  5.66332E+01 -1.00000E+00  1.36057E-01
      21    -1     0     0   502   501  0.000000000E+00  0.000000000E+00  1.414497478E+02  1.414497478E+02  0.000000000E+00  0.00000E+00  9.000E+00
      21    -1     0     0   512   502  0.000000000E+00  0.000000000E+00 -5.802318879E+02  5.802318879E+02  0.000000000E+00  0.00000E+00  9.000E+00
      25     1     1     2     0     0 -8.487623707E+01 -1.444785069E+02  1.067557628E+00  2.090553856E+02  1.250000000E+02  0.00000E+00  9.000E+00
      25     1     1     2     0     0  6.526183964E+01  9.135042250E+01 -1.781965742E+02  2.449143248E+02  1.250000000E+02  0.00000E+00  9.000E+00
      21     1     1     2   512   501  1.961439743E+01  5.312808442E+01 -2.616531234E+02  2.677119253E+02  6.607249480E-06  0.00000E+00  9.000E+00
#rwgt            1           1   2.8111969181297498E-002           2      346531           0
</event>
<event>
      5   9999  3.19816E-02  3.60966E+02 -1.00000E+00  1.03046E-01
      21    -1     0     0   502   511  0.000000000E+00  0.000000000E+00  1.810747796E+03  1.810747796E+03  0.000000000E+00  0.00000E+00  9.000E+00
      21    -1     0     0   501   502  0.000000000E+00  0.000000000E+00 -2.080803037E+02  2.080803037E+02  0.000000000E+00  0.00000E+00  9.000E+00
      25     1     1     2     0     0  4.726190400E+01  1.364850428E+02  6.401726962E+01  2.014573535E+02  1.250000000E+02  0.00000E+00  9.000E+00
      25     1     1     2     0     0 -5.288944731E+01 -4.974068283E+02  5.017476312E+02  7.194348698E+02  1.250000000E+02  0.00000E+00  9.000E+00
      21     1     1     2   501   511  5.627543306E+00  3.609217855E+02  1.036902591E+03  1.097935876E+03  2.157918644E-05  0.00000E+00  9.000E+00
#rwgt            1           1   2.7901996404913896E-002           2      346609           0
</event>
<event>
      5   9999  3.19816E-02  1.77325E+02 -1.00000E+00  1.13584E-01
      21    -1     0     0   502   501  0.000000000E+00  0.000000000E+00  6.408135295E+02  6.408135295E+02  0.000000000E+00  0.00000E+00  9.000E+00
       2    -1     0     0   501     0  0.000000000E+00  0.000000000E+00 -7.033091090E+02  7.033091090E+02  0.000000000E+00  0.00000E+00  9.000E+00
      25     1     1     2     0     0  4.181719511E+02  1.316564785E+02  3.838152839E+01  4.574924598E+02  1.250000000E+02  0.00000E+00  9.000E+00
      25     1     1     2     0     0 -3.466061491E+02 -2.938986672E+02  2.199103031E+02  5.200940210E+02  1.250000000E+02  0.00000E+00  9.000E+00
       2     1     1     2   502     0 -7.156580200E+01  1.622421888E+02 -3.207874111E+02  3.665361577E+02  6.607249480E-06  0.00000E+00  9.000E+00
#rwgt            1           1   2.9312426660579597E-002           2      346647           0
</event>
<event>
      5   9999  3.19816E-02  3.96321E+01 -1.00000E+00  1.45089E-01
      21    -1     0     0   502   501  0.000000000E+00  0.000000000E+00  4.324345884E+02  4.324345884E+02  0.000000000E+00  0.00000E+00  9.000E+00
      21    -1     0     0   511   502  0.000000000E+00  0.000000000E+00 -8.076151464E+02  8.076151464E+02  0.000000000E+00  0.00000E+00  9.000E+00
      25     1     1     2     0     0  2.040646666E+02  4.353856754E+02  1.547576312E+01  4.970589238E+02  1.250000000E+02  0.00000E+00  9.000E+00
      25     1     1     2     0     0 -1.809206449E+02 -4.675580405E+02 -2.094942177E+02  5.575442836E+02  1.250000000E+02  0.00000E+00  9.000E+00
      21     1     1     2   511   501 -2.314402172E+01  3.217236507E+01 -1.811621034E+02  1.854465274E+02  3.814697266E-06  0.00000E+00  9.000E+00
#rwgt            1           1   2.9518029262185400E-002           2      346735           0
</event>
<event>
      5   9999  3.19816E-02  2.87293E+02 -1.00000E+00  1.06206E-01
      21    -1     0     0   502   501  0.000000000E+00  0.000000000E+00  7.766455459E+01  7.766455459E+01  0.000000000E+00  0.00000E+00  9.000E+00
      21    -1     0     0   512   502  0.000000000E+00  0.000000000E+00 -1.972422368E+03  1.972422368E+03  0.000000000E+00  0.00000E+00  9.000E+00
      25     1     1     2     0     0 -2.517402582E+02  8.904396821E+01 -6.256272793E+02  6.916187378E+02  1.250000000E+02  0.00000E+00  9.000E+00
      25     1     1     2     0     0  7.147704409E+01  1.346582466E+02 -5.057293197E+02  5.427973434E+02  1.250000000E+02  0.00000E+00  9.000E+00
      21     1     1     2   512   501  1.802632141E+02 -2.237022148E+02 -7.634012142E+02  8.156708411E+02  1.078959322E-05  0.00000E+00  9.000E+00
#rwgt            1           1   2.5955009051382535E-002           2      346882           0
</event>
</LesHouchesEvents>
 #Random number generator exit values:            2        346927             0
